
                                 *****************
                                 * O   R   C   A *
                                 *****************

                                            #,                                       
                                            ###                                      
                                            ####                                     
                                            #####                                    
                                            ######                                   
                                           ########,                                 
                                     ,,################,,,,,                         
                               ,,#################################,,                 
                          ,,##########################################,,             
                       ,#########################################, ''#####,          
                    ,#############################################,,   '####,        
                  ,##################################################,,,,####,       
                ,###########''''           ''''###############################       
              ,#####''   ,,,,##########,,,,          '''####'''          '####       
            ,##' ,,,,###########################,,,                        '##       
           ' ,,###''''                  '''############,,,                           
         ,,##''                                '''############,,,,        ,,,,,,###''
      ,#''                                            '''#######################'''  
     '                                                          ''''####''''         
             ,#######,   #######,   ,#######,      ##                                
            ,#'     '#,  ##    ##  ,#'     '#,    #''#        ######   ,####,        
            ##       ##  ##   ,#'  ##            #'  '#       #        #'  '#        
            ##       ##  #######   ##           ,######,      #####,   #    #        
            '#,     ,#'  ##    ##  '#,     ,#' ,#      #,         ##   #,  ,#        
             '#######'   ##     ##  '#######'  #'      '#     #####' # '####'        



                  #######################################################
                  #                        -***-                        #
                  #          Department of theory and spectroscopy      #
                  #    Directorship and core code : Frank Neese         #
                  #        Max Planck Institute fuer Kohlenforschung    #
                  #                Kaiser Wilhelm Platz 1               #
                  #                 D-45470 Muelheim/Ruhr               #
                  #                      Germany                        #
                  #                                                     #
                  #                  All rights reserved                #
                  #                        -***-                        #
                  #######################################################


                         Program Version 5.0.4 -  RELEASE  -


 With contributions from (in alphabetic order):
   Daniel Aravena         : Magnetic Suceptibility
   Michael Atanasov       : Ab Initio Ligand Field Theory (pilot matlab implementation)
   Alexander A. Auer      : GIAO ZORA, VPT2 properties, NMR spectrum
   Ute Becker             : Parallelization
   Giovanni Bistoni       : ED, misc. LED, open-shell LED, HFLD
   Martin Brehm           : Molecular dynamics
   Dmytro Bykov           : SCF Hessian
   Vijay G. Chilkuri      : MRCI spin determinant printing, contributions to CSF-ICE
   Dipayan Datta          : RHF DLPNO-CCSD density
   Achintya Kumar Dutta   : EOM-CC, STEOM-CC
   Dmitry Ganyushin       : Spin-Orbit,Spin-Spin,Magnetic field MRCI
   Miquel Garcia          : C-PCM and meta-GGA Hessian, CC/C-PCM, Gaussian charge scheme
   Yang Guo               : DLPNO-NEVPT2, F12-NEVPT2, CIM, IAO-localization
   Andreas Hansen         : Spin unrestricted coupled pair/coupled cluster methods
   Benjamin Helmich-Paris : MC-RPA, TRAH-SCF, COSX integrals
   Lee Huntington         : MR-EOM, pCC
   Robert Izsak           : Overlap fitted RIJCOSX, COSX-SCS-MP3, EOM
   Marcus Kettner         : VPT2
   Christian Kollmar      : KDIIS, OOCD, Brueckner-CCSD(T), CCSD density, CASPT2, CASPT2-K
   Simone Kossmann        : Meta GGA functionals, TD-DFT gradient, OOMP2, MP2 Hessian
   Martin Krupicka        : Initial AUTO-CI
   Lucas Lang             : DCDCAS
   Marvin Lechner         : AUTO-CI (C++ implementation), FIC-MRCC
   Dagmar Lenk            : GEPOL surface, SMD
   Dimitrios Liakos       : Extrapolation schemes; Compound Job, initial MDCI parallelization
   Dimitrios Manganas     : Further ROCIS development; embedding schemes
   Dimitrios Pantazis     : SARC Basis sets
   Anastasios Papadopoulos: AUTO-CI, single reference methods and gradients
   Taras Petrenko         : DFT Hessian,TD-DFT gradient, ASA, ECA, R-Raman, ABS, FL, XAS/XES, NRVS
   Peter Pinski           : DLPNO-MP2, DLPNO-MP2 Gradient
   Christoph Reimann      : Effective Core Potentials
   Marius Retegan         : Local ZFS, SOC
   Christoph Riplinger    : Optimizer, TS searches, QM/MM, DLPNO-CCSD(T), (RO)-DLPNO pert. Triples
   Tobias Risthaus        : Range-separated hybrids, TD-DFT gradient, RPA, STAB
   Michael Roemelt        : Original ROCIS implementation
   Masaaki Saitow         : Open-shell DLPNO-CCSD energy and density
   Barbara Sandhoefer     : DKH picture change effects
   Avijit Sen             : IP-ROCIS
   Kantharuban Sivalingam : CASSCF convergence, NEVPT2, FIC-MRCI
   Bernardo de Souza      : ESD, SOC TD-DFT
   Georgi Stoychev        : AutoAux, RI-MP2 NMR, DLPNO-MP2 response
   Willem Van den Heuvel  : Paramagnetic NMR
   Boris Wezisla          : Elementary symmetry handling
   Frank Wennmohs         : Technical directorship


 We gratefully acknowledge several colleagues who have allowed us to
 interface, adapt or use parts of their codes:
   Stefan Grimme, W. Hujo, H. Kruse, P. Pracht,  : VdW corrections, initial TS optimization,
                  C. Bannwarth, S. Ehlert          DFT functionals, gCP, sTDA/sTD-DF
   Ed Valeev, F. Pavosevic, A. Kumar             : LibInt (2-el integral package), F12 methods
   Garnet Chan, S. Sharma, J. Yang, R. Olivares  : DMRG
   Ulf Ekstrom                                   : XCFun DFT Library
   Mihaly Kallay                                 : mrcc  (arbitrary order and MRCC methods)
   Jiri Pittner, Ondrej Demel                    : Mk-CCSD
   Frank Weinhold                                : gennbo (NPA and NBO analysis)
   Christopher J. Cramer and Donald G. Truhlar   : smd solvation model
   Lars Goerigk                                  : TD-DFT with DH, B97 family of functionals
   V. Asgeirsson, H. Jonsson                     : NEB implementation
   FAccTs GmbH                                   : IRC, NEB, NEB-TS, DLPNO-Multilevel, CI-OPT
                                                   MM, QMMM, 2- and 3-layer-ONIOM, Crystal-QMMM,
                                                   LR-CPCM, SF, NACMEs, symmetry and pop. for TD-DFT,
                                                   nearIR, NL-DFT gradient (VV10), updates on ESD,
                                                   ML-optimized integration grids
   S Lehtola, MJT Oliveira, MAL Marques          : LibXC Library
   Liviu Ungur et al                             : ANISO software


 Your calculation uses the libint2 library for the computation of 2-el integrals
 For citations please refer to: http://libint.valeyev.net

 Your ORCA version has been built with support for libXC version: 5.1.0
 For citations please refer to: https://tddft.org/programs/libxc/

 This ORCA versions uses:
   CBLAS   interface :  Fast vector & matrix operations
   LAPACKE interface :  Fast linear algebra routines
   SCALAPACK package :  Parallel linear algebra routines
   Shared memory     :  Shared parallel matrices
   BLAS/LAPACK       :  OpenBLAS 0.3.15  USE64BITINT DYNAMIC_ARCH NO_AFFINITY Haswell SINGLE_THREADED
        Core in use  :  Haswell
   Copyright (c) 2011-2014, The OpenBLAS Project


Your calculation utilizes the atom-pairwise dispersion correction
with the Becke-Johnson damping scheme (D3BJ)
Cite in your paper:
S.Grimme, S.Ehrlich, L.Goerigk, J Comput Chem, (2011), 32, 1456–1465 
S.Grimme, J.Antony, S.Ehrlich and H.Krieg, J.Chem.Phys., 132, (2010), 154104 
   

================================================================================

----- Orbital basis set information -----
Your calculation utilizes the basis: def2-TZVP
   F. Weigend and R. Ahlrichs, Phys. Chem. Chem. Phys. 7, 3297 (2005).

----- AuxJ basis set information -----
Your calculation utilizes the auxiliary basis: def2/J
   F. Weigend, Phys. Chem. Chem. Phys. 8, 1057 (2006).

================================================================================
                                        WARNINGS
                       Please study these warnings very carefully!
================================================================================


WARNING: Geometry Optimization
  ===> : Switching off AutoStart
         For restart on a previous wavefunction, please use MOREAD

INFO   : the flag for use of the SHARK integral package has been found!

================================================================================
                                       INPUT FILE
================================================================================
NAME = 4-NO2Ph-PhenO/4-NO2Ph-PhenO.inp
|  1> %pal nprocs 24 end
|  2> %maxcore 3500
|  3> ! PBE0 D3BJ def2-TZVP TightSCF OPT FREQ TightOpt
|  4> ! CPCM(dmso)
|  5> %scf
|  6> MaxIter 800
|  7> end
|  8> %geom
|  9> MaxIter 800
| 10> MaxStep 0.2
| 11> end
| 12> *xyz -1 1
| 13> 
| 14> C      -0.00135900     -0.55227400     -1.63046000
| 15> C       0.11135100      0.66679000     -0.92963800
| 16> C      -0.10751700     -1.71524500     -0.83901200
| 17> H       0.17231700      1.59793900     -1.48277800
| 18> H      -0.17278800     -2.68521900     -1.32022100
| 19> C       0.11235300      0.72834700      0.44001300
| 20> C      -0.09705000     -1.67406600      0.53121300
| 21> H       0.18494400      1.68931200      0.94098800
| 22> H      -0.16477600     -2.59478600      1.10342500
| 23> C       0.01095500     -0.44377100      1.26124800
| 24> O       0.01636200     -0.39660000      2.52486100
| 25> C      -0.00848200     -0.60743500     -3.07670500
| 26> C       0.41799100      0.48464300     -3.86407700
| 27> C      -0.44247800     -1.75714500     -3.77270700
| 28> C       0.40883900      0.43974300     -5.23695300
| 29> C      -0.45006300     -1.81790800     -5.14481000
| 30> C      -0.02535100     -0.71555900     -5.88284000
| 31> H       0.78681900      1.38210900     -3.38505500
| 32> H      -0.80482200     -2.61502600     -3.22177000
| 33> H       0.74832700      1.28543500     -5.81961300
| 34> H      -0.79533500     -2.70610200     -5.65648800
| 35> N      -0.03553900     -0.77065500     -7.30943900
| 36> O       0.30264200      0.22421100     -7.93960500
| 37> O      -0.38241100     -1.81143500     -7.85499700
| 38> *
| 39> 
| 40>                          ****END OF INPUT****
================================================================================

                       *****************************
                       * Geometry Optimization Run *
                       *****************************

Geometry optimization settings:
Update method            Update   .... BFGS
Choice of coordinates    CoordSys .... Z-matrix Internals
Initial Hessian          InHess   .... Almoef's Model

Convergence Tolerances:
Energy Change            TolE     ....  1.0000e-06 Eh
Max. Gradient            TolMAXG  ....  1.0000e-04 Eh/bohr
RMS Gradient             TolRMSG  ....  3.0000e-05 Eh/bohr
Max. Displacement        TolMAXD  ....  1.0000e-03 bohr
RMS Displacement         TolRMSD  ....  6.0000e-04 bohr
Strict Convergence                ....  False
------------------------------------------------------------------------------
                        ORCA OPTIMIZATION COORDINATE SETUP
------------------------------------------------------------------------------

The optimization will be done in new redundant internal coordinates
Making redundant internal coordinates   ...  (new redundants) done
Evaluating the initial hessian          ...  (Almloef) done
Evaluating the coordinates              ...  done
Calculating the B-matrix                .... done
Calculating the G-matrix                .... done
Diagonalizing the G-matrix              .... done
Small eigenvalue found = 9.366e-03
The first mode is                       ....   54
The number of degrees of freedom        ....   66

    -----------------------------------------------------------------
                    Redundant Internal Coordinates


    -----------------------------------------------------------------
         Definition                    Initial Value    Approx d2E/dq
    -----------------------------------------------------------------
      1. B(C   1,C   0)                  1.4107         0.579123   
      2. B(C   2,C   0)                  1.4107         0.578981   
      3. B(H   3,C   1)                  1.0848         0.367090   
      4. B(H   4,C   2)                  1.0847         0.367119   
      5. B(C   5,C   1)                  1.3710         0.669881   
      6. B(C   6,C   2)                  1.3709         0.670251   
      7. B(H   7,C   5)                  1.0861         0.365243   
      8. B(H   8,C   6)                  1.0862         0.365219   
      9. B(C   9,C   6)                  1.4347         0.530262   
     10. B(C   9,C   5)                  1.4348         0.530040   
     11. B(O  10,C   9)                  1.2645         0.887351   
     12. B(C  11,C   0)                  1.4473         0.506171   
     13. B(C  12,C  11)                  1.4123         0.575745   
     14. B(C  13,C  11)                  1.4123         0.575643   
     15. B(C  14,C  12)                  1.3736         0.663497   
     16. B(C  15,C  13)                  1.3735         0.663916   
     17. B(C  16,C  15)                  1.3929         0.618117   
     18. B(C  16,C  14)                  1.3930         0.617977   
     19. B(H  17,C  12)                  1.0821         0.370703   
     20. B(H  18,C  13)                  1.0820         0.370802   
     21. B(H  19,C  14)                  1.0816         0.371334   
     22. B(H  20,C  15)                  1.0816         0.371349   
     23. B(N  21,C  16)                  1.4277         0.487225   
     24. B(O  22,N  21)                  1.2252         0.918043   
     25. B(O  23,N  21)                  1.2252         0.918121   
     26. A(C   1,C   0,C  11)          121.9896         0.413533   
     27. A(C   1,C   0,C   2)          116.0849         0.423556   
     28. A(C   2,C   0,C  11)          121.9255         0.413515   
     29. A(C   0,C   1,H   3)          119.5354         0.349999   
     30. A(H   3,C   1,C   5)          118.0876         0.358743   
     31. A(C   0,C   1,C   5)          122.3548         0.434783   
     32. A(C   0,C   2,C   6)          122.3719         0.434807   
     33. A(C   0,C   2,H   4)          119.5250         0.349990   
     34. A(H   4,C   2,C   6)          118.0811         0.358782   
     35. A(H   7,C   5,C   9)          117.6134         0.344528   
     36. A(C   1,C   5,C   9)          122.3488         0.427921   
     37. A(C   1,C   5,H   7)          120.0365         0.358435   
     38. A(H   8,C   6,C   9)          117.6166         0.344548   
     39. A(C   2,C   6,C   9)          122.3403         0.427996   
     40. A(C   2,C   6,H   8)          120.0417         0.358465   
     41. A(C   5,C   9,C   6)          114.4959         0.410458   
     42. A(C   5,C   9,O  10)          122.7653         0.447216   
     43. A(C   6,C   9,O  10)          122.7388         0.447250   
     44. A(C  12,C  11,C  13)          116.5864         0.422677   
     45. A(C   0,C  11,C  13)          121.6674         0.413091   
     46. A(C   0,C  11,C  12)          121.7462         0.413104   
     47. A(C  14,C  12,H  17)          118.1520         0.358756   
     48. A(C  11,C  12,H  17)          119.8325         0.350233   
     49. A(C  11,C  12,C  14)          122.0007         0.433578   
     50. A(C  15,C  13,H  18)          118.1473         0.358811   
     51. A(C  11,C  13,H  18)          119.8287         0.350238   
     52. A(C  11,C  13,C  15)          122.0078         0.433614   
     53. A(C  12,C  14,H  19)          120.7128         0.358860   
     54. A(C  12,C  14,C  16)          119.5115         0.439143   
     55. A(C  16,C  14,H  19)          119.7696         0.354554   
     56. A(C  13,C  15,C  16)          119.5129         0.439211   
     57. A(C  16,C  15,H  20)          119.7717         0.354570   
     58. A(C  13,C  15,H  20)          120.7095         0.358901   
     59. A(C  14,C  16,C  15)          120.3793         0.433574   
     60. A(C  15,C  16,N  21)          119.7831         0.412837   
     61. A(C  14,C  16,N  21)          119.8376         0.412820   
     62. A(O  22,N  21,O  23)          122.6065         0.487640   
     63. A(C  16,N  21,O  23)          118.6678         0.437312   
     64. A(C  16,N  21,O  22)          118.7257         0.437305   
     65. D(C   5,C   1,C   0,C   2)     -0.2925         0.023039   
     66. D(H   3,C   1,C   0,C  11)      1.4249         0.023039   
     67. D(C   5,C   1,C   0,C  11)    179.6750         0.023039   
     68. D(H   3,C   1,C   0,C   2)   -178.5426         0.023039   
     69. D(C   6,C   2,C   0,C   1)     -0.2661         0.023027   
     70. D(H   4,C   2,C   0,C  11)      1.5038         0.023027   
     71. D(H   4,C   2,C   0,C   1)   -178.5287         0.023027   
     72. D(C   6,C   2,C   0,C  11)    179.7664         0.023027   
     73. D(C   9,C   5,C   1,H   3)    178.8496         0.031383   
     74. D(C   9,C   5,C   1,C   0)      0.5754         0.031383   
     75. D(H   7,C   5,C   1,C   0)   -179.0028         0.031383   
     76. D(H   7,C   5,C   1,H   3)     -0.7286         0.031383   
     77. D(C   9,C   6,C   2,C   0)      0.5561         0.031420   
     78. D(H   8,C   6,C   2,H   4)     -0.7076         0.031420   
     79. D(H   8,C   6,C   2,C   0)   -178.9941         0.031420   
     80. D(C   9,C   6,C   2,H   4)    178.8426         0.031420   
     81. D(O  10,C   9,C   6,H   8)     -0.7091         0.019193   
     82. D(C   5,C   9,C   6,H   8)    179.2885         0.019193   
     83. D(C   5,C   9,C   6,C   2)     -0.2721         0.019193   
     84. D(O  10,C   9,C   5,H   7)     -0.6964         0.019177   
     85. D(O  10,C   9,C   5,C   1)    179.7157         0.019177   
     86. D(O  10,C   9,C   6,C   2)    179.7303         0.019193   
     87. D(C   6,C   9,C   5,H   7)    179.3060         0.019177   
     88. D(C   6,C   9,C   5,C   1)     -0.2819         0.019177   
     89. D(C  13,C  11,C   0,C   2)     15.7157         0.017457   
     90. D(C  13,C  11,C   0,C   1)   -164.2499         0.017457   
     91. D(C  12,C  11,C   0,C   2)   -164.2760         0.017457   
     92. D(C  12,C  11,C   0,C   1)     15.7584         0.017457   
     93. D(H  17,C  12,C  11,C   0)      1.6688         0.022759   
     94. D(C  14,C  12,C  11,C  13)      0.2491         0.022759   
     95. D(C  14,C  12,C  11,C   0)   -179.7588         0.022759   
     96. D(H  17,C  12,C  11,C  13)   -178.3232         0.022759   
     97. D(H  18,C  13,C  11,C  12)   -178.4045         0.022750   
     98. D(H  18,C  13,C  11,C   0)      1.6034         0.022750   
     99. D(C  15,C  13,C  11,C  12)      0.1025         0.022750   
    100. D(C  15,C  13,C  11,C   0)   -179.8896         0.022750   
    101. D(H  19,C  14,C  12,H  17)     -0.8647         0.030743   
    102. D(H  19,C  14,C  12,C  11)   -179.4601         0.030743   
    103. D(C  16,C  14,C  12,H  17)    178.2360         0.030743   
    104. D(C  16,C  14,C  12,C  11)     -0.3594         0.030743   
    105. D(H  20,C  15,C  13,H  18)     -0.9114         0.030785   
    106. D(H  20,C  15,C  13,C  11)   -179.4425         0.030785   
    107. D(C  16,C  15,C  13,H  18)    178.1974         0.030785   
    108. D(C  16,C  15,C  13,C  11)     -0.3337         0.030785   
    109. D(N  21,C  16,C  15,H  20)     -0.6511         0.026428   
    110. D(N  21,C  16,C  15,C  13)   -179.7684         0.026428   
    111. D(C  14,C  16,C  15,H  20)    179.3392         0.026428   
    112. D(C  14,C  16,C  15,C  13)      0.2219         0.026428   
    113. D(N  21,C  16,C  14,H  19)     -0.7817         0.026416   
    114. D(N  21,C  16,C  14,C  12)   -179.8910         0.026416   
    115. D(C  15,C  16,C  14,H  19)    179.2280         0.026416   
    116. D(C  15,C  16,C  14,C  12)      0.1187         0.026416   
    117. D(O  23,N  21,C  16,C  15)     -2.2297         0.018740   
    118. D(O  23,N  21,C  16,C  14)    177.7799         0.018740   
    119. D(O  22,N  21,C  16,C  15)    177.7640         0.018740   
    120. D(O  22,N  21,C  16,C  14)     -2.2263         0.018740   
    -----------------------------------------------------------------

Number of atoms                         .... 24
Number of degrees of freedom            .... 120

         *************************************************************
         *                GEOMETRY OPTIMIZATION CYCLE   1            *
         *************************************************************
---------------------------------
CARTESIAN COORDINATES (ANGSTROEM)
---------------------------------
  C     -0.001359   -0.552274   -1.630460
  C      0.111351    0.666790   -0.929638
  C     -0.107517   -1.715245   -0.839012
  H      0.172317    1.597939   -1.482778
  H     -0.172788   -2.685219   -1.320221
  C      0.112353    0.728347    0.440013
  C     -0.097050   -1.674066    0.531213
  H      0.184944    1.689312    0.940988
  H     -0.164776   -2.594786    1.103425
  C      0.010955   -0.443771    1.261248
  O      0.016362   -0.396600    2.524861
  C     -0.008482   -0.607435   -3.076705
  C      0.417991    0.484643   -3.864077
  C     -0.442478   -1.757145   -3.772707
  C      0.408839    0.439743   -5.236953
  C     -0.450063   -1.817908   -5.144810
  C     -0.025351   -0.715559   -5.882840
  H      0.786819    1.382109   -3.385055
  H     -0.804822   -2.615026   -3.221770
  H      0.748327    1.285435   -5.819613
  H     -0.795335   -2.706102   -5.656488
  N     -0.035539   -0.770655   -7.309439
  O      0.302642    0.224211   -7.939605
  O     -0.382411   -1.811435   -7.854997

----------------------------
CARTESIAN COORDINATES (A.U.)
----------------------------
  NO LB      ZA    FRAG     MASS         X           Y           Z
   0 C     6.0000    0    12.011   -0.002568   -1.043647   -3.081123
   1 C     6.0000    0    12.011    0.210423    1.260050   -1.756761
   2 C     6.0000    0    12.011   -0.203178   -3.241343   -1.585503
   3 H     1.0000    0     1.008    0.325632    3.019667   -2.802044
   4 H     1.0000    0     1.008   -0.326522   -5.074329   -2.494856
   5 C     6.0000    0    12.011    0.212316    1.376376    0.831504
   6 C     6.0000    0    12.011   -0.183398   -3.163526    1.003847
   7 H     1.0000    0     1.008    0.349494    3.192337    1.778210
   8 H     1.0000    0     1.008   -0.311382   -4.903435    2.085171
   9 C     6.0000    0    12.011    0.020702   -0.838606    2.383413
  10 O     8.0000    0    15.999    0.030920   -0.749465    4.771296
  11 C     6.0000    0    12.011   -0.016029   -1.147886   -5.814130
  12 C     6.0000    0    12.011    0.789889    0.915843   -7.302047
  13 C     6.0000    0    12.011   -0.836162   -3.320523   -7.129383
  14 C     6.0000    0    12.011    0.772594    0.830994   -9.896407
  15 C     6.0000    0    12.011   -0.850496   -3.435348   -9.722282
  16 C     6.0000    0    12.011   -0.047906   -1.352211  -11.116956
  17 H     1.0000    0     1.008    1.486872    2.611807   -6.396827
  18 H     1.0000    0     1.008   -1.520893   -4.941683   -6.088263
  19 H     1.0000    0     1.008    1.414133    2.429120  -10.997475
  20 H     1.0000    0     1.008   -1.502965   -5.113792  -10.689213
  21 N     7.0000    0    14.007   -0.067159   -1.456327  -13.812838
  22 O     8.0000    0    15.999    0.571910    0.423697  -15.003679
  23 O     8.0000    0    15.999   -0.722652   -3.423116  -14.843793

--------------------------------
INTERNAL COORDINATES (ANGSTROEM)
--------------------------------
 C      0   0   0     0.000000000000     0.00000000     0.00000000
 C      1   0   0     1.410663693401     0.00000000     0.00000000
 C      1   2   0     1.410730663348   116.08489298     0.00000000
 H      2   1   3     1.084766874935   119.53537596   181.45743891
 H      3   1   2     1.084745115591   119.52500844   181.47130887
 C      2   1   3     1.371033963859   122.35478631   359.70749949
 C      3   1   2     1.370883590519   122.37192633   359.73389831
 H      6   2   1     1.086139556011   120.03646701   180.99719356
 H      7   3   1     1.086157770501   120.04168795   181.00587762
 C      7   3   1     1.434657439347   122.34027884     0.55612749
 O     10   7   3     1.264504706460   122.73878533   179.73027652
 C      1   2   3     1.447314089296   121.98960489   179.96747704
 C     12   1   2     1.412256437124   121.74620641    15.75844736
 C     12   1   2     1.412304639984   121.66740367   195.75010612
 C     13  12   1     1.373640520835   122.00066334   180.24120003
 C     14  12   1     1.373468717155   122.00779949   180.11044418
 C     16  14  12     1.392925655462   119.51289018   359.66633609
 H     13  12   1     1.082100453389   119.83250815     1.66881456
 H     14  12   1     1.082027985990   119.82872099     1.60344670
 H     15  13  12     1.081637525518   120.71284219   180.53992305
 H     16  14  12     1.081626419474   120.70945415   180.55751072
 N     17  16  14     1.427698872788   119.78305207   180.23159175
 O     22  17  16     1.225248519392   118.72567356   177.76403235
 O     22  17  16     1.225225172835   118.66778039   357.77030523

---------------------------
INTERNAL COORDINATES (A.U.)
---------------------------
 C      0   0   0     0.000000000000     0.00000000     0.00000000
 C      1   0   0     2.665768047594     0.00000000     0.00000000
 C      1   2   0     2.665894602452   116.08489298     0.00000000
 H      2   1   3     2.049912312777   119.53537596   181.45743891
 H      3   1   2     2.049871193575   119.52500844   181.47130887
 C      2   1   3     2.590878711997   122.35478631   359.70749949
 C      3   1   2     2.590594547568   122.37192633   359.73389831
 H      6   2   1     2.052506304079   120.03646701   180.99719356
 H      7   3   1     2.052540724478   120.04168795   181.00587762
 C      7   3   1     2.711109656359   122.34027884     0.55612749
 O     10   7   3     2.389567590264   122.73878533   179.73027652
 C      1   2   3     2.735027258535   121.98960489   179.96747704
 C     12   1   2     2.668777897031   121.74620641    15.75844736
 C     12   1   2     2.668868987236   121.66740367   195.75010612
 C     13  12   1     2.595804390835   122.00066334   180.24120003
 C     14  12   1     2.595479728931   122.00779949   180.11044418
 C     16  14  12     2.632248013736   119.51289018   359.66633609
 H     13  12   1     2.044873506297   119.83250815     1.66881456
 H     14  12   1     2.044736562760   119.82872099     1.60344670
 H     15  13  12     2.043998699401   120.71284219   180.53992305
 H     16  14  12     2.043977712020   120.70945415   180.55751072
 N     17  16  14     2.697959871278   119.78305207   180.23159175
 O     22  17  16     2.315384147644   118.72567356   177.76403235
 O     22  17  16     2.315340029044   118.66778039   357.77030523

---------------------
BASIS SET INFORMATION
---------------------
There are 4 groups of distinct atoms

 Group   1 Type C   : 11s6p2d1f contracted to 5s3p2d1f pattern {62111/411/11/1}
 Group   2 Type H   : 5s1p contracted to 3s1p pattern {311/1}
 Group   3 Type O   : 11s6p2d1f contracted to 5s3p2d1f pattern {62111/411/11/1}
 Group   4 Type N   : 11s6p2d1f contracted to 5s3p2d1f pattern {62111/411/11/1}

Atom   0C    basis set group =>   1
Atom   1C    basis set group =>   1
Atom   2C    basis set group =>   1
Atom   3H    basis set group =>   2
Atom   4H    basis set group =>   2
Atom   5C    basis set group =>   1
Atom   6C    basis set group =>   1
Atom   7H    basis set group =>   2
Atom   8H    basis set group =>   2
Atom   9C    basis set group =>   1
Atom  10O    basis set group =>   3
Atom  11C    basis set group =>   1
Atom  12C    basis set group =>   1
Atom  13C    basis set group =>   1
Atom  14C    basis set group =>   1
Atom  15C    basis set group =>   1
Atom  16C    basis set group =>   1
Atom  17H    basis set group =>   2
Atom  18H    basis set group =>   2
Atom  19H    basis set group =>   2
Atom  20H    basis set group =>   2
Atom  21N    basis set group =>   4
Atom  22O    basis set group =>   3
Atom  23O    basis set group =>   3
---------------------------------
AUXILIARY/J BASIS SET INFORMATION
---------------------------------
There are 4 groups of distinct atoms

 Group   1 Type C   : 12s5p4d2f1g contracted to 6s4p3d1f1g pattern {711111/2111/211/2/1}
 Group   2 Type H   : 5s2p1d contracted to 3s1p1d pattern {311/2/1}
 Group   3 Type O   : 12s5p4d2f1g contracted to 6s4p3d1f1g pattern {711111/2111/211/2/1}
 Group   4 Type N   : 12s5p4d2f1g contracted to 6s4p3d1f1g pattern {711111/2111/211/2/1}

Atom   0C    basis set group =>   1
Atom   1C    basis set group =>   1
Atom   2C    basis set group =>   1
Atom   3H    basis set group =>   2
Atom   4H    basis set group =>   2
Atom   5C    basis set group =>   1
Atom   6C    basis set group =>   1
Atom   7H    basis set group =>   2
Atom   8H    basis set group =>   2
Atom   9C    basis set group =>   1
Atom  10O    basis set group =>   3
Atom  11C    basis set group =>   1
Atom  12C    basis set group =>   1
Atom  13C    basis set group =>   1
Atom  14C    basis set group =>   1
Atom  15C    basis set group =>   1
Atom  16C    basis set group =>   1
Atom  17H    basis set group =>   2
Atom  18H    basis set group =>   2
Atom  19H    basis set group =>   2
Atom  20H    basis set group =>   2
Atom  21N    basis set group =>   4
Atom  22O    basis set group =>   3
Atom  23O    basis set group =>   3


           ************************************************************
           *        Program running with 24 parallel MPI-processes    *
           *              working on a common directory               *
           ************************************************************
------------------------------------------------------------------------------
                           ORCA GTO INTEGRAL CALCULATION
                           -- RI-GTO INTEGRALS CHOSEN --
------------------------------------------------------------------------------
------------------------------------------------------------------------------
                   ___                                                        
                  /   \      - P O W E R E D   B Y -                         
                 /     \                                                     
                 |  |  |   _    _      __       _____    __    __             
                 |  |  |  | |  | |    /  \     |  _  \  |  |  /  |          
                  \  \/   | |  | |   /    \    | | | |  |  | /  /          
                 / \  \   | |__| |  /  /\  \   | |_| |  |  |/  /          
                |  |  |   |  __  | /  /__\  \  |    /   |      \           
                |  |  |   | |  | | |   __   |  |    \   |  |\   \          
                \     /   | |  | | |  |  |  |  | |\  \  |  | \   \       
                 \___/    |_|  |_| |__|  |__|  |_| \__\ |__|  \__/        
                                                                              
                      - O R C A' S   B I G   F R I E N D -                    
                                      &                                       
                       - I N T E G R A L  F E E D E R -                       
                                                                              
 v1 FN, 2020, v2 2021                                                         
------------------------------------------------------------------------------


Reading SHARK input file 4-NO2Ph-PhenO/4-NO2Ph-PhenO.SHARKINP.tmp ... ok
----------------------
SHARK INTEGRAL PACKAGE
----------------------

Number of atoms                             ...     24
Number of basis functions                   ...    544
Number of shells                            ...    208
Maximum angular momentum                    ...      3
Integral batch strategy                     ... SHARK/LIBINT Hybrid
RI-J (if used) integral strategy            ... SPLIT-RIJ (Revised 2003 algorithm where possible)
Printlevel                                  ...      1
Contraction scheme used                     ... SEGMENTED contraction
Coulomb Range Separation                    ... NOT USED
Exchange Range Separation                   ... NOT USED
Finite Nucleus Model                        ... NOT USED
Auxiliary Coulomb fitting basis             ... AVAILABLE
   # of basis functions in Aux-J            ...    872
   # of shells in Aux-J                     ...    280
   Maximum angular momentum in Aux-J        ...      4
Auxiliary J/K fitting basis                 ... NOT available
Auxiliary Correlation fitting basis         ... NOT available
Auxiliary 'external' fitting basis          ... NOT available
Integral threshold                          ...     2.500000e-11
Primitive cut-off                           ...     2.500000e-12
Primitive pair pre-selection threshold      ...     2.500000e-12

Calculating pre-screening integrals         ... done (  0.1 sec) Dimension = 208
Organizing shell pair data                  ... done (  0.2 sec)
Shell pair information
Total number of shell pairs                 ...     21736
Shell pairs after pre-screening             ...     16266
Total number of primitive shell pairs       ...     68272
Primitive shell pairs kept                  ...     35463
          la=0 lb=0:   3911 shell pairs
          la=1 lb=0:   4532 shell pairs
          la=1 lb=1:   1331 shell pairs
          la=2 lb=0:   2411 shell pairs
          la=2 lb=1:   1410 shell pairs
          la=2 lb=2:    381 shell pairs
          la=3 lb=0:   1159 shell pairs
          la=3 lb=1:    682 shell pairs
          la=3 lb=2:    355 shell pairs
          la=3 lb=3:     94 shell pairs

Calculating one electron integrals          ... done (  0.0 sec)
Calculating RI/J V-Matrix + Cholesky decomp.... done (  0.1 sec)
Calculating Nuclear repulsion               ... done (  0.0 sec) ENN=    958.471737665417 Eh

SHARK setup successfully completed in   0.8 seconds

Maximum memory used throughout the entire GTOINT-calculation: 29.0 MB


           ************************************************************
           *        Program running with 24 parallel MPI-processes    *
           *              working on a common directory               *
           ************************************************************
-------------------------------------------------------------------------------
                                 ORCA SCF
-------------------------------------------------------------------------------

------------
SCF SETTINGS
------------
Hamiltonian:
 Density Functional     Method          .... DFT(GTOs)
 Exchange Functional    Exchange        .... PBE
   PBE kappa parameter   XKappa         ....  0.804000
   PBE mue parameter    XMuePBE         ....  0.219520
 Correlation Functional Correlation     .... PBE
   PBE beta parameter  CBetaPBE         ....  0.066725
 LDA part of GGA corr.  LDAOpt          .... PW91-LDA
 Gradients option       PostSCFGGA      .... off
 Hybrid DFT is turned on
   Fraction HF Exchange ScalHFX         ....  0.250000
   Scaling of DF-GGA-X  ScalDFX         ....  0.750000
   Scaling of DF-GGA-C  ScalDFC         ....  1.000000
   Scaling of DF-LDA-C  ScalLDAC        ....  1.000000
   Perturbative correction              ....  0.000000
   Density functional embedding theory  .... OFF
   NL short-range parameter             ....  6.900000
 RI-approximation to the Coulomb term is turned on
   Number of AuxJ basis functions       .... 872
   RIJ-COSX (HFX calculated with COS-X)).... on


General Settings:
 Integral files         IntName         .... 4-NO2Ph-PhenO/4-NO2Ph-PhenO
 Hartree-Fock type      HFTyp           .... RHF
 Total Charge           Charge          ....   -1
 Multiplicity           Mult            ....    1
 Number of Electrons    NEL             ....  112
 Basis Dimension        Dim             ....  544
 Nuclear Repulsion      ENuc            ....    958.4717376654 Eh

Convergence Acceleration:
 DIIS                   CNVDIIS         .... on
   Start iteration      DIISMaxIt       ....    12
   Startup error        DIISStart       ....  0.200000
   # of expansion vecs  DIISMaxEq       ....     5
   Bias factor          DIISBfac        ....   1.050
   Max. coefficient     DIISMaxC        ....  10.000
 Trust-Rad. Augm. Hess. CNVTRAH         .... auto
   Auto Start mean grad. ratio tolernc. ....  1.125000
   Auto Start start iteration           ....    20
   Auto Start num. interpolation iter.  ....    10
   Max. Number of Micro iterations      ....    16
   Max. Number of Macro iterations      .... Maxiter - #DIIS iter
   Number of Davidson start vectors     ....     2
   Converg. threshold I  (grad. norm)   ....   1.000e-05
   Converg. threshold II (energy diff.) ....   1.000e-08
   Grad. Scal. Fac. for Micro threshold ....   0.100
   Minimum threshold for Micro iter.    ....   0.010
   NR start threshold (gradient norm)   ....   0.001
   Initial trust radius                 ....   0.400
   Minimum AH scaling param. (alpha)    ....   1.000
   Maximum AH scaling param. (alpha)    .... 1000.000
   Orbital update algorithm             .... Taylor
   White noise on init. David. guess    .... on
   Maximum white noise                  ....   0.010
   Quad. conv. algorithm                .... NR
 SOSCF                  CNVSOSCF        .... on
   Start iteration      SOSCFMaxIt      ....   150
   Startup grad/error   SOSCFStart      ....  0.003300
 Level Shifting         CNVShift        .... on
   Level shift para.    LevelShift      ....    0.2500
   Turn off err/grad.   ShiftErr        ....    0.0010
 Zerner damping         CNVZerner       .... off
 Static damping         CNVDamp         .... on
   Fraction old density DampFac         ....    0.7000
   Max. Damping (<1)    DampMax         ....    0.9800
   Min. Damping (>=0)   DampMin         ....    0.0000
   Turn off err/grad.   DampErr         ....    0.1000
 Fernandez-Rico         CNVRico         .... off

SCF Procedure:
 Maximum # iterations   MaxIter         ....   800
 SCF integral mode      SCFMode         .... Direct
   Integral package                     .... SHARK and LIBINT hybrid scheme
 Reset frequency        DirectResetFreq ....    20
 Integral Threshold     Thresh          ....  2.500e-11 Eh
 Primitive CutOff       TCut            ....  2.500e-12 Eh

Convergence Tolerance:
 Convergence Check Mode ConvCheckMode   .... Total+1el-Energy
 Convergence forced     ConvForced      .... 0
 Energy Change          TolE            ....  1.000e-08 Eh
 1-El. energy change                    ....  1.000e-05 Eh
 Orbital Gradient       TolG            ....  1.000e-05
 Orbital Rotation angle TolX            ....  1.000e-05
 DIIS Error             TolErr          ....  5.000e-07


Diagonalization of the overlap matrix:
Smallest eigenvalue                        ... 7.458e-06
Time for diagonalization                   ...    0.082 sec
Threshold for overlap eigenvalues          ... 1.000e-08
Number of eigenvalues below threshold      ... 0
Time for construction of square roots      ...    0.053 sec
Total time needed                          ...    0.141 sec

Time for model grid setup =    0.167 sec

------------------------------
INITIAL GUESS: MODEL POTENTIAL
------------------------------
Loading Hartree-Fock densities                     ... done
Calculating cut-offs                               ... done
Initializing the effective Hamiltonian             ... done
Setting up the integral package (SHARK)            ... done
Starting the Coulomb interaction                   ... done (   0.3 sec)
Reading the grid                                   ... done
Mapping shells                                     ... done
Starting the XC term evaluation                    ... done (   0.1 sec)
  promolecular density results
     # of electrons  =    111.001530964
     EX              =    -94.731422308
     EC              =     -3.747462223
     EX+EC           =    -98.478884530
Transforming the Hamiltonian                       ... done (   0.1 sec)
Diagonalizing the Hamiltonian                      ... done (   0.1 sec)
Back transforming the eigenvectors                 ... done (   0.0 sec)
Now organizing SCF variables                       ... done
                      ------------------
                      INITIAL GUESS DONE (   0.8 sec)
                      ------------------
-------------------
DFT GRID GENERATION
-------------------

General Integration Accuracy     IntAcc      ... 4.388
Radial Grid Type                 RadialGrid  ... OptM3 with GC (2021)
Angular Grid (max. ang.)         AngularGrid ... 4 (Lebedev-302)
Angular grid pruning method      GridPruning ... 4 (adaptive)
Weight generation scheme         WeightScheme... Becke
Basis function cutoff            BFCut       ... 1.0000e-11
Integration weight cutoff        WCut        ... 1.0000e-14
Angular grids for H and He will be reduced by one unit
Partially contracted basis set               ... off
Rotationally invariant grid construction     ... off

Total number of grid points                  ...   121582
Total number of batches                      ...     1911
Average number of points per batch           ...       63
Average number of grid points per atom       ...     5066
Time for grid setup =    0.662 sec

--------------------
COSX GRID GENERATION
--------------------

GRIDX 1
-------
General Integration Accuracy     IntAcc      ... 3.816
Radial Grid Type                 RadialGrid  ... OptM3 with GC (2021)
Angular Grid (max. ang.)         AngularGrid ... 1 (Lebedev-50)
Angular grid pruning method      GridPruning ... 4 (adaptive)
Weight generation scheme         WeightScheme... Becke
Basis function cutoff            BFCut       ... 1.0000e-11
Integration weight cutoff        WCut        ... 1.0000e-14
Angular grids for H and He will be reduced by one unit
Partially contracted basis set               ... on
Rotationally invariant grid construction     ... off

Total number of grid points                  ...    15454
Total number of batches                      ...      251
Average number of points per batch           ...       61
Average number of grid points per atom       ...      644
UseSFitting                                  ... on

GRIDX 2
-------
General Integration Accuracy     IntAcc      ... 4.020
Radial Grid Type                 RadialGrid  ... OptM3 with GC (2021)
Angular Grid (max. ang.)         AngularGrid ... 2 (Lebedev-110)
Angular grid pruning method      GridPruning ... 4 (adaptive)
Weight generation scheme         WeightScheme... Becke
Basis function cutoff            BFCut       ... 1.0000e-11
Integration weight cutoff        WCut        ... 1.0000e-14
Angular grids for H and He will be reduced by one unit
Partially contracted basis set               ... on
Rotationally invariant grid construction     ... off

Total number of grid points                  ...    34542
Total number of batches                      ...      555
Average number of points per batch           ...       62
Average number of grid points per atom       ...     1439
UseSFitting                                  ... on

GRIDX 3
-------
General Integration Accuracy     IntAcc      ... 4.338
Radial Grid Type                 RadialGrid  ... OptM3 with GC (2021)
Angular Grid (max. ang.)         AngularGrid ... 3 (Lebedev-194)
Angular grid pruning method      GridPruning ... 4 (adaptive)
Weight generation scheme         WeightScheme... Becke
Basis function cutoff            BFCut       ... 1.0000e-11
Integration weight cutoff        WCut        ... 1.0000e-14
Angular grids for H and He will be reduced by one unit
Partially contracted basis set               ... on
Rotationally invariant grid construction     ... off

Total number of grid points                  ...    75952
Total number of batches                      ...     1197
Average number of points per batch           ...       63
Average number of grid points per atom       ...     3165
UseSFitting                                  ... on

Time for X-Grid setup             =    1.075 sec


--------------------
CPCM SOLVATION MODEL
--------------------
CPCM parameters:
  Epsilon                                         ...      47.2000
  Refrac                                          ...       1.4790
  Rsolv                                           ...       1.3000
  Surface type                                    ... GAUSSIAN VDW
  Epsilon function type                           ...         CPCM
Radii:
 Radius for C  used is    3.8550 Bohr (=   2.0400 Ang.)
 Radius for H  used is    2.4944 Bohr (=   1.3200 Ang.)
 Radius for O  used is    3.4469 Bohr (=   1.8240 Ang.)
 Radius for N  used is    3.5149 Bohr (=   1.8600 Ang.)
Calculating surface                               ...        done! (  0.0s)
GEPOL surface points                              ...         1293
GEPOL Volume                                      ...    1659.9266
GEPOL Surface-area                                ...     868.7957
Calculating surface distance matrix               ...        done! (  0.0s)
Performing Cholesky decomposition & store         ...        done! (  0.1s)
Overall time for CPCM initialization              ...                 0.2s
--------------
SCF ITERATIONS
--------------
ITER       Energy         Delta-E        Max-DP      RMS-DP      [F,P]     Damp
               ***  Starting incremental Fock matrix formation  ***
  0   -741.5625067342   0.000000000000 0.45293213  0.00304728  0.3249041 0.7000
  1   -741.7707542932  -0.208247559001 0.42548200  0.00281578  0.1389058 0.7000
                               ***Turning on DIIS***
  2   -741.8539931569  -0.083238863613 0.41833052  0.00324509  0.0421714 0.0000
  3   -741.9892027744  -0.135209617492 0.44861484  0.00285912  0.0836427 0.0000
  4   -742.0152212496  -0.026018475270 0.10137796  0.00069147  0.0159676 0.0000
  5   -742.0170929615  -0.001871711882 0.04131833  0.00028972  0.0055963 0.0000
                      *** Initiating the SOSCF procedure ***
                           *** Shutting down DIIS ***
                      *** Re-Reading the Fockian *** 
                      *** Removing any level shift *** 
ITER      Energy       Delta-E        Grad      Rot      Max-DP    RMS-DP
  6   -742.01723985  -0.0001468838  0.000593  0.000593  0.023372  0.000168
               *** Restarting incremental Fock matrix formation ***
  7   -742.01723205   0.0000077947  0.000212  0.002156  0.006649  0.000072
  8   -742.01723133   0.0000007206  0.000251  0.000711  0.003444  0.000024
  9   -742.01723479  -0.0000034591  0.000051  0.000279  0.000711  0.000009
 10   -742.01723470   0.0000000920  0.000066  0.000102  0.000857  0.000006
 11   -742.01723487  -0.0000001764  0.000005  0.000017  0.000132  0.000002
 12   -742.01723487  -0.0000000014  0.000008  0.000009  0.000042  0.000001
                  ***Gradient check signals convergence***
              ***Rediagonalizing the Fockian in SOSCF/NRSCF***

               *****************************************************
               *                     SUCCESS                       *
               *           SCF CONVERGED AFTER  13 CYCLES          *
               *****************************************************

Old exchange energy                            =    -24.140781361 Eh
New exchange energy                            =    -24.140775550 Eh
Exchange energy change after final integration =      0.000005811 Eh
Total energy after final integration           =   -742.017229061 Eh
Final COS-X integration done in                =     4.895 sec

----------------
TOTAL SCF ENERGY
----------------

Total Energy       :         -742.01722906 Eh          -20191.31531 eV

Components:
Nuclear Repulsion  :          958.47173767 Eh           26081.34193 eV
Electronic Energy  :        -1700.48896673 Eh          -46272.65724 eV
One Electron Energy:        -2926.00357248 Eh          -79620.60504 eV
Two Electron Energy:         1225.51460575 Eh           33347.94780 eV
Max COSX asymmetry :            0.00000151 Eh               0.00004 eV
CPCM Dielectric    :           -0.08503500 Eh              -2.31392 eV

Virial components:
Potential Energy   :        -1480.84817181 Eh          -40295.92736 eV
Kinetic Energy     :          738.83094275 Eh           20104.61205 eV
Virial Ratio       :            2.00431261


DFT components:
N(Alpha)           :       56.000024837799 electrons
N(Beta)            :       56.000024837799 electrons
N(Total)           :      112.000049675597 electrons
E(X)               :      -72.354078580753 Eh       
E(C)               :       -3.786575589499 Eh       
E(XC)              :      -76.140654170252 Eh       
DFET-embed. en.    :        0.000000000000 Eh       
CPCM Solvation Model Properties:
Surface-charge          :            0.96964632
Charge-correction       :           -0.00325075 Eh              -0.08846 eV
Free-energy (cav+disp)  :  This term is not implemented in the current solvation scheme

---------------
SCF CONVERGENCE
---------------

  Last Energy change         ...    3.0461e-09  Tolerance :   1.0000e-08
  Last MAX-Density change    ...    1.6653e-15  Tolerance :   1.0000e-07
  Last RMS-Density change    ...    1.6058e-17  Tolerance :   5.0000e-09
  Last Orbital Gradient      ...    1.4246e-06  Tolerance :   1.0000e-05
  Last Orbital Rotation      ...    6.0184e-06  Tolerance :   1.0000e-05

             **** THE GBW FILE WAS UPDATED (4-NO2Ph-PhenO/4-NO2Ph-PhenO.gbw) ****
             **** DENSITY 4-NO2Ph-PhenO/4-NO2Ph-PhenO.scfp WAS UPDATED ****
             **** ENERGY FILE WAS UPDATED (4-NO2Ph-PhenO/4-NO2Ph-PhenO.en.tmp) ****
             **** THE GBW FILE WAS UPDATED (4-NO2Ph-PhenO/4-NO2Ph-PhenO.gbw) ****
             **** DENSITY 4-NO2Ph-PhenO/4-NO2Ph-PhenO.scfp WAS UPDATED ****
----------------
ORBITAL ENERGIES
----------------

  NO   OCC          E(Eh)            E(eV) 
   0   2.0000     -19.229086      -523.2500 
   1   2.0000     -19.229030      -523.2485 
   2   2.0000     -19.130850      -520.5769 
   3   2.0000     -14.613940      -397.6655 
   4   2.0000     -10.270450      -279.4732 
   5   2.0000     -10.258099      -279.1371 
   6   2.0000     -10.251484      -278.9571 
   7   2.0000     -10.240489      -278.6579 
   8   2.0000     -10.240398      -278.6554 
   9   2.0000     -10.229174      -278.3500 
  10   2.0000     -10.229086      -278.3476 
  11   2.0000     -10.217233      -278.0251 
  12   2.0000     -10.217133      -278.0223 
  13   2.0000     -10.215550      -277.9792 
  14   2.0000     -10.197640      -277.4919 
  15   2.0000     -10.197616      -277.4912 
  16   2.0000      -1.260431       -34.2981 
  17   2.0000      -1.078039       -29.3349 
  18   2.0000      -0.999049       -27.1855 
  19   2.0000      -0.911094       -24.7921 
  20   2.0000      -0.866538       -23.5797 
  21   2.0000      -0.825287       -22.4572 
  22   2.0000      -0.784953       -21.3597 
  23   2.0000      -0.756719       -20.5914 
  24   2.0000      -0.752861       -20.4864 
  25   2.0000      -0.689437       -18.7605 
  26   2.0000      -0.644802       -17.5460 
  27   2.0000      -0.615231       -16.7413 
  28   2.0000      -0.601513       -16.3680 
  29   2.0000      -0.582029       -15.8378 
  30   2.0000      -0.577867       -15.7246 
  31   2.0000      -0.553599       -15.0642 
  32   2.0000      -0.534650       -14.5486 
  33   2.0000      -0.527539       -14.3551 
  34   2.0000      -0.487437       -13.2638 
  35   2.0000      -0.474245       -12.9049 
  36   2.0000      -0.450010       -12.2454 
  37   2.0000      -0.443615       -12.0714 
  38   2.0000      -0.442888       -12.0516 
  39   2.0000      -0.442138       -12.0312 
  40   2.0000      -0.416777       -11.3411 
  41   2.0000      -0.407849       -11.0981 
  42   2.0000      -0.393444       -10.7062 
  43   2.0000      -0.389752       -10.6057 
  44   2.0000      -0.367526       -10.0009 
  45   2.0000      -0.362689        -9.8693 
  46   2.0000      -0.338128        -9.2009 
  47   2.0000      -0.333378        -9.0717 
  48   2.0000      -0.330308        -8.9881 
  49   2.0000      -0.328897        -8.9497 
  50   2.0000      -0.307168        -8.3585 
  51   2.0000      -0.281409        -7.6575 
  52   2.0000      -0.276274        -7.5178 
  53   2.0000      -0.260104        -7.0778 
  54   2.0000      -0.232236        -6.3195 
  55   2.0000      -0.185113        -5.0372 
  56   0.0000      -0.086857        -2.3635 
  57   0.0000      -0.017246        -0.4693 
  58   0.0000      -0.006065        -0.1650 
  59   0.0000       0.012887         0.3507 
  60   0.0000       0.060805         1.6546 
  61   0.0000       0.069451         1.8899 
  62   0.0000       0.087312         2.3759 
  63   0.0000       0.089223         2.4279 
  64   0.0000       0.107072         2.9136 
  65   0.0000       0.115769         3.1502 
  66   0.0000       0.117831         3.2063 
  67   0.0000       0.131108         3.5676 
  68   0.0000       0.140583         3.8255 
  69   0.0000       0.143107         3.8941 
  70   0.0000       0.161385         4.3915 
  71   0.0000       0.169136         4.6024 
  72   0.0000       0.184352         5.0165 
  73   0.0000       0.191293         5.2053 
  74   0.0000       0.193874         5.2756 
  75   0.0000       0.194655         5.2968 
  76   0.0000       0.213988         5.8229 
  77   0.0000       0.215308         5.8588 
  78   0.0000       0.227373         6.1871 
  79   0.0000       0.227380         6.1873 
  80   0.0000       0.234940         6.3930 
  81   0.0000       0.235192         6.3999 
  82   0.0000       0.239835         6.5263 
  83   0.0000       0.248049         6.7497 
  84   0.0000       0.253406         6.8955 
  85   0.0000       0.255865         6.9624 
  86   0.0000       0.265305         7.2193 
  87   0.0000       0.271226         7.3804 
  88   0.0000       0.276995         7.5374 
  89   0.0000       0.287979         7.8363 
  90   0.0000       0.306052         8.3281 
  91   0.0000       0.318514         8.6672 
  92   0.0000       0.321255         8.7418 
  93   0.0000       0.324695         8.8354 
  94   0.0000       0.330094         8.9823 
  95   0.0000       0.337780         9.1915 
  96   0.0000       0.343603         9.3499 
  97   0.0000       0.344778         9.3819 
  98   0.0000       0.360361         9.8059 
  99   0.0000       0.363041         9.8789 
 100   0.0000       0.369616        10.0578 
 101   0.0000       0.370837        10.0910 
 102   0.0000       0.377784        10.2800 
 103   0.0000       0.379853        10.3363 
 104   0.0000       0.382877        10.4186 
 105   0.0000       0.394774        10.7423 
 106   0.0000       0.398561        10.8454 
 107   0.0000       0.413723        11.2580 
 108   0.0000       0.414409        11.2766 
 109   0.0000       0.422507        11.4970 
 110   0.0000       0.425770        11.5858 
 111   0.0000       0.429862        11.6971 
 112   0.0000       0.437859        11.9147 
 113   0.0000       0.441297        12.0083 
 114   0.0000       0.448861        12.2141 
 115   0.0000       0.450518        12.2592 
 116   0.0000       0.466377        12.6908 
 117   0.0000       0.471073        12.8186 
 118   0.0000       0.487354        13.2616 
 119   0.0000       0.490790        13.3551 
 120   0.0000       0.491197        13.3661 
 121   0.0000       0.495038        13.4707 
 122   0.0000       0.500583        13.6216 
 123   0.0000       0.505946        13.7675 
 124   0.0000       0.508576        13.8391 
 125   0.0000       0.520931        14.1753 
 126   0.0000       0.526957        14.3392 
 127   0.0000       0.529956        14.4208 
 128   0.0000       0.552074        15.0227 
 129   0.0000       0.564243        15.3538 
 130   0.0000       0.566339        15.4109 
 131   0.0000       0.584630        15.9086 
 132   0.0000       0.587622        15.9900 
 133   0.0000       0.590417        16.0661 
 134   0.0000       0.598382        16.2828 
 135   0.0000       0.616967        16.7885 
 136   0.0000       0.621102        16.9010 
 137   0.0000       0.628311        17.0972 
 138   0.0000       0.642530        17.4841 
 139   0.0000       0.648566        17.6484 
 140   0.0000       0.649969        17.6865 
 141   0.0000       0.657665        17.8960 
 142   0.0000       0.661201        17.9922 
 143   0.0000       0.676573        18.4105 
 144   0.0000       0.682415        18.5694 
 145   0.0000       0.688110        18.7244 
 146   0.0000       0.691906        18.8277 
 147   0.0000       0.706465        19.2239 
 148   0.0000       0.717302        19.5188 
 149   0.0000       0.736449        20.0398 
 150   0.0000       0.748007        20.3543 
 151   0.0000       0.750091        20.4110 
 152   0.0000       0.755248        20.5514 
 153   0.0000       0.759164        20.6579 
 154   0.0000       0.765596        20.8329 
 155   0.0000       0.776755        21.1366 
 156   0.0000       0.784917        21.3587 
 157   0.0000       0.792501        21.5650 
 158   0.0000       0.795669        21.6513 
 159   0.0000       0.802003        21.8236 
 160   0.0000       0.807890        21.9838 
 161   0.0000       0.820681        22.3319 
 162   0.0000       0.825745        22.4697 
 163   0.0000       0.859605        23.3910 
 164   0.0000       0.862867        23.4798 
 165   0.0000       0.875513        23.8239 
 166   0.0000       0.882782        24.0217 
 167   0.0000       0.894531        24.3414 
 168   0.0000       0.896518        24.3955 
 169   0.0000       0.899163        24.4675 
 170   0.0000       0.910380        24.7727 
 171   0.0000       0.931219        25.3398 
 172   0.0000       0.934593        25.4316 
 173   0.0000       0.944193        25.6928 
 174   0.0000       0.969018        26.3683 
 175   0.0000       0.971979        26.4489 
 176   0.0000       0.992574        27.0093 
 177   0.0000       1.008595        27.4453 
 178   0.0000       1.013082        27.5674 
 179   0.0000       1.032546        28.0970 
 180   0.0000       1.056036        28.7362 
 181   0.0000       1.061759        28.8919 
 182   0.0000       1.065409        28.9912 
 183   0.0000       1.070300        29.1243 
 184   0.0000       1.073108        29.2007 
 185   0.0000       1.085021        29.5249 
 186   0.0000       1.089814        29.6554 
 187   0.0000       1.112002        30.2591 
 188   0.0000       1.137079        30.9415 
 189   0.0000       1.160936        31.5907 
 190   0.0000       1.162257        31.6266 
 191   0.0000       1.193961        32.4893 
 192   0.0000       1.199365        32.6364 
 193   0.0000       1.203009        32.7355 
 194   0.0000       1.209035        32.8995 
 195   0.0000       1.214137        33.0383 
 196   0.0000       1.229099        33.4455 
 197   0.0000       1.237872        33.6842 
 198   0.0000       1.275145        34.6985 
 199   0.0000       1.280058        34.8321 
 200   0.0000       1.284905        34.9640 
 201   0.0000       1.296355        35.2756 
 202   0.0000       1.296684        35.2846 
 203   0.0000       1.304608        35.5002 
 204   0.0000       1.308082        35.5947 
 205   0.0000       1.330717        36.2106 
 206   0.0000       1.335871        36.3509 
 207   0.0000       1.347777        36.6749 
 208   0.0000       1.367192        37.2032 
 209   0.0000       1.368058        37.2267 
 210   0.0000       1.404384        38.2152 
 211   0.0000       1.405269        38.2393 
 212   0.0000       1.422294        38.7026 
 213   0.0000       1.435791        39.0699 
 214   0.0000       1.460091        39.7311 
 215   0.0000       1.466452        39.9042 
 216   0.0000       1.476788        40.1855 
 217   0.0000       1.491219        40.5781 
 218   0.0000       1.508858        41.0581 
 219   0.0000       1.521756        41.4091 
 220   0.0000       1.523121        41.4462 
 221   0.0000       1.530614        41.6501 
 222   0.0000       1.534365        41.7522 
 223   0.0000       1.542725        41.9797 
 224   0.0000       1.543225        41.9933 
 225   0.0000       1.557521        42.3823 
 226   0.0000       1.573645        42.8211 
 227   0.0000       1.578197        42.9449 
 228   0.0000       1.598042        43.4849 
 229   0.0000       1.605168        43.6788 
 230   0.0000       1.613984        43.9187 
 231   0.0000       1.620064        44.0842 
 232   0.0000       1.654953        45.0336 
 233   0.0000       1.669625        45.4328 
 234   0.0000       1.671990        45.4972 
 235   0.0000       1.674981        45.5785 
 236   0.0000       1.685204        45.8567 
 237   0.0000       1.703212        46.3468 
 238   0.0000       1.719415        46.7877 
 239   0.0000       1.720689        46.8223 
 240   0.0000       1.735141        47.2156 
 241   0.0000       1.738806        47.3153 
 242   0.0000       1.747619        47.5551 
 243   0.0000       1.763424        47.9852 
 244   0.0000       1.771269        48.1987 
 245   0.0000       1.787462        48.6393 
 246   0.0000       1.787976        48.6533 
 247   0.0000       1.799203        48.9588 
 248   0.0000       1.847797        50.2811 
 249   0.0000       1.848818        50.3089 
 250   0.0000       1.865457        50.7617 
 251   0.0000       1.871737        50.9326 
 252   0.0000       1.878621        51.1199 
 253   0.0000       1.884554        51.2813 
 254   0.0000       1.907197        51.8975 
 255   0.0000       1.926996        52.4362 
 256   0.0000       1.938749        52.7560 
 257   0.0000       1.961582        53.3774 
 258   0.0000       1.967204        53.5303 
 259   0.0000       1.973627        53.7051 
 260   0.0000       1.979217        53.8572 
 261   0.0000       2.021903        55.0188 
 262   0.0000       2.036548        55.4173 
 263   0.0000       2.042012        55.5660 
 264   0.0000       2.050787        55.8048 
 265   0.0000       2.060845        56.0784 
 266   0.0000       2.079138        56.5762 
 267   0.0000       2.092515        56.9402 
 268   0.0000       2.101230        57.1774 
 269   0.0000       2.116068        57.5811 
 270   0.0000       2.126994        57.8784 
 271   0.0000       2.138879        58.2019 
 272   0.0000       2.150856        58.5278 
 273   0.0000       2.158767        58.7430 
 274   0.0000       2.182557        59.3904 
 275   0.0000       2.195354        59.7386 
 276   0.0000       2.196391        59.7668 
 277   0.0000       2.199064        59.8396 
 278   0.0000       2.236408        60.8558 
 279   0.0000       2.244073        61.0643 
 280   0.0000       2.270600        61.7862 
 281   0.0000       2.280237        62.0484 
 282   0.0000       2.294925        62.4481 
 283   0.0000       2.297821        62.5269 
 284   0.0000       2.313796        62.9616 
 285   0.0000       2.331977        63.4563 
 286   0.0000       2.346048        63.8392 
 287   0.0000       2.349754        63.9401 
 288   0.0000       2.362367        64.2833 
 289   0.0000       2.427825        66.0645 
 290   0.0000       2.438678        66.3598 
 291   0.0000       2.440107        66.3987 
 292   0.0000       2.459756        66.9334 
 293   0.0000       2.479311        67.4655 
 294   0.0000       2.515779        68.4578 
 295   0.0000       2.525436        68.7206 
 296   0.0000       2.548884        69.3587 
 297   0.0000       2.565956        69.8232 
 298   0.0000       2.569205        69.9116 
 299   0.0000       2.577727        70.1435 
 300   0.0000       2.583092        70.2895 
 301   0.0000       2.593936        70.5846 
 302   0.0000       2.610866        71.0453 
 303   0.0000       2.624860        71.4261 
 304   0.0000       2.637161        71.7608 
 305   0.0000       2.650728        72.1300 
 306   0.0000       2.653968        72.2181 
 307   0.0000       2.668604        72.6164 
 308   0.0000       2.674082        72.7655 
 309   0.0000       2.688443        73.1563 
 310   0.0000       2.688714        73.1636 
 311   0.0000       2.703042        73.5535 
 312   0.0000       2.708401        73.6993 
 313   0.0000       2.717041        73.9344 
 314   0.0000       2.721903        74.0667 
 315   0.0000       2.731716        74.3338 
 316   0.0000       2.732952        74.3674 
 317   0.0000       2.762215        75.1637 
 318   0.0000       2.770965        75.4018 
 319   0.0000       2.779367        75.6304 
 320   0.0000       2.779862        75.6439 
 321   0.0000       2.787543        75.8529 
 322   0.0000       2.805476        76.3409 
 323   0.0000       2.818389        76.6923 
 324   0.0000       2.828620        76.9707 
 325   0.0000       2.834865        77.1406 
 326   0.0000       2.842668        77.3529 
 327   0.0000       2.849517        77.5393 
 328   0.0000       2.853418        77.6454 
 329   0.0000       2.861207        77.8574 
 330   0.0000       2.866555        78.0029 
 331   0.0000       2.879024        78.3422 
 332   0.0000       2.891969        78.6945 
 333   0.0000       2.895198        78.7823 
 334   0.0000       2.909364        79.1678 
 335   0.0000       2.923996        79.5660 
 336   0.0000       2.926140        79.6243 
 337   0.0000       2.958956        80.5173 
 338   0.0000       2.959215        80.5243 
 339   0.0000       2.982933        81.1697 
 340   0.0000       2.991221        81.3953 
 341   0.0000       2.995435        81.5099 
 342   0.0000       3.005166        81.7747 
 343   0.0000       3.015368        82.0523 
 344   0.0000       3.033698        82.5511 
 345   0.0000       3.044405        82.8425 
 346   0.0000       3.044868        82.8551 
 347   0.0000       3.050136        82.9984 
 348   0.0000       3.053596        83.0926 
 349   0.0000       3.081825        83.8607 
 350   0.0000       3.088910        84.0535 
 351   0.0000       3.110288        84.6352 
 352   0.0000       3.110864        84.6509 
 353   0.0000       3.129335        85.1535 
 354   0.0000       3.138775        85.4104 
 355   0.0000       3.143318        85.5340 
 356   0.0000       3.148745        85.6817 
 357   0.0000       3.156085        85.8814 
 358   0.0000       3.163227        86.0758 
 359   0.0000       3.172990        86.3415 
 360   0.0000       3.182983        86.6134 
 361   0.0000       3.190209        86.8100 
 362   0.0000       3.197967        87.0211 
 363   0.0000       3.209877        87.3452 
 364   0.0000       3.218381        87.5766 
 365   0.0000       3.235654        88.0466 
 366   0.0000       3.248503        88.3963 
 367   0.0000       3.250253        88.4439 
 368   0.0000       3.256287        88.6081 
 369   0.0000       3.266300        88.8805 
 370   0.0000       3.271669        89.0266 
 371   0.0000       3.281671        89.2988 
 372   0.0000       3.291376        89.5629 
 373   0.0000       3.299232        89.7767 
 374   0.0000       3.304701        89.9255 
 375   0.0000       3.341243        90.9198 
 376   0.0000       3.352592        91.2287 
 377   0.0000       3.358577        91.3915 
 378   0.0000       3.379100        91.9500 
 379   0.0000       3.392191        92.3062 
 380   0.0000       3.401190        92.5511 
 381   0.0000       3.401820        92.5682 
 382   0.0000       3.410215        92.7967 
 383   0.0000       3.424786        93.1932 
 384   0.0000       3.426584        93.2421 
 385   0.0000       3.433142        93.4205 
 386   0.0000       3.444624        93.7330 
 387   0.0000       3.456537        94.0571 
 388   0.0000       3.463138        94.2368 
 389   0.0000       3.477985        94.6408 
 390   0.0000       3.480298        94.7037 
 391   0.0000       3.486295        94.8669 
 392   0.0000       3.502562        95.3096 
 393   0.0000       3.507911        95.4551 
 394   0.0000       3.509496        95.4982 
 395   0.0000       3.526033        95.9482 
 396   0.0000       3.547253        96.5257 
 397   0.0000       3.549686        96.5919 
 398   0.0000       3.556213        96.7695 
 399   0.0000       3.568728        97.1100 
 400   0.0000       3.589639        97.6790 
 401   0.0000       3.590202        97.6944 
 402   0.0000       3.594687        97.8164 
 403   0.0000       3.642461        99.1164 
 404   0.0000       3.644486        99.1715 
 405   0.0000       3.671665        99.9111 
 406   0.0000       3.677781       100.0775 
 407   0.0000       3.728361       101.4539 
 408   0.0000       3.734472       101.6202 
 409   0.0000       3.764095       102.4262 
 410   0.0000       3.777758       102.7980 
 411   0.0000       3.781067       102.8881 
 412   0.0000       3.809289       103.6560 
 413   0.0000       3.818847       103.9161 
 414   0.0000       3.876052       105.4727 
 415   0.0000       3.887381       105.7810 
 416   0.0000       3.898010       106.0702 
 417   0.0000       3.911962       106.4499 
 418   0.0000       3.923781       106.7715 
 419   0.0000       3.930592       106.9568 
 420   0.0000       3.999532       108.8328 
 421   0.0000       4.010300       109.1258 
 422   0.0000       4.012825       109.1945 
 423   0.0000       4.034695       109.7896 
 424   0.0000       4.049019       110.1794 
 425   0.0000       4.051873       110.2571 
 426   0.0000       4.069790       110.7446 
 427   0.0000       4.072306       110.8131 
 428   0.0000       4.088703       111.2593 
 429   0.0000       4.105219       111.7087 
 430   0.0000       4.117343       112.0386 
 431   0.0000       4.132432       112.4492 
 432   0.0000       4.162932       113.2791 
 433   0.0000       4.186876       113.9307 
 434   0.0000       4.194575       114.1402 
 435   0.0000       4.197476       114.2191 
 436   0.0000       4.223986       114.9405 
 437   0.0000       4.230365       115.1141 
 438   0.0000       4.249267       115.6284 
 439   0.0000       4.250657       115.6662 
 440   0.0000       4.254114       115.7603 
 441   0.0000       4.281602       116.5083 
 442   0.0000       4.283458       116.5588 
 443   0.0000       4.308136       117.2304 
 444   0.0000       4.313799       117.3845 
 445   0.0000       4.314255       117.3969 
 446   0.0000       4.354139       118.4821 
 447   0.0000       4.355130       118.5091 
 448   0.0000       4.370380       118.9241 
 449   0.0000       4.435922       120.7076 
 450   0.0000       4.491378       122.2166 
 451   0.0000       4.528305       123.2214 
 452   0.0000       4.553339       123.9027 
 453   0.0000       4.572302       124.4187 
 454   0.0000       4.581829       124.6779 
 455   0.0000       4.604607       125.2977 
 456   0.0000       4.644191       126.3749 
 457   0.0000       4.657337       126.7326 
 458   0.0000       4.680775       127.3704 
 459   0.0000       4.690567       127.6368 
 460   0.0000       4.704295       128.0104 
 461   0.0000       4.734952       128.8446 
 462   0.0000       4.742814       129.0585 
 463   0.0000       4.755345       129.3995 
 464   0.0000       4.782940       130.1504 
 465   0.0000       4.789491       130.3287 
 466   0.0000       4.860552       132.2624 
 467   0.0000       4.876032       132.6836 
 468   0.0000       4.913428       133.7012 
 469   0.0000       4.918168       133.8301 
 470   0.0000       4.939521       134.4112 
 471   0.0000       4.948139       134.6457 
 472   0.0000       4.960625       134.9855 
 473   0.0000       4.967710       135.1783 
 474   0.0000       4.984833       135.6442 
 475   0.0000       4.992091       135.8417 
 476   0.0000       5.040011       137.1457 
 477   0.0000       5.105341       138.9234 
 478   0.0000       5.118501       139.2815 
 479   0.0000       5.147332       140.0660 
 480   0.0000       5.154049       140.2488 
 481   0.0000       5.166424       140.5856 
 482   0.0000       5.184453       141.0761 
 483   0.0000       5.207702       141.7088 
 484   0.0000       5.266793       143.3167 
 485   0.0000       5.291892       143.9997 
 486   0.0000       5.302285       144.2825 
 487   0.0000       5.320693       144.7834 
 488   0.0000       5.343412       145.4016 
 489   0.0000       5.344705       145.4368 
 490   0.0000       5.348075       145.5285 
 491   0.0000       5.458565       148.5351 
 492   0.0000       5.479506       149.1049 
 493   0.0000       5.540308       150.7595 
 494   0.0000       5.546842       150.9373 
 495   0.0000       5.591332       152.1479 
 496   0.0000       5.606175       152.5518 
 497   0.0000       5.618175       152.8783 
 498   0.0000       5.654244       153.8598 
 499   0.0000       5.657219       153.9408 
 500   0.0000       5.746956       156.3826 
 501   0.0000       5.808496       158.0572 
 502   0.0000       5.872253       159.7921 
 503   0.0000       5.969809       162.4468 
 504   0.0000       6.006030       163.4324 
 505   0.0000       6.097786       165.9292 
 506   0.0000       6.271675       170.6609 
 507   0.0000       6.307437       171.6341 
 508   0.0000       6.363873       173.1698 
 509   0.0000       6.406159       174.3204 
 510   0.0000       6.425470       174.8459 
 511   0.0000       6.440066       175.2431 
 512   0.0000       6.449747       175.5065 
 513   0.0000       6.480038       176.3308 
 514   0.0000       6.672226       181.5605 
 515   0.0000       6.672550       181.5693 
 516   0.0000       6.795846       184.9244 
 517   0.0000       6.869046       186.9163 
 518   0.0000       6.870492       186.9556 
 519   0.0000       6.897865       187.7005 
 520   0.0000       6.963916       189.4978 
 521   0.0000       7.125280       193.8887 
 522   0.0000       7.126204       193.9139 
 523   0.0000       7.170750       195.1260 
 524   0.0000       7.296829       198.5568 
 525   0.0000       7.435475       202.3296 
 526   0.0000       7.534331       205.0196 
 527   0.0000       7.604459       206.9279 
 528   0.0000      22.190476       603.8336 
 529   0.0000      22.607944       615.1934 
 530   0.0000      22.721492       618.2832 
 531   0.0000      22.806157       620.5871 
 532   0.0000      22.851471       621.8201 
 533   0.0000      22.860953       622.0781 
 534   0.0000      22.916724       623.5958 
 535   0.0000      22.946730       624.4123 
 536   0.0000      23.022847       626.4835 
 537   0.0000      23.181501       630.8007 
 538   0.0000      23.437317       637.7618 
 539   0.0000      23.636330       643.1772 
 540   0.0000      32.644791       888.3099 
 541   0.0000      44.071512      1199.2468 
 542   0.0000      44.185622      1202.3519 
 543   0.0000      44.247285      1204.0298 

                    ********************************
                    * MULLIKEN POPULATION ANALYSIS *
                    ********************************

-----------------------
MULLIKEN ATOMIC CHARGES
-----------------------
   0 C :    0.106144
   1 C :   -0.211580
   2 C :   -0.211583
   3 H :    0.133389
   4 H :    0.133851
   5 C :   -0.306836
   6 C :   -0.307176
   7 H :    0.110125
   8 H :    0.109948
   9 C :    0.287237
  10 O :   -0.602239
  11 C :    0.214987
  12 C :   -0.217586
  13 C :   -0.216776
  14 C :   -0.210334
  15 C :   -0.210585
  16 C :    0.113017
  17 H :    0.144688
  18 H :    0.144782
  19 H :    0.161920
  20 H :    0.161923
  21 N :    0.463105
  22 O :   -0.395205
  23 O :   -0.395215
Sum of atomic charges:   -1.0000000

--------------------------------
MULLIKEN REDUCED ORBITAL CHARGES
--------------------------------
  0 C s       :     3.195878  s :     3.195878
      pz      :     0.678346  p :     2.551651
      px      :     1.059054
      py      :     0.814251
      dz2     :     0.031859  d :     0.136604
      dxz     :     0.023576
      dyz     :     0.043318
      dx2y2   :     0.015608
      dxy     :     0.022244
      f0      :     0.001302  f :     0.009723
      f+1     :     0.001088
      f-1     :     0.003281
      f+2     :     0.000931
      f-2     :     0.001104
      f+3     :     0.001215
      f-3     :     0.000802
  1 C s       :     3.217248  s :     3.217248
      pz      :     0.967658  p :     2.886534
      px      :     0.958057
      py      :     0.960820
      dz2     :     0.018396  d :     0.100549
      dxz     :     0.025303
      dyz     :     0.037280
      dx2y2   :     0.008739
      dxy     :     0.010831
      f0      :     0.000775  f :     0.007249
      f+1     :     0.001509
      f-1     :     0.002172
      f+2     :     0.000769
      f-2     :     0.000482
      f+3     :     0.000872
      f-3     :     0.000670
  2 C s       :     3.217575  s :     3.217575
      pz      :     0.960597  p :     2.886185
      px      :     0.957800
      py      :     0.967788
      dz2     :     0.019852  d :     0.100572
      dxz     :     0.027001
      dyz     :     0.035603
      dx2y2   :     0.008943
      dxy     :     0.009174
      f0      :     0.000851  f :     0.007250
      f+1     :     0.001496
      f-1     :     0.002142
      f+2     :     0.000723
      f-2     :     0.000607
      f+3     :     0.000763
      f-3     :     0.000668
  3 H s       :     0.843930  s :     0.843930
      pz      :     0.006665  p :     0.022680
      px      :     0.004679
      py      :     0.011336
  4 H s       :     0.843456  s :     0.843456
      pz      :     0.006039  p :     0.022692
      px      :     0.004685
      py      :     0.011969
  5 C s       :     3.258006  s :     3.258006
      pz      :     0.932548  p :     2.961487
      px      :     1.066822
      py      :     0.962117
      dz2     :     0.015988  d :     0.080308
      dxz     :     0.017290
      dyz     :     0.032436
      dx2y2   :     0.008409
      dxy     :     0.006185
      f0      :     0.000981  f :     0.007035
      f+1     :     0.001482
      f-1     :     0.002118
      f+2     :     0.000782
      f-2     :     0.000433
      f+3     :     0.000624
      f-3     :     0.000615
  6 C s       :     3.258270  s :     3.258270
      pz      :     0.934450  p :     2.961557
      px      :     1.066738
      py      :     0.960369
      dz2     :     0.015699  d :     0.080311
      dxz     :     0.016626
      dyz     :     0.032678
      dx2y2   :     0.008472
      dxy     :     0.006836
      f0      :     0.000890  f :     0.007038
      f+1     :     0.001466
      f-1     :     0.002182
      f+2     :     0.000806
      f-2     :     0.000372
      f+3     :     0.000699
      f-3     :     0.000624
  7 H s       :     0.867582  s :     0.867582
      pz      :     0.005502  p :     0.022293
      px      :     0.005454
      py      :     0.011337
  8 H s       :     0.867762  s :     0.867762
      pz      :     0.006135  p :     0.022291
      px      :     0.005447
      py      :     0.010709
[...]
      0       0.000331   0.000099  -0.000101   0.000115   0.000077   0.000004
      1       0.002664   0.000785  -0.000122   0.000163   0.000242   0.000010
      2       0.000710  -0.002500   0.000269   0.000188   0.000016  -0.000228
      3      -0.003883   0.001872  -0.000916   0.000005   0.000085   0.000177
      4      -0.057020   0.027457  -0.015221   0.000305   0.001598   0.003017
      5       0.036370  -0.016866   0.009116  -0.000167  -0.000947  -0.001725
      6      -0.002156  -0.004206   0.000126   0.000926   0.000157  -0.000181
      7      -0.030729  -0.060171   0.001765   0.014892   0.002708  -0.002949
      8      -0.016749  -0.031690   0.000893   0.007443   0.001325  -0.001395
      9       0.045827  -0.021910   0.014079  -0.000408  -0.001714  -0.002966
     10       0.659891  -0.313839   0.179954  -0.005095  -0.019945  -0.035318
     11      -0.399353   0.188736  -0.110491   0.003188   0.012484   0.022022
     12       0.025291   0.049264  -0.001513  -0.014199  -0.002890   0.002954
     13       0.357450   0.693048  -0.019235  -0.176226  -0.032973   0.034369
     14       0.181976   0.350612  -0.009867  -0.091695  -0.017584   0.018228
     15      -0.002424   0.001349  -0.000226  -0.000040   0.000007   0.000039
     16      -0.031660   0.017526  -0.003003  -0.000430   0.000138   0.000542
     17      -0.019302   0.010135  -0.002209  -0.000187   0.000144   0.000345
     18      -0.000913  -0.002184   0.000070   0.000175   0.000016  -0.000033
     19      -0.012353  -0.029404   0.000831   0.002470   0.000286  -0.000490
     20       0.009381   0.020887  -0.000562  -0.002169  -0.000282   0.000364
     21       0.027475  -0.015076   0.002633   0.000386  -0.000123  -0.000479
     22       0.360601  -0.198876   0.033812   0.004862  -0.001446  -0.005938
     23       0.187687  -0.102800   0.017822   0.002631  -0.000717  -0.003204
     24       0.010534   0.024761  -0.000715  -0.002150  -0.000258   0.000428
     25       0.142025   0.335859  -0.009416  -0.028308  -0.003179   0.005456
     26      -0.088710  -0.207914   0.005974   0.017766   0.001971  -0.003505
     27       0.000133   0.000054  -0.000001  -0.000002   0.000002   0.000002
     28       0.001883   0.000709   0.000136  -0.000165  -0.000044   0.000005
     29      -0.001037   0.002590  -0.000320  -0.000245  -0.000023   0.000173
     30      -0.000005  -0.000004  -0.000001   0.000000  -0.000001   0.000001
     31      -0.000200  -0.000102  -0.000012   0.000018   0.000006  -0.000001
     32       0.000287  -0.000782   0.000106   0.000082   0.000011  -0.000086
     33      -0.000342  -0.000117   0.000512  -0.000573  -0.000541  -0.000037
     34      -0.001192  -0.000439   0.001293  -0.001518  -0.001411  -0.000055
     35       0.000439  -0.001122  -0.001420  -0.001092  -0.000173   0.001564
     36       0.005325  -0.003084  -0.026457   0.001924   0.005755   0.008706
     37       0.013338  -0.007671  -0.064596   0.004799   0.014127   0.021348
     38       0.007286  -0.003622  -0.033787   0.002899   0.010205   0.014193
     39       0.002263   0.005344   0.001332   0.025541   0.008472  -0.007822
     40       0.005551   0.013033   0.003080   0.060679   0.020051  -0.018540
     41      -0.004000  -0.008070  -0.001521  -0.038110  -0.016251   0.014097
     42      -0.000756   0.000437   0.009880   0.000290   0.015966   0.020002
     43      -0.001869   0.001072   0.024748   0.000712   0.039960   0.050162
     44       0.000758  -0.000640  -0.013651  -0.000088  -0.028048  -0.034390
     45      -0.000358  -0.000833  -0.001541  -0.011210   0.020179  -0.015632
     46      -0.000892  -0.002096  -0.003935  -0.028819   0.052154  -0.040453
     47      -0.000171  -0.000844  -0.001515  -0.013448   0.030633  -0.023115
     48      -0.000020  -0.000001  -0.000034   0.000080  -0.001327  -0.000178
     49      -0.000108  -0.000012  -0.000122   0.000214  -0.003553  -0.000541
     50      -0.000128   0.000378  -0.000662  -0.000691   0.000457  -0.002765
     51      -0.062075   0.035246   0.302836  -0.023637  -0.067014  -0.099033
     52      -0.148582   0.084885   0.746182  -0.057707  -0.165018  -0.244190
     53      -0.079402   0.044827   0.403786  -0.032069  -0.091185  -0.134061
     54      -0.026914  -0.061724  -0.013532  -0.292419  -0.098325   0.089025
     55      -0.062775  -0.144901  -0.032971  -0.700421  -0.235415   0.213378
     56       0.040074   0.091472   0.020600   0.456186   0.155654  -0.140465
     57       0.009036  -0.005507  -0.113405  -0.001827  -0.183008  -0.226938
     58       0.022900  -0.014018  -0.284388  -0.004728  -0.457872  -0.567738
     59      -0.015003   0.009435   0.190435   0.003038   0.311256   0.385466
     60       0.004066   0.010147   0.016368   0.129032  -0.230482   0.176660
     61       0.010601   0.026594   0.042442   0.333578  -0.594790   0.455862
     62       0.005643   0.014704   0.023597   0.186583  -0.337553   0.258338
     63       0.000001  -0.000003   0.000100  -0.000132   0.000519   0.000059
     64      -0.000033  -0.000029   0.000351  -0.000458   0.001464   0.000152
     65       0.000151  -0.000437  -0.000015  -0.000016   0.000026  -0.000744
     66       0.000026  -0.000052  -0.000082   0.000014  -0.000152  -0.000177
     67       0.000068  -0.000125  -0.000211   0.000068  -0.000409  -0.000456
     68      -0.000029   0.000108  -0.000167   0.000027  -0.000315  -0.000011
     69      -0.000015   0.000055  -0.000001   0.000096  -0.000191   0.000138
     70      -0.000026   0.000154  -0.000038   0.000248  -0.000487   0.000352
     71      -0.000041   0.000090  -0.000004  -0.000188   0.000329   0.000055


-----------
IR SPECTRUM
-----------

 Mode   freq       eps      Int      T**2         TX        TY        TZ
       cm**-1   L/(mol*cm) km/mol    a.u.
----------------------------------------------------------------------------
  6:     38.85   0.001065    5.38  0.008557  (-0.000178  0.004775  0.092382)
  7:     41.54   0.002407   12.17  0.018088  ( 0.130129 -0.033728  0.004086)
  8:     73.67   0.000749    3.78  0.003173  (-0.001736  0.004111  0.056149)
  9:     92.96   0.001325    6.69  0.004447  (-0.024355 -0.062005  0.003031)
 10:    127.14   0.000746    3.77  0.001831  ( 0.007539  0.042092 -0.001472)
 11:    216.31   0.001455    7.35  0.002099  ( 0.044667 -0.010202 -0.000401)
 12:    243.72   0.010671   53.93  0.013664  (-0.002149 -0.004708 -0.116776)
 13:    251.24   0.000433    2.19  0.000538  ( 0.022196  0.002714 -0.006172)
 14:    324.45   0.000185    0.94  0.000178  ( 0.012706  0.004093 -0.000123)
 15:    401.07   0.000844    4.27  0.000657  ( 0.000352  0.025615 -0.000722)
 16:    419.92   0.003804   19.22  0.002827  (-0.000204 -0.002389 -0.053114)
 17:    423.84   0.001797    9.08  0.001323  ( 0.000106 -0.001391 -0.036344)
 18:    460.24   0.032888  166.20  0.022299  ( 0.001213  0.005268  0.149232)
 19:    470.73   0.002808   14.19  0.001861  ( 0.026958 -0.033663  0.001228)
 20:    491.43   0.005683   28.72  0.003609  (-0.060040  0.001987  0.000162)
 21:    536.51   0.001074    5.43  0.000624  (-0.019896 -0.015117  0.000211)
 22:    551.54   0.000727    3.67  0.000411  (-0.005213 -0.019575  0.000872)
 23:    625.67   0.024352  123.06  0.012146  (-0.000413 -0.004511 -0.110115)
 24:    634.04   0.000342    1.73  0.000168  ( 0.000860  0.012450 -0.003534)
 25:    649.84   0.000073    0.37  0.000035  (-0.004980 -0.002219 -0.002350)
 26:    722.22   0.001607    8.12  0.000694  ( 0.020223 -0.016876  0.000659)
 27:    751.08   0.015632   79.00  0.006495  ( 0.000109 -0.003024 -0.080533)
 28:    753.55   0.008762   44.28  0.003629  ( 0.057434 -0.018120  0.001284)
 29:    797.45   0.008038   40.62  0.003146  ( 0.053745 -0.016015  0.000740)
 30:    803.76   0.005362   27.10  0.002082  (-0.000063 -0.001759 -0.045591)
 31:    829.65   0.004706   23.78  0.001770  ( 0.000745  0.001288  0.042045)
 32:    848.71   0.008464   42.78  0.003112  ( 0.000847  0.002080  0.055742)
 33:    858.62   0.030260  152.92  0.010998  (-0.103756  0.015248  0.000058)
 34:    880.34   0.002248   11.36  0.000797  ( 0.018704 -0.021133  0.000740)
 35:    883.53   0.000030    0.15  0.000011  (-0.000370 -0.000034 -0.003224)
 36:    973.87   0.000161    0.81  0.000052  ( 0.003864  0.006044  0.000274)
 37:    977.54   0.000287    1.45  0.000092  (-0.000173 -0.000294 -0.009568)
 38:    993.16   0.008992   45.44  0.002825  (-0.000333 -0.001554 -0.053130)
 39:    995.15   0.000191    0.96  0.000060  ( 0.000031 -0.000129  0.007730)
 40:    998.48   0.000106    0.53  0.000033  (-0.004931 -0.002560 -0.001454)
 41:   1020.87   0.005182   26.19  0.001584  (-0.000292 -0.001758 -0.039759)
 42:   1034.39   0.000000    0.00  0.000000  (-0.000065  0.000215  0.000219)
 43:   1119.54   0.003319   16.77  0.000925  ( 0.000899  0.025784  0.016107)
 44:   1131.51   0.710175  3588.93  0.195862  (-0.002832 -0.017794 -0.442196)
 45:   1140.76   0.005817   29.40  0.001591  ( 0.011607  0.034532 -0.016251)
 46:   1175.91   0.124047  626.88  0.032920  (-0.000782 -0.005941 -0.181338)
 47:   1229.23   0.083902  424.00  0.021300  (-0.000711 -0.005527 -0.145839)
 48:   1280.68   0.000245    1.24  0.000060  (-0.000365 -0.003742  0.006755)
 49:   1308.47   1.403391  7092.16  0.334701  ( 0.003141  0.022655  0.578081)
 50:   1312.90   0.005338   26.98  0.001269  (-0.001733 -0.029986  0.019147)
 51:   1330.37   0.000060    0.31  0.000014  (-0.001808 -0.000883  0.003184)
 52:   1360.06   0.274721  1388.33  0.063034  (-0.001336 -0.009688 -0.250876)
 53:   1380.82   0.006523   32.96  0.001474  ( 0.009966  0.037027  0.001957)
 54:   1433.75   0.043465  219.65  0.009460  ( 0.000408  0.003772  0.097190)
 55:   1471.16   0.000099    0.50  0.000021  ( 0.000925  0.004182 -0.001638)
 56:   1500.84   0.000115    0.58  0.000024  ( 0.003857 -0.001551 -0.002589)
 57:   1527.53   0.121153  612.26  0.024751  (-0.001081 -0.007287 -0.157151)
 58:   1543.86   0.073908  373.50  0.014939  (-0.031075 -0.117981  0.007339)
 59:   1557.01   0.037633  190.18  0.007543  ( 0.033234  0.080203 -0.002387)
 60:   1580.81   0.171848  868.45  0.033924  (-0.000888 -0.007163 -0.184044)
 61:   1618.36   0.405476  2049.11  0.078187  (-0.001103 -0.009637 -0.279451)
 62:   1629.68   0.027002  136.46  0.005171  (-0.022681 -0.068234 -0.000456)
 63:   1671.43   0.002307   11.66  0.000431  (-0.000004 -0.000648 -0.020744)
 64:   3168.96   0.007294   36.86  0.000718  ( 0.001281  0.010953  0.024427)
 65:   3169.48   0.008139   41.13  0.000801  (-0.001018 -0.009713  0.026571)
 66:   3190.37   0.008028   40.57  0.000785  (-0.000952 -0.027406 -0.005769)
 67:   3193.43   0.004102   20.73  0.000401  (-0.000263 -0.008402  0.018172)
 68:   3219.28   0.001554    7.85  0.000151  (-0.003149 -0.010361 -0.005779)
 69:   3220.99   0.001608    8.13  0.000156  ( 0.003418  0.010740 -0.005365)
 70:   3238.17   0.000077    0.39  0.000007  ( 0.000853  0.002321 -0.001161)
 71:   3238.77   0.000520    2.63  0.000050  ( 0.000091  0.000356  0.007071)

* The epsilon (eps) is given for a Dirac delta lineshape.
** The dipole moment derivative (T) already includes vibrational overlap.

The first frequency considered to be a vibration is 6
The total number of vibrations considered is 66


--------------------------
THERMOCHEMISTRY AT 298.15K
--------------------------

Temperature         ... 298.15 K
Pressure            ... 1.00 atm
Total Mass          ... 214.20 AMU

Throughout the following assumptions are being made:
  (1) The electronic state is orbitally nondegenerate
  (2) There are no thermally accessible electronically excited states
  (3) Hindered rotations indicated by low frequency modes are not
      treated as such but are treated as vibrations and this may
      cause some error
  (4) All equations used are the standard statistical mechanics
      equations for an ideal gas
  (5) All vibrations are strictly harmonic

freq.      38.85  E(vib)   ...       0.54 
freq.      41.54  E(vib)   ...       0.54 
freq.      73.67  E(vib)   ...       0.49 
freq.      92.96  E(vib)   ...       0.47 
freq.     127.14  E(vib)   ...       0.43 
freq.     216.31  E(vib)   ...       0.34 
freq.     243.72  E(vib)   ...       0.31 
freq.     251.24  E(vib)   ...       0.30 
freq.     324.45  E(vib)   ...       0.25 
freq.     401.07  E(vib)   ...       0.19 
freq.     419.92  E(vib)   ...       0.18 
freq.     423.84  E(vib)   ...       0.18 
freq.     460.24  E(vib)   ...       0.16 
freq.     470.73  E(vib)   ...       0.15 
freq.     491.43  E(vib)   ...       0.14 
freq.     536.51  E(vib)   ...       0.12 
freq.     551.54  E(vib)   ...       0.12 
freq.     625.67  E(vib)   ...       0.09 
freq.     634.04  E(vib)   ...       0.09 
freq.     649.84  E(vib)   ...       0.08 
freq.     722.22  E(vib)   ...       0.07 
freq.     751.08  E(vib)   ...       0.06 
freq.     753.55  E(vib)   ...       0.06 
freq.     797.45  E(vib)   ...       0.05 
freq.     803.76  E(vib)   ...       0.05 
freq.     829.65  E(vib)   ...       0.04 
freq.     848.71  E(vib)   ...       0.04 
freq.     858.62  E(vib)   ...       0.04 
freq.     880.34  E(vib)   ...       0.04 
freq.     883.53  E(vib)   ...       0.04 
freq.     973.87  E(vib)   ...       0.03 
freq.     977.54  E(vib)   ...       0.03 
freq.     993.16  E(vib)   ...       0.02 
freq.     995.15  E(vib)   ...       0.02 
freq.     998.48  E(vib)   ...       0.02 
freq.    1020.87  E(vib)   ...       0.02 
freq.    1034.39  E(vib)   ...       0.02 
freq.    1119.54  E(vib)   ...       0.01 
freq.    1131.51  E(vib)   ...       0.01 
freq.    1140.76  E(vib)   ...       0.01 
freq.    1175.91  E(vib)   ...       0.01 
freq.    1229.23  E(vib)   ...       0.01 
freq.    1280.68  E(vib)   ...       0.01 
freq.    1308.47  E(vib)   ...       0.01 
freq.    1312.90  E(vib)   ...       0.01 
freq.    1330.37  E(vib)   ...       0.01 
freq.    1360.06  E(vib)   ...       0.01 
freq.    1380.82  E(vib)   ...       0.01 
freq.    1433.75  E(vib)   ...       0.00 
freq.    1471.16  E(vib)   ...       0.00 
freq.    1500.84  E(vib)   ...       0.00 
freq.    1527.53  E(vib)   ...       0.00 
freq.    1543.86  E(vib)   ...       0.00 
freq.    1557.01  E(vib)   ...       0.00 
freq.    1580.81  E(vib)   ...       0.00 
freq.    1618.36  E(vib)   ...       0.00 
freq.    1629.68  E(vib)   ...       0.00 
freq.    1671.43  E(vib)   ...       0.00 
freq.    3168.96  E(vib)   ...       0.00 
freq.    3169.48  E(vib)   ...       0.00 
freq.    3190.37  E(vib)   ...       0.00 
freq.    3193.43  E(vib)   ...       0.00 
freq.    3219.28  E(vib)   ...       0.00 
freq.    3220.99  E(vib)   ...       0.00 
freq.    3238.17  E(vib)   ...       0.00 
freq.    3238.77  E(vib)   ...       0.00 

------------
INNER ENERGY
------------

The inner energy is: U= E(el) + E(ZPE) + E(vib) + E(rot) + E(trans)
    E(el)   - is the total energy from the electronic structure calculation
              = E(kin-el) + E(nuc-el) + E(el-el) + E(nuc-nuc)
    E(ZPE)  - the the zero temperature vibrational energy from the frequency calculation
    E(vib)  - the the finite temperature correction to E(ZPE) due to population
              of excited vibrational states
    E(rot)  - is the rotational thermal energy
    E(trans)- is the translational thermal energy

Summary of contributions to the inner energy U:
Electronic energy                ...   -742.04410480 Eh
Zero point energy                ...      0.17574049 Eh     110.28 kcal/mol
Thermal vibrational correction   ...      0.00948668 Eh       5.95 kcal/mol
Thermal rotational correction    ...      0.00141627 Eh       0.89 kcal/mol
Thermal translational correction ...      0.00141627 Eh       0.89 kcal/mol
-----------------------------------------------------------------------
Total thermal energy                   -741.85604510 Eh


Summary of corrections to the electronic energy:
(perhaps to be used in another calculation)
Total thermal correction                  0.01231922 Eh       7.73 kcal/mol
Non-thermal (ZPE) correction              0.17574049 Eh     110.28 kcal/mol
-----------------------------------------------------------------------
Total correction                          0.18805971 Eh     118.01 kcal/mol


--------
ENTHALPY
--------

The enthalpy is H = U + kB*T
                kB is Boltzmann's constant
Total free energy                 ...   -741.85604510 Eh 
Thermal Enthalpy correction       ...      0.00094421 Eh       0.59 kcal/mol
-----------------------------------------------------------------------
Total Enthalpy                    ...   -741.85510089 Eh


Note: Only C1 symmetry has been detected, increase convergence thresholds 
      if your molecule has a higher symmetry. Symmetry factor of 1.0 is   
      used for the rotational entropy correction. 
 

Note: Rotational entropy computed according to Herzberg 
Infrared and Raman Spectra, Chapter V,1, Van Nostrand Reinhold, 1945 
Point Group:  C1, Symmetry Number:   1  
Rotational constants in cm-1:     0.078996     0.006895     0.006359 

Vibrational entropy computed according to the QRRHO of S. Grimme
Chem.Eur.J. 2012 18 9955


-------
ENTROPY
-------

The entropy contributions are T*S = T*(S(el)+S(vib)+S(rot)+S(trans))
     S(el)   - electronic entropy
     S(vib)  - vibrational entropy
     S(rot)  - rotational entropy
     S(trans)- translational entropy
The entropies will be listed as multiplied by the temperature to get
units of energy

Electronic entropy                ...      0.00000000 Eh      0.00 kcal/mol
Vibrational entropy               ...      0.01626484 Eh     10.21 kcal/mol
Rotational entropy                ...      0.01544656 Eh      9.69 kcal/mol
Translational entropy             ...      0.01995007 Eh     12.52 kcal/mol
-----------------------------------------------------------------------
Final entropy term                ...      0.05166147 Eh     32.42 kcal/mol

In case the symmetry of your molecule has not been determined correctly
or in case you have a reason to use a different symmetry number we print 
out the resulting rotational entropy values for sn=1,12 :
 --------------------------------------------------------
|  sn= 1 | S(rot)=       0.01544656 Eh      9.69 kcal/mol|
|  sn= 2 | S(rot)=       0.01479210 Eh      9.28 kcal/mol|
|  sn= 3 | S(rot)=       0.01440927 Eh      9.04 kcal/mol|
|  sn= 4 | S(rot)=       0.01413764 Eh      8.87 kcal/mol|
|  sn= 5 | S(rot)=       0.01392696 Eh      8.74 kcal/mol|
|  sn= 6 | S(rot)=       0.01375481 Eh      8.63 kcal/mol|
|  sn= 7 | S(rot)=       0.01360926 Eh      8.54 kcal/mol|
|  sn= 8 | S(rot)=       0.01348319 Eh      8.46 kcal/mol|
|  sn= 9 | S(rot)=       0.01337198 Eh      8.39 kcal/mol|
|  sn=10 | S(rot)=       0.01327250 Eh      8.33 kcal/mol|
|  sn=11 | S(rot)=       0.01318251 Eh      8.27 kcal/mol|
|  sn=12 | S(rot)=       0.01310035 Eh      8.22 kcal/mol|
 --------------------------------------------------------


-------------------
GIBBS FREE ENERGY
-------------------

The Gibbs free energy is G = H - T*S

Total enthalpy                    ...   -741.85510089 Eh 
Total entropy correction          ...     -0.05166147 Eh    -32.42 kcal/mol
-----------------------------------------------------------------------
Final Gibbs free energy         ...   -741.90676236 Eh

For completeness - the Gibbs free energy minus the electronic energy
G-E(el)                           ...      0.13734244 Eh     86.18 kcal/mol


Timings for individual modules:

Sum of individual times         ...      755.298 sec (=  12.588 min)
GTO integral calculation        ...        5.787 sec (=   0.096 min)   0.8 %
SCF iterations                  ...      130.075 sec (=   2.168 min)  17.2 %
SCF Gradient evaluation         ...       22.815 sec (=   0.380 min)   3.0 %
Geometry relaxation             ...        0.244 sec (=   0.004 min)   0.0 %
Analytical frequency calculation...      596.377 sec (=   9.940 min)  79.0 %
                             ****ORCA TERMINATED NORMALLY****
TOTAL RUN TIME: 0 days 0 hours 12 minutes 44 seconds 192 msec
