
                                 *****************
                                 * O   R   C   A *
                                 *****************

                                            #,                                       
                                            ###                                      
                                            ####                                     
                                            #####                                    
                                            ######                                   
                                           ########,                                 
                                     ,,################,,,,,                         
                               ,,#################################,,                 
                          ,,##########################################,,             
                       ,#########################################, ''#####,          
                    ,#############################################,,   '####,        
                  ,##################################################,,,,####,       
                ,###########''''           ''''###############################       
              ,#####''   ,,,,##########,,,,          '''####'''          '####       
            ,##' ,,,,###########################,,,                        '##       
           ' ,,###''''                  '''############,,,                           
         ,,##''                                '''############,,,,        ,,,,,,###''
      ,#''                                            '''#######################'''  
     '                                                          ''''####''''         
             ,#######,   #######,   ,#######,      ##                                
            ,#'     '#,  ##    ##  ,#'     '#,    #''#        ######   ,####,        
            ##       ##  ##   ,#'  ##            #'  '#       #        #'  '#        
            ##       ##  #######   ##           ,######,      #####,   #    #        
            '#,     ,#'  ##    ##  '#,     ,#' ,#      #,         ##   #,  ,#        
             '#######'   ##     ##  '#######'  #'      '#     #####' # '####'        



                  #######################################################
                  #                        -***-                        #
                  #          Department of theory and spectroscopy      #
                  #    Directorship and core code : Frank Neese         #
                  #        Max Planck Institute fuer Kohlenforschung    #
                  #                Kaiser Wilhelm Platz 1               #
                  #                 D-45470 Muelheim/Ruhr               #
                  #                      Germany                        #
                  #                                                     #
                  #                  All rights reserved                #
                  #                        -***-                        #
                  #######################################################


                         Program Version 5.0.4 -  RELEASE  -


 With contributions from (in alphabetic order):
   Daniel Aravena         : Magnetic Suceptibility
   Michael Atanasov       : Ab Initio Ligand Field Theory (pilot matlab implementation)
   Alexander A. Auer      : GIAO ZORA, VPT2 properties, NMR spectrum
   Ute Becker             : Parallelization
   Giovanni Bistoni       : ED, misc. LED, open-shell LED, HFLD
   Martin Brehm           : Molecular dynamics
   Dmytro Bykov           : SCF Hessian
   Vijay G. Chilkuri      : MRCI spin determinant printing, contributions to CSF-ICE
   Dipayan Datta          : RHF DLPNO-CCSD density
   Achintya Kumar Dutta   : EOM-CC, STEOM-CC
   Dmitry Ganyushin       : Spin-Orbit,Spin-Spin,Magnetic field MRCI
   Miquel Garcia          : C-PCM and meta-GGA Hessian, CC/C-PCM, Gaussian charge scheme
   Yang Guo               : DLPNO-NEVPT2, F12-NEVPT2, CIM, IAO-localization
   Andreas Hansen         : Spin unrestricted coupled pair/coupled cluster methods
   Benjamin Helmich-Paris : MC-RPA, TRAH-SCF, COSX integrals
   Lee Huntington         : MR-EOM, pCC
   Robert Izsak           : Overlap fitted RIJCOSX, COSX-SCS-MP3, EOM
   Marcus Kettner         : VPT2
   Christian Kollmar      : KDIIS, OOCD, Brueckner-CCSD(T), CCSD density, CASPT2, CASPT2-K
   Simone Kossmann        : Meta GGA functionals, TD-DFT gradient, OOMP2, MP2 Hessian
   Martin Krupicka        : Initial AUTO-CI
   Lucas Lang             : DCDCAS
   Marvin Lechner         : AUTO-CI (C++ implementation), FIC-MRCC
   Dagmar Lenk            : GEPOL surface, SMD
   Dimitrios Liakos       : Extrapolation schemes; Compound Job, initial MDCI parallelization
   Dimitrios Manganas     : Further ROCIS development; embedding schemes
   Dimitrios Pantazis     : SARC Basis sets
   Anastasios Papadopoulos: AUTO-CI, single reference methods and gradients
   Taras Petrenko         : DFT Hessian,TD-DFT gradient, ASA, ECA, R-Raman, ABS, FL, XAS/XES, NRVS
   Peter Pinski           : DLPNO-MP2, DLPNO-MP2 Gradient
   Christoph Reimann      : Effective Core Potentials
   Marius Retegan         : Local ZFS, SOC
   Christoph Riplinger    : Optimizer, TS searches, QM/MM, DLPNO-CCSD(T), (RO)-DLPNO pert. Triples
   Tobias Risthaus        : Range-separated hybrids, TD-DFT gradient, RPA, STAB
   Michael Roemelt        : Original ROCIS implementation
   Masaaki Saitow         : Open-shell DLPNO-CCSD energy and density
   Barbara Sandhoefer     : DKH picture change effects
   Avijit Sen             : IP-ROCIS
   Kantharuban Sivalingam : CASSCF convergence, NEVPT2, FIC-MRCI
   Bernardo de Souza      : ESD, SOC TD-DFT
   Georgi Stoychev        : AutoAux, RI-MP2 NMR, DLPNO-MP2 response
   Willem Van den Heuvel  : Paramagnetic NMR
   Boris Wezisla          : Elementary symmetry handling
   Frank Wennmohs         : Technical directorship


 We gratefully acknowledge several colleagues who have allowed us to
 interface, adapt or use parts of their codes:
   Stefan Grimme, W. Hujo, H. Kruse, P. Pracht,  : VdW corrections, initial TS optimization,
                  C. Bannwarth, S. Ehlert          DFT functionals, gCP, sTDA/sTD-DF
   Ed Valeev, F. Pavosevic, A. Kumar             : LibInt (2-el integral package), F12 methods
   Garnet Chan, S. Sharma, J. Yang, R. Olivares  : DMRG
   Ulf Ekstrom                                   : XCFun DFT Library
   Mihaly Kallay                                 : mrcc  (arbitrary order and MRCC methods)
   Jiri Pittner, Ondrej Demel                    : Mk-CCSD
   Frank Weinhold                                : gennbo (NPA and NBO analysis)
   Christopher J. Cramer and Donald G. Truhlar   : smd solvation model
   Lars Goerigk                                  : TD-DFT with DH, B97 family of functionals
   V. Asgeirsson, H. Jonsson                     : NEB implementation
   FAccTs GmbH                                   : IRC, NEB, NEB-TS, DLPNO-Multilevel, CI-OPT
                                                   MM, QMMM, 2- and 3-layer-ONIOM, Crystal-QMMM,
                                                   LR-CPCM, SF, NACMEs, symmetry and pop. for TD-DFT,
                                                   nearIR, NL-DFT gradient (VV10), updates on ESD,
                                                   ML-optimized integration grids
   S Lehtola, MJT Oliveira, MAL Marques          : LibXC Library
   Liviu Ungur et al                             : ANISO software


 Your calculation uses the libint2 library for the computation of 2-el integrals
 For citations please refer to: http://libint.valeyev.net

 Your ORCA version has been built with support for libXC version: 5.1.0
 For citations please refer to: https://tddft.org/programs/libxc/

 This ORCA versions uses:
   CBLAS   interface :  Fast vector & matrix operations
   LAPACKE interface :  Fast linear algebra routines
   SCALAPACK package :  Parallel linear algebra routines
   Shared memory     :  Shared parallel matrices
   BLAS/LAPACK       :  OpenBLAS 0.3.15  USE64BITINT DYNAMIC_ARCH NO_AFFINITY Haswell SINGLE_THREADED
        Core in use  :  Haswell
   Copyright (c) 2011-2014, The OpenBLAS Project


Your calculation utilizes the atom-pairwise dispersion correction
with the Becke-Johnson damping scheme (D3BJ)
Cite in your paper:
S.Grimme, S.Ehrlich, L.Goerigk, J Comput Chem, (2011), 32, 1456–1465 
S.Grimme, J.Antony, S.Ehrlich and H.Krieg, J.Chem.Phys., 132, (2010), 154104 
   

================================================================================

----- Orbital basis set information -----
Your calculation utilizes the basis: def2-TZVP
   F. Weigend and R. Ahlrichs, Phys. Chem. Chem. Phys. 7, 3297 (2005).

----- AuxJ basis set information -----
Your calculation utilizes the auxiliary basis: def2/J
   F. Weigend, Phys. Chem. Chem. Phys. 8, 1057 (2006).

================================================================================
                                        WARNINGS
                       Please study these warnings very carefully!
================================================================================


WARNING: Geometry Optimization
  ===> : Switching off AutoStart
         For restart on a previous wavefunction, please use MOREAD

INFO   : the flag for use of the SHARK integral package has been found!

================================================================================
                                       INPUT FILE
================================================================================
NAME = 4-NO2Ph-PhenOH/4-NO2Ph-PhenOH.inp
|  1> %pal nprocs 24 end
|  2> %maxcore 3500
|  3> ! PBE0 D3BJ def2-TZVP TightSCF OPT FREQ TightOpt
|  4> ! CPCM(dmso)
|  5> %scf
|  6> MaxIter 800
|  7> end
|  8> %geom
|  9> MaxIter 800
| 10> MaxStep 0.2
| 11> end
| 12> *xyz 0 1
| 13> 
| 14> C      -0.00124500     -0.55644200     -1.62022400
| 15> C      -0.06589600      0.66819500     -0.95235800
| 16> C       0.06709500     -1.71864800     -0.84639300
| 17> H      -0.14439700      1.58946000     -1.51795400
| 18> H       0.13961900     -2.68541700     -1.33118300
| 19> C      -0.06687300      0.73510900      0.42824000
| 20> C       0.07868300     -1.66505900      0.53382700
| 21> H      -0.13342200      1.69495200      0.93048800
| 22> H       0.14813200     -2.57151900      1.12388500
| 23> C       0.00914500     -0.43383900      1.17984300
| 24> O       0.01805000     -0.42724500      2.53012000
| 25> H      -0.03323400      0.48044100      2.85314400
| 26> C      -0.00539200     -0.61683200     -3.08744400
| 27> C       0.56164400      0.41374100     -3.84663800
| 28> C      -0.57760200     -1.70122300     -3.76340300
| 29> C       0.55600300      0.37282100     -5.22522100
| 30> C      -0.59202400     -1.75710500     -5.14207600
| 31> C      -0.02485700     -0.71475100     -5.85974000
| 32> H       1.03362700      1.25211500     -3.34964800
| 33> H      -1.03960800     -2.50343500     -3.20131700
| 34> H       1.00114900      1.16707200     -5.80843000
| 35> H      -1.04413100     -2.59072800     -5.66171000
| 36> N      -0.03999400     -0.76045100     -7.30892100
| 37> O       0.49267400      0.14872200     -7.91852800
| 38> O      -0.58545100     -1.70419100     -7.85063400
| 39> *
| 40> 
| 41>                          ****END OF INPUT****
================================================================================

                       *****************************
                       * Geometry Optimization Run *
                       *****************************

Geometry optimization settings:
Update method            Update   .... BFGS
Choice of coordinates    CoordSys .... Z-matrix Internals
Initial Hessian          InHess   .... Almoef's Model

Convergence Tolerances:
Energy Change            TolE     ....  1.0000e-06 Eh
Max. Gradient            TolMAXG  ....  1.0000e-04 Eh/bohr
RMS Gradient             TolRMSG  ....  3.0000e-05 Eh/bohr
Max. Displacement        TolMAXD  ....  1.0000e-03 bohr
RMS Displacement         TolRMSD  ....  6.0000e-04 bohr
Strict Convergence                ....  False
------------------------------------------------------------------------------
                        ORCA OPTIMIZATION COORDINATE SETUP
------------------------------------------------------------------------------

The optimization will be done in new redundant internal coordinates
Making redundant internal coordinates   ...  (new redundants) done
Evaluating the initial hessian          ...  (Almloef) done
Evaluating the coordinates              ...  done
Calculating the B-matrix                .... done
Calculating the G-matrix                .... done
Diagonalizing the G-matrix              .... done
Small eigenvalue found = 8.934e-03
The first mode is                       ....   55
The number of degrees of freedom        ....   69

    -----------------------------------------------------------------
                    Redundant Internal Coordinates


    -----------------------------------------------------------------
         Definition                    Initial Value    Approx d2E/dq
    -----------------------------------------------------------------
      1. B(C   1,C   0)                  1.3964         0.610256   
      2. B(C   2,C   0)                  1.3979         0.606858   
      3. B(H   3,C   1)                  1.0839         0.368291   
      4. B(H   4,C   2)                  1.0839         0.368208   
      5. B(C   5,C   1)                  1.3822         0.642914   
      6. B(C   6,C   2)                  1.3813         0.645068   
      7. B(H   7,C   5)                  1.0853         0.366307   
      8. B(H   8,C   6)                  1.0838         0.368372   
      9. B(C   9,C   6)                  1.3921         0.619887   
     10. B(C   9,C   5)                  1.3918         0.620664   
     11. B(O  10,C   9)                  1.3503         0.647409   
     12. B(H  11,O  10)                  0.9648         0.510839   
     13. B(C  12,C   0)                  1.4685         0.468325   
     14. B(C  13,C  12)                  1.4000         0.602271   
     15. B(C  14,C  12)                  1.4001         0.602064   
     16. B(C  15,C  13)                  1.3792         0.650080   
     17. B(C  16,C  14)                  1.3799         0.648461   
     18. B(C  17,C  16)                  1.3868         0.632178   
     19. B(C  17,C  15)                  1.3867         0.632510   
     20. B(H  18,C  13)                  1.0829         0.369638   
     21. B(H  19,C  14)                  1.0830         0.369452   
     22. B(H  20,C  15)                  1.0813         0.371850   
     23. B(H  21,C  16)                  1.0814         0.371708   
     24. B(N  22,C  17)                  1.4500         0.448932   
     25. B(O  23,N  22)                  1.2174         0.945056   
     26. B(O  24,N  22)                  1.2172         0.945527   
     27. A(C   2,C   0,C  12)          121.2674         0.411269   
     28. A(C   1,C   0,C  12)          120.9174         0.411676   
     29. A(C   1,C   0,C   2)          117.8152         0.431168   
     30. A(C   0,C   1,H   3)          119.9467         0.353306   
     31. A(C   0,C   1,C   5)          121.3457         0.435667   
     32. A(H   3,C   1,C   5)          118.6864         0.356444   
     33. A(C   0,C   2,H   4)          119.8151         0.352959   
     34. A(C   0,C   2,C   6)          121.4178         0.435491   
     35. A(H   4,C   2,C   6)          118.7466         0.356633   
     36. A(H   7,C   5,C   9)          119.7497         0.353996   
     37. A(C   1,C   5,C   9)          119.9133         0.436996   
     38. A(C   1,C   5,H   7)          120.3357         0.356117   
     39. A(H   8,C   6,C   9)          119.3565         0.354258   
     40. A(C   2,C   6,C   9)          119.8393         0.437161   
     41. A(C   2,C   6,H   8)          120.8029         0.356659   
     42. A(C   5,C   9,C   6)          119.6649         0.434135   
     43. A(C   5,C   9,O  10)          122.4294         0.434678   
     44. A(C   6,C   9,O  10)          117.9056         0.434579   
     45. A(C   9,O  10,H  11)          109.8182         0.371748   
     46. A(C  13,C  12,C  14)          118.2852         0.429537   
     47. A(C   0,C  12,C  14)          121.0237         0.410691   
     48. A(C   0,C  12,C  13)          120.6909         0.410716   
     49. A(C  15,C  13,H  18)          118.9141         0.357337   
     50. A(C  12,C  13,H  18)          119.8391         0.352738   
     51. A(C  12,C  13,C  15)          121.2346         0.435503   
     52. A(C  16,C  14,H  19)          118.9528         0.357155   
     53. A(C  12,C  14,H  19)          119.8329         0.352687   
     54. A(C  12,C  14,C  16)          121.1990         0.435281   
     55. A(C  13,C  15,C  17)          118.8400         0.439367   
     56. A(C  17,C  15,H  20)          120.1168         0.356039   
     57. A(C  13,C  15,H  20)          121.0415         0.357700   
     58. A(C  14,C  16,C  17)          118.8376         0.439127   
     59. A(C  17,C  16,H  21)          120.1152         0.355984   
     60. A(C  14,C  16,H  21)          121.0446         0.357525   
     61. A(C  15,C  17,C  16)          121.6025         0.437159   
     62. A(C  16,C  17,N  22)          119.2914         0.408515   
     63. A(C  15,C  17,N  22)          119.1061         0.408553   
     64. A(O  23,N  22,O  24)          123.5225         0.492946   
     65. A(C  17,N  22,O  24)          118.2885         0.433202   
     66. A(C  17,N  22,O  23)          118.1890         0.433163   
     67. D(H   3,C   1,C   0,C   2)   -178.5035         0.025722   
     68. D(H   3,C   1,C   0,C  12)      1.4866         0.025722   
     69. D(C   5,C   1,C   0,C  12)    179.7907         0.025722   
     70. D(C   5,C   1,C   0,C   2)     -0.1994         0.025722   
     71. D(C   6,C   2,C   0,C   1)     -0.3743         0.025420   
     72. D(C   6,C   2,C   0,C  12)    179.6356         0.025420   
     73. D(H   4,C   2,C   0,C   1)   -178.7057         0.025420   
     74. D(H   4,C   2,C   0,C  12)      1.3042         0.025420   
     75. D(C   9,C   5,C   1,H   3)    178.8782         0.028736   
     76. D(H   7,C   5,C   1,H   3)     -0.7078         0.028736   
     77. D(H   7,C   5,C   1,C   0)   -179.0327         0.028736   
     78. D(C   9,C   5,C   1,C   0)      0.5533         0.028736   
     79. D(H   8,C   6,C   2,H   4)     -0.6501         0.028942   
     80. D(H   8,C   6,C   2,C   0)   -178.9989         0.028942   
     81. D(C   9,C   6,C   2,C   0)      0.5875         0.028942   
     82. D(C   9,C   6,C   2,H   4)    178.9362         0.028942   
     83. D(O  10,C   9,C   6,H   8)     -0.6607         0.026589   
     84. D(C   5,C   9,C   6,H   8)    179.3674         0.026589   
     85. D(C   5,C   9,C   6,C   2)     -0.2249         0.026589   
     86. D(O  10,C   9,C   5,H   7)     -0.7188         0.026660   
     87. D(O  10,C   9,C   5,C   1)    179.6928         0.026660   
     88. D(O  10,C   9,C   6,C   2)    179.7470         0.026589   
     89. D(C   6,C   9,C   5,H   7)    179.2518         0.026660   
     90. D(C   6,C   9,C   5,C   1)     -0.3366         0.026660   
     91. D(H  11,O  10,C   9,C   6)    179.9347         0.030956   
     92. D(H  11,O  10,C   9,C   5)     -0.0943         0.030956   
     93. D(C  14,C  12,C   0,C   2)     31.5540         0.014936   
     94. D(C  14,C  12,C   0,C   1)   -148.4357         0.014936   
     95. D(C  13,C  12,C   0,C   2)   -148.6115         0.014936   
     96. D(C  13,C  12,C   0,C   1)     31.3988         0.014936   
     97. D(C  15,C  13,C  12,C   0)   -179.5622         0.025016   
     98. D(H  18,C  13,C  12,C  14)   -178.4333         0.025016   
     99. D(H  18,C  13,C  12,C   0)      1.7278         0.025016   
    100. D(C  15,C  13,C  12,C  14)      0.2767         0.025016   
    101. D(H  19,C  14,C  12,C  13)   -178.8671         0.024998   
    102. D(H  19,C  14,C  12,C   0)      0.9713         0.024998   
    103. D(C  16,C  14,C  12,C  13)     -0.3078         0.024998   
    104. D(C  16,C  14,C  12,C   0)    179.5305         0.024998   
    105. D(H  20,C  15,C  13,H  18)     -0.8345         0.029425   
    106. D(H  20,C  15,C  13,C  12)   -179.5562         0.029425   
    107. D(C  17,C  15,C  13,H  18)    178.7075         0.029425   
    108. D(C  17,C  15,C  13,C  12)     -0.0141         0.029425   
    109. D(H  21,C  16,C  14,H  19)     -0.7618         0.029268   
    110. D(H  21,C  16,C  14,C  12)   -179.3335         0.029268   
    111. D(C  17,C  16,C  14,H  19)    178.6469         0.029268   
    112. D(C  17,C  16,C  14,C  12)      0.0752         0.029268   
    113. D(N  22,C  17,C  16,H  21)     -0.3073         0.027722   
    114. D(N  22,C  17,C  16,C  14)   -179.7217         0.027722   
    115. D(C  15,C  17,C  16,H  21)    179.6149         0.027722   
    116. D(C  15,C  17,C  16,C  14)      0.2006         0.027722   
    117. D(N  22,C  17,C  15,H  20)     -0.7620         0.027753   
    118. D(N  22,C  17,C  15,C  13)    179.6916         0.027753   
    119. D(C  16,C  17,C  15,H  20)    179.3156         0.027753   
    120. D(C  16,C  17,C  15,C  13)     -0.2308         0.027753   
    121. D(O  24,N  22,C  17,C  16)      1.8716         0.015872   
    122. D(O  24,N  22,C  17,C  15)   -178.0526         0.015872   
    123. D(O  23,N  22,C  17,C  16)   -178.2104         0.015872   
    124. D(O  23,N  22,C  17,C  15)      1.8654         0.015872   
    -----------------------------------------------------------------

Number of atoms                         .... 25
Number of degrees of freedom            .... 124

         *************************************************************
         *                GEOMETRY OPTIMIZATION CYCLE   1            *
         *************************************************************
---------------------------------
CARTESIAN COORDINATES (ANGSTROEM)
---------------------------------
  C     -0.001245   -0.556442   -1.620224
  C     -0.065896    0.668195   -0.952358
  C      0.067095   -1.718648   -0.846393
  H     -0.144397    1.589460   -1.517954
  H      0.139619   -2.685417   -1.331183
  C     -0.066873    0.735109    0.428240
  C      0.078683   -1.665059    0.533827
  H     -0.133422    1.694952    0.930488
  H      0.148132   -2.571519    1.123885
  C      0.009145   -0.433839    1.179843
  O      0.018050   -0.427245    2.530120
  H     -0.033234    0.480441    2.853144
  C     -0.005392   -0.616832   -3.087444
  C      0.561644    0.413741   -3.846638
  C     -0.577602   -1.701223   -3.763403
  C      0.556003    0.372821   -5.225221
  C     -0.592024   -1.757105   -5.142076
  C     -0.024857   -0.714751   -5.859740
  H      1.033627    1.252115   -3.349648
  H     -1.039608   -2.503435   -3.201317
  H      1.001149    1.167072   -5.808430
  H     -1.044131   -2.590728   -5.661710
  N     -0.039994   -0.760451   -7.308921
  O      0.492674    0.148722   -7.918528
  O     -0.585451   -1.704191   -7.850634

----------------------------
CARTESIAN COORDINATES (A.U.)
----------------------------
  NO LB      ZA    FRAG     MASS         X           Y           Z
   0 C     6.0000    0    12.011   -0.002353   -1.051523   -3.061780
   1 C     6.0000    0    12.011   -0.124525    1.262706   -1.799696
   2 C     6.0000    0    12.011    0.126791   -3.247774   -1.599451
   3 H     1.0000    0     1.008   -0.272871    3.003644   -2.868517
   4 H     1.0000    0     1.008    0.263842   -5.074703   -2.515571
   5 C     6.0000    0    12.011   -0.126372    1.389155    0.809256
   6 C     6.0000    0    12.011    0.148689   -3.146506    1.008787
   7 H     1.0000    0     1.008   -0.252131    3.202995    1.758367
   8 H     1.0000    0     1.008    0.279929   -4.859467    2.123835
   9 C     6.0000    0    12.011    0.017282   -0.819837    2.229580
  10 O     8.0000    0    15.999    0.034110   -0.807376    4.781234
  11 H     1.0000    0     1.008   -0.062803    0.907902    5.391661
  12 C     6.0000    0    12.011   -0.010189   -1.165644   -5.834424
  13 C     6.0000    0    12.011    1.061353    0.781857   -7.269092
  14 C     6.0000    0    12.011   -1.091510   -3.214846   -7.111801
  15 C     6.0000    0    12.011    1.050693    0.704530   -9.874237
  16 C     6.0000    0    12.011   -1.118763   -3.320447   -9.717115
  17 C     6.0000    0    12.011   -0.046973   -1.350684  -11.073304
  18 H     1.0000    0     1.008    1.953272    2.366154   -6.329917
  19 H     1.0000    0     1.008   -1.964574   -4.730807   -6.049612
  20 H     1.0000    0     1.008    1.891897    2.205446  -10.976342
  21 H     1.0000    0     1.008   -1.973122   -4.895766  -10.699081
  22 N     7.0000    0    14.007   -0.075578   -1.437044  -13.811859
  23 O     8.0000    0    15.999    0.931019    0.281044  -14.963849
  24 O     8.0000    0    15.999   -1.106342   -3.220454  -14.835548

--------------------------------
INTERNAL COORDINATES (ANGSTROEM)
--------------------------------
 C      0   0   0     0.000000000000     0.00000000     0.00000000
 C      1   0   0     1.396409870892     0.00000000     0.00000000
 C      1   2   0     1.397929740222   117.81519535     0.00000000
 H      2   1   3     1.083877503430   119.94666027   181.49654579
 H      3   1   2     1.083938823937   119.81506040   181.29428355
 C      2   1   3     1.382218968011   121.34573652   359.80062979
 C      3   1   2     1.381308550276   121.41781150   359.62566762
 H      6   2   1     1.085348058253   120.33574452   180.96729215
 H      7   3   1     1.083817945305   120.80292419   181.00111513
 C      6   2   1     1.391806463786   119.91329497     0.55325973
 O     10   6   2     1.350322463929   122.42943018   179.69280388
 H     11  10   6     0.964815229890   109.81817227   359.90572460
 C      1   2   3     1.468468139971   120.91741968   179.99009709
 C     13   1   2     1.399995022584   120.69086468    31.39875318
 C     13   1   2     1.400088816705   121.02370097   211.56426366
 C     14  13   1     1.379201709385   121.23457835   180.43781331
 C     15  13   1     1.379880441537   121.19902267   179.53054260
 C     16  14  13     1.386659855965   118.84004693     0.00000000
 H     14  13   1     1.082884101031   119.83905371     1.72780896
 H     15  13   1     1.083020917792   119.83286184     0.97131304
 H     16  14  13     1.081259612673   121.04154787   180.44380541
 H     17  15  13     1.081363740623   121.04457089   180.66652294
 N     18  16  14     1.449980410050   119.10610121   179.69156144
 O     23  18  16     1.217354277358   118.18896928     1.86537071
 O     23  18  16     1.217218756353   118.28845496   181.94735171

---------------------------
INTERNAL COORDINATES (A.U.)
---------------------------
 C      0   0   0     0.000000000000     0.00000000     0.00000000
 C      1   0   0     2.638832226691     0.00000000     0.00000000
 C      1   2   0     2.641704363483   117.81519535     0.00000000
 H      2   1   3     2.048231644201   119.94666027   181.49654579
 H      3   1   2     2.048347523165   119.81506040   181.29428355
 C      2   1   3     2.612015306652   121.34573652   359.80062979
 C      3   1   2     2.610294866465   121.41781150   359.62566762
 H      6   2   1     2.051010590082   120.33574452   180.96729215
 H      7   3   1     2.048119095656   120.80292419   181.00111513
 C      6   2   1     2.630133047977   119.91329497     0.55325973
 O     10   6   2     2.551739649307   122.42943018   179.69280388
 H     11  10   6     1.823236554329   109.81817227   359.90572460
 C      1   2   3     2.775002620933   120.91741968   179.99009709
 C     13   1   2     2.645607181537   120.69086468    31.39875318
 C     13   1   2     2.645784426738   121.02370097   211.56426366
 C     14  13   1     2.606313514173   121.23457835   180.43781331
 C     15  13   1     2.607596132060   121.19902267   179.53054260
 C     16  14  13     2.620407368677   118.84004693     0.00000000
 H     14  13   1     2.046354385725   119.83905371     1.72780896
 H     15  13   1     2.046612931936   119.83286184     0.97131304
 H     16  14  13     2.043284547622   121.04154787   180.44380541
 H     17  15  13     2.043481320930   121.04457089   180.66652294
 N     18  16  14     2.740065874546   119.10610121   179.69156144
 O     23  18  16     2.300466192164   118.18896928     1.86537071
 O     23  18  16     2.300210094580   118.28845496   181.94735171

---------------------
BASIS SET INFORMATION
---------------------
There are 4 groups of distinct atoms

 Group   1 Type C   : 11s6p2d1f contracted to 5s3p2d1f pattern {62111/411/11/1}
 Group   2 Type H   : 5s1p contracted to 3s1p pattern {311/1}
 Group   3 Type O   : 11s6p2d1f contracted to 5s3p2d1f pattern {62111/411/11/1}
 Group   4 Type N   : 11s6p2d1f contracted to 5s3p2d1f pattern {62111/411/11/1}

Atom   0C    basis set group =>   1
Atom   1C    basis set group =>   1
Atom   2C    basis set group =>   1
Atom   3H    basis set group =>   2
Atom   4H    basis set group =>   2
Atom   5C    basis set group =>   1
Atom   6C    basis set group =>   1
Atom   7H    basis set group =>   2
Atom   8H    basis set group =>   2
Atom   9C    basis set group =>   1
Atom  10O    basis set group =>   3
Atom  11H    basis set group =>   2
Atom  12C    basis set group =>   1
Atom  13C    basis set group =>   1
Atom  14C    basis set group =>   1
Atom  15C    basis set group =>   1
Atom  16C    basis set group =>   1
Atom  17C    basis set group =>   1
Atom  18H    basis set group =>   2
Atom  19H    basis set group =>   2
Atom  20H    basis set group =>   2
Atom  21H    basis set group =>   2
Atom  22N    basis set group =>   4
Atom  23O    basis set group =>   3
Atom  24O    basis set group =>   3
---------------------------------
AUXILIARY/J BASIS SET INFORMATION
---------------------------------
There are 4 groups of distinct atoms

 Group   1 Type C   : 12s5p4d2f1g contracted to 6s4p3d1f1g pattern {711111/2111/211/2/1}
 Group   2 Type H   : 5s2p1d contracted to 3s1p1d pattern {311/2/1}
 Group   3 Type O   : 12s5p4d2f1g contracted to 6s4p3d1f1g pattern {711111/2111/211/2/1}
 Group   4 Type N   : 12s5p4d2f1g contracted to 6s4p3d1f1g pattern {711111/2111/211/2/1}

Atom   0C    basis set group =>   1
Atom   1C    basis set group =>   1
Atom   2C    basis set group =>   1
Atom   3H    basis set group =>   2
Atom   4H    basis set group =>   2
Atom   5C    basis set group =>   1
Atom   6C    basis set group =>   1
Atom   7H    basis set group =>   2
Atom   8H    basis set group =>   2
Atom   9C    basis set group =>   1
Atom  10O    basis set group =>   3
Atom  11H    basis set group =>   2
Atom  12C    basis set group =>   1
Atom  13C    basis set group =>   1
Atom  14C    basis set group =>   1
Atom  15C    basis set group =>   1
Atom  16C    basis set group =>   1
Atom  17C    basis set group =>   1
Atom  18H    basis set group =>   2
Atom  19H    basis set group =>   2
Atom  20H    basis set group =>   2
Atom  21H    basis set group =>   2
Atom  22N    basis set group =>   4
Atom  23O    basis set group =>   3
Atom  24O    basis set group =>   3


           ************************************************************
           *        Program running with 24 parallel MPI-processes    *
           *              working on a common directory               *
           ************************************************************
------------------------------------------------------------------------------
                           ORCA GTO INTEGRAL CALCULATION
                           -- RI-GTO INTEGRALS CHOSEN --
------------------------------------------------------------------------------
------------------------------------------------------------------------------
                   ___                                                        
                  /   \      - P O W E R E D   B Y -                         
                 /     \                                                     
                 |  |  |   _    _      __       _____    __    __             
                 |  |  |  | |  | |    /  \     |  _  \  |  |  /  |          
                  \  \/   | |  | |   /    \    | | | |  |  | /  /          
                 / \  \   | |__| |  /  /\  \   | |_| |  |  |/  /          
                |  |  |   |  __  | /  /__\  \  |    /   |      \           
                |  |  |   | |  | | |   __   |  |    \   |  |\   \          
                \     /   | |  | | |  |  |  |  | |\  \  |  | \   \       
                 \___/    |_|  |_| |__|  |__|  |_| \__\ |__|  \__/        
                                                                              
                      - O R C A' S   B I G   F R I E N D -                    
                                      &                                       
                       - I N T E G R A L  F E E D E R -                       
                                                                              
 v1 FN, 2020, v2 2021                                                         
------------------------------------------------------------------------------


Reading SHARK input file 4-NO2Ph-PhenOH/4-NO2Ph-PhenOH.SHARKINP.tmp ... ok
----------------------
SHARK INTEGRAL PACKAGE
----------------------

Number of atoms                             ...     25
Number of basis functions                   ...    550
Number of shells                            ...    212
Maximum angular momentum                    ...      3
Integral batch strategy                     ... SHARK/LIBINT Hybrid
RI-J (if used) integral strategy            ... SPLIT-RIJ (Revised 2003 algorithm where possible)
Printlevel                                  ...      1
Contraction scheme used                     ... SEGMENTED contraction
Coulomb Range Separation                    ... NOT USED
Exchange Range Separation                   ... NOT USED
Finite Nucleus Model                        ... NOT USED
Auxiliary Coulomb fitting basis             ... AVAILABLE
   # of basis functions in Aux-J            ...    883
   # of shells in Aux-J                     ...    285
   Maximum angular momentum in Aux-J        ...      4
Auxiliary J/K fitting basis                 ... NOT available
Auxiliary Correlation fitting basis         ... NOT available
Auxiliary 'external' fitting basis          ... NOT available
Integral threshold                          ...     2.500000e-11
Primitive cut-off                           ...     2.500000e-12
Primitive pair pre-selection threshold      ...     2.500000e-12

Calculating pre-screening integrals         ... done (  0.1 sec) Dimension = 212
Organizing shell pair data                  ... done (  0.2 sec)
Shell pair information
Total number of shell pairs                 ...     22578
Shell pairs after pre-screening             ...     16813
Total number of primitive shell pairs       ...     70504
Primitive shell pairs kept                  ...     36481
          la=0 lb=0:   4112 shell pairs
          la=1 lb=0:   4721 shell pairs
          la=1 lb=1:   1363 shell pairs
          la=2 lb=0:   2477 shell pairs
          la=2 lb=1:   1428 shell pairs
          la=2 lb=2:    381 shell pairs
          la=3 lb=0:   1187 shell pairs
          la=3 lb=1:    689 shell pairs
          la=3 lb=2:    359 shell pairs
          la=3 lb=3:     96 shell pairs

Calculating one electron integrals          ... done (  0.0 sec)
Calculating RI/J V-Matrix + Cholesky decomp.... done (  0.1 sec)
Calculating Nuclear repulsion               ... done (  0.0 sec) ENN=    975.013362059579 Eh

SHARK setup successfully completed in   0.9 seconds

Maximum memory used throughout the entire GTOINT-calculation: 29.4 MB


           ************************************************************
           *        Program running with 24 parallel MPI-processes    *
           *              working on a common directory               *
           ************************************************************
-------------------------------------------------------------------------------
                                 ORCA SCF
-------------------------------------------------------------------------------

------------
SCF SETTINGS
------------
Hamiltonian:
 Density Functional     Method          .... DFT(GTOs)
 Exchange Functional    Exchange        .... PBE
   PBE kappa parameter   XKappa         ....  0.804000
   PBE mue parameter    XMuePBE         ....  0.219520
 Correlation Functional Correlation     .... PBE
   PBE beta parameter  CBetaPBE         ....  0.066725
 LDA part of GGA corr.  LDAOpt          .... PW91-LDA
 Gradients option       PostSCFGGA      .... off
 Hybrid DFT is turned on
   Fraction HF Exchange ScalHFX         ....  0.250000
   Scaling of DF-GGA-X  ScalDFX         ....  0.750000
   Scaling of DF-GGA-C  ScalDFC         ....  1.000000
   Scaling of DF-LDA-C  ScalLDAC        ....  1.000000
   Perturbative correction              ....  0.000000
   Density functional embedding theory  .... OFF
   NL short-range parameter             ....  6.900000
 RI-approximation to the Coulomb term is turned on
   Number of AuxJ basis functions       .... 883
   RIJ-COSX (HFX calculated with COS-X)).... on


General Settings:
 Integral files         IntName         .... 4-NO2Ph-PhenOH/4-NO2Ph-PhenOH
 Hartree-Fock type      HFTyp           .... RHF
 Total Charge           Charge          ....    0
 Multiplicity           Mult            ....    1
 Number of Electrons    NEL             ....  112
 Basis Dimension        Dim             ....  550
 Nuclear Repulsion      ENuc            ....    975.0133620596 Eh

Convergence Acceleration:
 DIIS                   CNVDIIS         .... on
   Start iteration      DIISMaxIt       ....    12
   Startup error        DIISStart       ....  0.200000
   # of expansion vecs  DIISMaxEq       ....     5
   Bias factor          DIISBfac        ....   1.050
   Max. coefficient     DIISMaxC        ....  10.000
 Trust-Rad. Augm. Hess. CNVTRAH         .... auto
   Auto Start mean grad. ratio tolernc. ....  1.125000
   Auto Start start iteration           ....    20
   Auto Start num. interpolation iter.  ....    10
   Max. Number of Micro iterations      ....    16
   Max. Number of Macro iterations      .... Maxiter - #DIIS iter
   Number of Davidson start vectors     ....     2
   Converg. threshold I  (grad. norm)   ....   1.000e-05
   Converg. threshold II (energy diff.) ....   1.000e-08
   Grad. Scal. Fac. for Micro threshold ....   0.100
   Minimum threshold for Micro iter.    ....   0.010
   NR start threshold (gradient norm)   ....   0.001
   Initial trust radius                 ....   0.400
   Minimum AH scaling param. (alpha)    ....   1.000
   Maximum AH scaling param. (alpha)    .... 1000.000
   Orbital update algorithm             .... Taylor
   White noise on init. David. guess    .... on
   Maximum white noise                  ....   0.010
   Quad. conv. algorithm                .... NR
 SOSCF                  CNVSOSCF        .... on
   Start iteration      SOSCFMaxIt      ....   150
   Startup grad/error   SOSCFStart      ....  0.003300
 Level Shifting         CNVShift        .... on
   Level shift para.    LevelShift      ....    0.2500
   Turn off err/grad.   ShiftErr        ....    0.0010
 Zerner damping         CNVZerner       .... off
 Static damping         CNVDamp         .... on
   Fraction old density DampFac         ....    0.7000
   Max. Damping (<1)    DampMax         ....    0.9800
   Min. Damping (>=0)   DampMin         ....    0.0000
   Turn off err/grad.   DampErr         ....    0.1000
 Fernandez-Rico         CNVRico         .... off

SCF Procedure:
 Maximum # iterations   MaxIter         ....   800
 SCF integral mode      SCFMode         .... Direct
   Integral package                     .... SHARK and LIBINT hybrid scheme
 Reset frequency        DirectResetFreq ....    20
 Integral Threshold     Thresh          ....  2.500e-11 Eh
 Primitive CutOff       TCut            ....  2.500e-12 Eh

Convergence Tolerance:
 Convergence Check Mode ConvCheckMode   .... Total+1el-Energy
 Convergence forced     ConvForced      .... 0
 Energy Change          TolE            ....  1.000e-08 Eh
 1-El. energy change                    ....  1.000e-05 Eh
 Orbital Gradient       TolG            ....  1.000e-05
 Orbital Rotation angle TolX            ....  1.000e-05
 DIIS Error             TolErr          ....  5.000e-07


Diagonalization of the overlap matrix:
Smallest eigenvalue                        ... 6.939e-06
Time for diagonalization                   ...    0.085 sec
Threshold for overlap eigenvalues          ... 1.000e-08
Number of eigenvalues below threshold      ... 0
Time for construction of square roots      ...    0.076 sec
Total time needed                          ...    0.166 sec

Time for model grid setup =    0.182 sec

------------------------------
INITIAL GUESS: MODEL POTENTIAL
------------------------------
Loading Hartree-Fock densities                     ... done
Calculating cut-offs                               ... done
Initializing the effective Hamiltonian             ... done
Setting up the integral package (SHARK)            ... done
Starting the Coulomb interaction                   ... done (   0.2 sec)
Reading the grid                                   ... done
Mapping shells                                     ... done
Starting the XC term evaluation                    ... done (   0.1 sec)
  promolecular density results
     # of electrons  =    111.995666043
     EX              =    -95.090174993
     EC              =     -3.784499714
     EX+EC           =    -98.874674707
Transforming the Hamiltonian                       ... done (   0.0 sec)
Diagonalizing the Hamiltonian                      ... done (   0.1 sec)
Back transforming the eigenvectors                 ... done (   0.0 sec)
Now organizing SCF variables                       ... done
                      ------------------
                      INITIAL GUESS DONE (   0.7 sec)
                      ------------------
-------------------
DFT GRID GENERATION
-------------------

General Integration Accuracy     IntAcc      ... 4.388
Radial Grid Type                 RadialGrid  ... OptM3 with GC (2021)
Angular Grid (max. ang.)         AngularGrid ... 4 (Lebedev-302)
Angular grid pruning method      GridPruning ... 4 (adaptive)
Weight generation scheme         WeightScheme... Becke
Basis function cutoff            BFCut       ... 1.0000e-11
Integration weight cutoff        WCut        ... 1.0000e-14
Angular grids for H and He will be reduced by one unit
Partially contracted basis set               ... off
Rotationally invariant grid construction     ... off

Total number of grid points                  ...   124788
Total number of batches                      ...     1962
Average number of points per batch           ...       63
Average number of grid points per atom       ...     4992
Time for grid setup =    0.718 sec

--------------------
COSX GRID GENERATION
--------------------

GRIDX 1
-------
General Integration Accuracy     IntAcc      ... 3.816
Radial Grid Type                 RadialGrid  ... OptM3 with GC (2021)
Angular Grid (max. ang.)         AngularGrid ... 1 (Lebedev-50)
Angular grid pruning method      GridPruning ... 4 (adaptive)
Weight generation scheme         WeightScheme... Becke
Basis function cutoff            BFCut       ... 1.0000e-11
Integration weight cutoff        WCut        ... 1.0000e-14
Angular grids for H and He will be reduced by one unit
Partially contracted basis set               ... on
Rotationally invariant grid construction     ... off

Total number of grid points                  ...    15873
Total number of batches                      ...      255
Average number of points per batch           ...       62
Average number of grid points per atom       ...      635
UseSFitting                                  ... on

GRIDX 2
-------
General Integration Accuracy     IntAcc      ... 4.020
Radial Grid Type                 RadialGrid  ... OptM3 with GC (2021)
Angular Grid (max. ang.)         AngularGrid ... 2 (Lebedev-110)
Angular grid pruning method      GridPruning ... 4 (adaptive)
Weight generation scheme         WeightScheme... Becke
Basis function cutoff            BFCut       ... 1.0000e-11
Integration weight cutoff        WCut        ... 1.0000e-14
Angular grids for H and He will be reduced by one unit
Partially contracted basis set               ... on
Rotationally invariant grid construction     ... off

Total number of grid points                  ...    35259
Total number of batches                      ...      564
Average number of points per batch           ...       62
Average number of grid points per atom       ...     1410
UseSFitting                                  ... on

GRIDX 3
-------
General Integration Accuracy     IntAcc      ... 4.338
Radial Grid Type                 RadialGrid  ... OptM3 with GC (2021)
Angular Grid (max. ang.)         AngularGrid ... 3 (Lebedev-194)
Angular grid pruning method      GridPruning ... 4 (adaptive)
Weight generation scheme         WeightScheme... Becke
Basis function cutoff            BFCut       ... 1.0000e-11
Integration weight cutoff        WCut        ... 1.0000e-14
Angular grids for H and He will be reduced by one unit
Partially contracted basis set               ... on
Rotationally invariant grid construction     ... off

Total number of grid points                  ...    77479
Total number of batches                      ...     1224
Average number of points per batch           ...       63
Average number of grid points per atom       ...     3099
UseSFitting                                  ... on

Time for X-Grid setup             =    1.152 sec


--------------------
CPCM SOLVATION MODEL
--------------------
CPCM parameters:
  Epsilon                                         ...      47.2000
  Refrac                                          ...       1.4790
  Rsolv                                           ...       1.3000
  Surface type                                    ... GAUSSIAN VDW
  Epsilon function type                           ...         CPCM
Radii:
 Radius for C  used is    3.8550 Bohr (=   2.0400 Ang.)
 Radius for H  used is    2.4944 Bohr (=   1.3200 Ang.)
 Radius for O  used is    3.4469 Bohr (=   1.8240 Ang.)
 Radius for N  used is    3.5149 Bohr (=   1.8600 Ang.)
Calculating surface                               ...        done! (  0.0s)
GEPOL surface points                              ...         1351
GEPOL Volume                                      ...    1675.6605
GEPOL Surface-area                                ...     875.9757
Calculating surface distance matrix               ...        done! (  0.0s)
Performing Cholesky decomposition & store         ...        done! (  0.2s)
Overall time for CPCM initialization              ...                 0.2s
--------------
SCF ITERATIONS
--------------
ITER       Energy         Delta-E        Max-DP      RMS-DP      [F,P]     Damp
               ***  Starting incremental Fock matrix formation  ***
  0   -742.1289508032   0.000000000000 0.07985327  0.00084891  0.2071392 0.7000
  1   -742.2951100520  -0.166159248785 0.08855557  0.00073256  0.0982096 0.7000
                               ***Turning on DIIS***
  2   -742.3627078980  -0.067597846052 0.14171972  0.00133091  0.0373786 0.0000
  3   -742.4731437076  -0.110435809614 0.07886232  0.00055237  0.0469400 0.0000
  4   -742.4931084664  -0.019964758763 0.02440415  0.00020600  0.0149871 0.0000
  5   -742.4944436068  -0.001335140434 0.00807449  0.00008226  0.0043907 0.0000
                      *** Initiating the SOSCF procedure ***
                           *** Shutting down DIIS ***
                      *** Re-Reading the Fockian *** 
                      *** Removing any level shift *** 
ITER      Energy       Delta-E        Grad      Rot      Max-DP    RMS-DP
  6   -742.49454099  -0.0000973840  0.000242  0.000242  0.003663  0.000042
               *** Restarting incremental Fock matrix formation ***
  7   -742.49451456   0.0000264314  0.000188  0.000915  0.002849  0.000043
  8   -742.49451250   0.0000020566  0.000268  0.000470  0.000487  0.000006
  9   -742.49451645  -0.0000039434  0.000032  0.000096  0.000149  0.000002
 10   -742.49451638   0.0000000631  0.000039  0.000052  0.000111  0.000001
 11   -742.49451650  -0.0000001184  0.000006  0.000013  0.000089  0.000001
 12   -742.49451650   0.0000000045  0.000010  0.000008  0.000075  0.000001
                  ***Gradient check signals convergence***
              ***Rediagonalizing the Fockian in SOSCF/NRSCF***

               *****************************************************
               *                     SUCCESS                       *
               *           SCF CONVERGED AFTER  13 CYCLES          *
               *****************************************************

Old exchange energy                            =    -24.179612086 Eh
New exchange energy                            =    -24.179605678 Eh
Exchange energy change after final integration =      0.000006408 Eh
Total energy after final integration           =   -742.494510091 Eh
Final COS-X integration done in                =     4.574 sec

----------------
TOTAL SCF ENERGY
----------------

Total Energy       :         -742.49451009 Eh          -20204.30279 eV

Components:
Nuclear Repulsion  :          975.01336206 Eh           26531.46242 eV
Electronic Energy  :        -1717.50787215 Eh          -46735.76520 eV
One Electron Energy:        -2944.03140213 Eh          -80111.16723 eV
Two Electron Energy:         1226.52352998 Eh           33375.40202 eV
Max COSX asymmetry :            0.00000111 Eh               0.00003 eV
CPCM Dielectric    :           -0.02228209 Eh              -0.60633 eV

Virial components:
Potential Energy   :        -1481.79094857 Eh          -40321.58162 eV
Kinetic Energy     :          739.29643848 Eh           20117.27883 eV
Virial Ratio       :            2.00432583


DFT components:
N(Alpha)           :       56.000058201676 electrons
N(Beta)            :       56.000058201676 electrons
N(Total)           :      112.000116403352 electrons
E(X)               :      -72.447740474188 Eh       
E(C)               :       -3.788974413524 Eh       
E(XC)              :      -76.236714887712 Eh       
DFET-embed. en.    :        0.000000000000 Eh       
CPCM Solvation Model Properties:
Surface-charge          :           -0.02381510
Charge-correction       :            0.00019948 Eh               0.00543 eV
Free-energy (cav+disp)  :  This term is not implemented in the current solvation scheme

---------------
SCF CONVERGENCE
---------------

  Last Energy change         ...   -1.4508e-09  Tolerance :   1.0000e-08
  Last MAX-Density change    ...    1.5543e-15  Tolerance :   1.0000e-07
  Last RMS-Density change    ...    1.3969e-17  Tolerance :   5.0000e-09
  Last Orbital Gradient      ...    9.7746e-07  Tolerance :   1.0000e-05
  Last Orbital Rotation      ...    1.7815e-06  Tolerance :   1.0000e-05

             **** THE GBW FILE WAS UPDATED (4-NO2Ph-PhenOH/4-NO2Ph-PhenOH.gbw) ****
             **** DENSITY 4-NO2Ph-PhenOH/4-NO2Ph-PhenOH.scfp WAS UPDATED ****
             **** ENERGY FILE WAS UPDATED (4-NO2Ph-PhenOH/4-NO2Ph-PhenOH.en.tmp) ****
             **** THE GBW FILE WAS UPDATED (4-NO2Ph-PhenOH/4-NO2Ph-PhenOH.gbw) ****
             **** DENSITY 4-NO2Ph-PhenOH/4-NO2Ph-PhenOH.scfp WAS UPDATED ****
----------------
ORBITAL ENERGIES
----------------

  NO   OCC          E(Eh)            E(eV) 
   0   2.0000     -19.245067      -523.6849 
   1   2.0000     -19.244965      -523.6821 
   2   2.0000     -19.243734      -523.6486 
   3   2.0000     -14.629651      -398.0930 
   4   2.0000     -10.296127      -280.1718 
   5   2.0000     -10.286444      -279.9084 
   6   2.0000     -10.261163      -279.2204 
   7   2.0000     -10.251070      -278.9458 
   8   2.0000     -10.250786      -278.9381 
   9   2.0000     -10.242325      -278.7078 
  10   2.0000     -10.242046      -278.7002 
  11   2.0000     -10.241071      -278.6737 
  12   2.0000     -10.237014      -278.5633 
  13   2.0000     -10.236602      -278.5521 
  14   2.0000     -10.230413      -278.3837 
  15   2.0000     -10.228450      -278.3303 
  16   2.0000      -1.279461       -34.8159 
  17   2.0000      -1.102880       -30.0109 
  18   2.0000      -1.097866       -29.8745 
  19   2.0000      -0.924827       -25.1658 
  20   2.0000      -0.894803       -24.3488 
  21   2.0000      -0.844457       -22.9788 
  22   2.0000      -0.796456       -21.6727 
  23   2.0000      -0.783580       -21.3223 
  24   2.0000      -0.781195       -21.2574 
  25   2.0000      -0.718776       -19.5589 
  26   2.0000      -0.664590       -18.0844 
  27   2.0000      -0.646482       -17.5917 
  28   2.0000      -0.632380       -17.2079 
  29   2.0000      -0.609005       -16.5719 
  30   2.0000      -0.590237       -16.0612 
  31   2.0000      -0.571485       -15.5509 
  32   2.0000      -0.568529       -15.4705 
  33   2.0000      -0.548587       -14.9278 
  34   2.0000      -0.539444       -14.6790 
  35   2.0000      -0.508523       -13.8376 
  36   2.0000      -0.482563       -13.1312 
  37   2.0000      -0.474523       -12.9124 
  38   2.0000      -0.465072       -12.6552 
  39   2.0000      -0.456686       -12.4271 
  40   2.0000      -0.443703       -12.0738 
  41   2.0000      -0.441340       -12.0095 
  42   2.0000      -0.436820       -11.8865 
  43   2.0000      -0.416728       -11.3398 
  44   2.0000      -0.406619       -11.0647 
  45   2.0000      -0.380931       -10.3657 
  46   2.0000      -0.377295       -10.2667 
  47   2.0000      -0.368874       -10.0376 
  48   2.0000      -0.352108        -9.5814 
  49   2.0000      -0.342123        -9.3096 
  50   2.0000      -0.340935        -9.2773 
  51   2.0000      -0.321626        -8.7519 
  52   2.0000      -0.301270        -8.1980 
  53   2.0000      -0.289832        -7.8867 
  54   2.0000      -0.279561        -7.6073 
  55   2.0000      -0.236381        -6.4323 
  56   0.0000      -0.096267        -2.6196 
  57   0.0000      -0.027150        -0.7388 
  58   0.0000      -0.022008        -0.5989 
  59   0.0000      -0.014331        -0.3900 
  60   0.0000       0.031535         0.8581 
  61   0.0000       0.061225         1.6660 
  62   0.0000       0.065052         1.7701 
  63   0.0000       0.080456         2.1893 
  64   0.0000       0.085420         2.3244 
  65   0.0000       0.103065         2.8045 
  66   0.0000       0.107996         2.9387 
  67   0.0000       0.117458         3.1962 
  68   0.0000       0.126814         3.4508 
  69   0.0000       0.131344         3.5740 
  70   0.0000       0.140049         3.8109 
  71   0.0000       0.158301         4.3076 
  72   0.0000       0.162558         4.4234 
  73   0.0000       0.165093         4.4924 
  74   0.0000       0.165868         4.5135 
  75   0.0000       0.175561         4.7772 
  76   0.0000       0.194173         5.2837 
  77   0.0000       0.208419         5.6714 
  78   0.0000       0.209245         5.6938 
  79   0.0000       0.214461         5.8358 
  80   0.0000       0.219590         5.9753 
  81   0.0000       0.225481         6.1356 
  82   0.0000       0.231623         6.3028 
  83   0.0000       0.238476         6.4893 
  84   0.0000       0.242497         6.5987 
  85   0.0000       0.245616         6.6836 
  86   0.0000       0.252918         6.8822 
  87   0.0000       0.256045         6.9673 
  88   0.0000       0.266701         7.2573 
  89   0.0000       0.269719         7.3394 
  90   0.0000       0.272459         7.4140 
  91   0.0000       0.288900         7.8614 
  92   0.0000       0.301814         8.2128 
  93   0.0000       0.306836         8.3494 
  94   0.0000       0.315186         8.5766 
  95   0.0000       0.322542         8.7768 
  96   0.0000       0.326533         8.8854 
  97   0.0000       0.328278         8.9329 
  98   0.0000       0.334233         9.0950 
  99   0.0000       0.340037         9.2529 
 100   0.0000       0.347098         9.4450 
 101   0.0000       0.350937         9.5495 
 102   0.0000       0.361651         9.8410 
 103   0.0000       0.366112         9.9624 
 104   0.0000       0.373351        10.1594 
 105   0.0000       0.374294        10.1851 
 106   0.0000       0.379625        10.3301 
 107   0.0000       0.383915        10.4469 
 108   0.0000       0.387651        10.5485 
 109   0.0000       0.391576        10.6553 
 110   0.0000       0.406082        11.0501 
 111   0.0000       0.415930        11.3180 
 112   0.0000       0.416514        11.3339 
 113   0.0000       0.427534        11.6338 
 114   0.0000       0.436076        11.8662 
 115   0.0000       0.441366        12.0102 
 116   0.0000       0.444345        12.0912 
 117   0.0000       0.453250        12.3336 
 118   0.0000       0.460256        12.5242 
 119   0.0000       0.465943        12.6789 
 120   0.0000       0.470670        12.8076 
 121   0.0000       0.478996        13.0341 
 122   0.0000       0.482522        13.1301 
 123   0.0000       0.490771        13.3546 
 124   0.0000       0.497372        13.5342 
 125   0.0000       0.505637        13.7591 
 126   0.0000       0.508621        13.8403 
 127   0.0000       0.511707        13.9242 
 128   0.0000       0.518480        14.1086 
 129   0.0000       0.535795        14.5797 
 130   0.0000       0.540968        14.7205 
 131   0.0000       0.546262        14.8646 
 132   0.0000       0.557591        15.1728 
 133   0.0000       0.566409        15.4128 
 134   0.0000       0.576607        15.6903 
 135   0.0000       0.579134        15.7590 
 136   0.0000       0.595678        16.2092 
 137   0.0000       0.599941        16.3252 
 138   0.0000       0.602352        16.3908 
 139   0.0000       0.619724        16.8636 
 140   0.0000       0.629098        17.1186 
 141   0.0000       0.641449        17.4547 
 142   0.0000       0.644428        17.5358 
 143   0.0000       0.651898        17.7390 
 144   0.0000       0.659082        17.9345 
 145   0.0000       0.673020        18.3138 
 146   0.0000       0.681634        18.5482 
 147   0.0000       0.685518        18.6539 
 148   0.0000       0.689267        18.7559 
 149   0.0000       0.694331        18.8937 
 150   0.0000       0.712418        19.3859 
 151   0.0000       0.714888        19.4531 
 152   0.0000       0.722273        19.6540 
 153   0.0000       0.730643        19.8818 
 154   0.0000       0.733469        19.9587 
 155   0.0000       0.738182        20.0870 
 156   0.0000       0.745880        20.2964 
 157   0.0000       0.756659        20.5897 
 158   0.0000       0.770036        20.9537 
 159   0.0000       0.780752        21.2453 
 160   0.0000       0.789374        21.4800 
 161   0.0000       0.801675        21.8147 
 162   0.0000       0.804198        21.8833 
 163   0.0000       0.805895        21.9295 
 164   0.0000       0.810289        22.0491 
 165   0.0000       0.839691        22.8492 
 166   0.0000       0.852402        23.1950 
 167   0.0000       0.855662        23.2837 
 168   0.0000       0.871907        23.7258 
 169   0.0000       0.878916        23.9165 
 170   0.0000       0.889170        24.1955 
 171   0.0000       0.891915        24.2702 
 172   0.0000       0.904676        24.6175 
 173   0.0000       0.913868        24.8676 
 174   0.0000       0.918212        24.9858 
 175   0.0000       0.935343        25.4520 
 176   0.0000       0.938210        25.5300 
 177   0.0000       0.964085        26.2341 
 178   0.0000       0.975541        26.5458 
 179   0.0000       1.001573        27.2542 
 180   0.0000       1.005154        27.3516 
 181   0.0000       1.011758        27.5313 
 182   0.0000       1.021365        27.7928 
 183   0.0000       1.043055        28.3830 
 184   0.0000       1.051558        28.6144 
 185   0.0000       1.065557        28.9953 
 186   0.0000       1.068970        29.0881 
 187   0.0000       1.076142        29.2833 
 188   0.0000       1.089310        29.6416 
 189   0.0000       1.095428        29.8081 
 190   0.0000       1.117670        30.4133 
 191   0.0000       1.126793        30.6616 
 192   0.0000       1.138416        30.9779 
 193   0.0000       1.169942        31.8357 
 194   0.0000       1.185862        32.2689 
 195   0.0000       1.191771        32.4297 
 196   0.0000       1.195216        32.5235 
 197   0.0000       1.200564        32.6690 
 198   0.0000       1.213722        33.0270 
 199   0.0000       1.227952        33.4143 
 200   0.0000       1.231992        33.5242 
 201   0.0000       1.246727        33.9252 
 202   0.0000       1.271377        34.5959 
 203   0.0000       1.280070        34.8325 
 204   0.0000       1.298440        35.3323 
 205   0.0000       1.300905        35.3994 
 206   0.0000       1.303972        35.4829 
 207   0.0000       1.309453        35.6320 
 208   0.0000       1.314930        35.7811 
 209   0.0000       1.326975        36.1088 
 210   0.0000       1.347475        36.6667 
 211   0.0000       1.363872        37.1128 
 212   0.0000       1.370891        37.3038 
 213   0.0000       1.389444        37.8087 
 214   0.0000       1.396541        38.0018 
 215   0.0000       1.418680        38.6042 
 216   0.0000       1.437459        39.1153 
 217   0.0000       1.441059        39.2132 
 218   0.0000       1.442401        39.2497 
 219   0.0000       1.458873        39.6980 
 220   0.0000       1.496816        40.7304 
 221   0.0000       1.500581        40.8329 
 222   0.0000       1.511522        41.1306 
 223   0.0000       1.519089        41.3365 
 224   0.0000       1.526594        41.5407 
 225   0.0000       1.529126        41.6096 
 226   0.0000       1.533965        41.7413 
 227   0.0000       1.535394        41.7802 
 228   0.0000       1.547576        42.1117 
 229   0.0000       1.564024        42.5593 
 230   0.0000       1.585426        43.1416 
 231   0.0000       1.589434        43.2507 
 232   0.0000       1.594388        43.3855 
 233   0.0000       1.598901        43.5083 
 234   0.0000       1.618289        44.0359 
 235   0.0000       1.648389        44.8549 
 236   0.0000       1.655823        45.0572 
 237   0.0000       1.665258        45.3140 
 238   0.0000       1.679434        45.6997 
 239   0.0000       1.684077        45.8261 
 240   0.0000       1.692884        46.0657 
 241   0.0000       1.703972        46.3674 
 242   0.0000       1.714873        46.6641 
 243   0.0000       1.722536        46.8726 
 244   0.0000       1.731826        47.1254 
 245   0.0000       1.747251        47.5451 
 246   0.0000       1.764678        48.0193 
 247   0.0000       1.768007        48.1099 
 248   0.0000       1.774686        48.2917 
 249   0.0000       1.778838        48.4046 
 250   0.0000       1.783291        48.5258 
 251   0.0000       1.788596        48.6702 
 252   0.0000       1.823401        49.6173 
 253   0.0000       1.836770        49.9810 
 254   0.0000       1.841930        50.1215 
 255   0.0000       1.857514        50.5455 
 256   0.0000       1.866440        50.7884 
 257   0.0000       1.873178        50.9718 
 258   0.0000       1.897893        51.6443 
 259   0.0000       1.918866        52.2150 
 260   0.0000       1.925655        52.3997 
 261   0.0000       1.942019        52.8450 
 262   0.0000       1.946015        52.9538 
 263   0.0000       1.966562        53.5129 
 264   0.0000       1.982005        53.9331 
 265   0.0000       2.013988        54.8034 
 266   0.0000       2.021291        55.0021 
 267   0.0000       2.032438        55.3054 
 268   0.0000       2.041392        55.5491 
 269   0.0000       2.048700        55.7480 
 270   0.0000       2.055691        55.9382 
 271   0.0000       2.056823        55.9690 
 272   0.0000       2.080898        56.6241 
 273   0.0000       2.093801        56.9752 
 274   0.0000       2.132707        58.0339 
 275   0.0000       2.143799        58.3357 
 276   0.0000       2.146079        58.3978 
 277   0.0000       2.153258        58.5931 
 278   0.0000       2.162391        58.8417 
 279   0.0000       2.173103        59.1331 
 280   0.0000       2.180833        59.3435 
 281   0.0000       2.191631        59.6373 
 282   0.0000       2.208168        60.0873 
 283   0.0000       2.230833        60.7040 
 284   0.0000       2.237234        60.8782 
 285   0.0000       2.243257        61.0421 
 286   0.0000       2.262220        61.5581 
 287   0.0000       2.279688        62.0335 
 288   0.0000       2.285933        62.2034 
 289   0.0000       2.299312        62.5675 
 290   0.0000       2.318816        63.0982 
 291   0.0000       2.327337        63.3301 
 292   0.0000       2.333071        63.4861 
 293   0.0000       2.364508        64.3415 
 294   0.0000       2.396179        65.2034 
 295   0.0000       2.420558        65.8667 
 296   0.0000       2.430636        66.1410 
 297   0.0000       2.440215        66.4016 
 298   0.0000       2.462546        67.0093 
 299   0.0000       2.489146        67.7331 
 300   0.0000       2.509865        68.2969 
 301   0.0000       2.519263        68.5526 
 302   0.0000       2.543870        69.2222 
 303   0.0000       2.556541        69.5670 
 304   0.0000       2.565971        69.8236 
 305   0.0000       2.573437        70.0268 
 306   0.0000       2.598124        70.6985 
 307   0.0000       2.601002        70.7769 
 308   0.0000       2.608135        70.9710 
 309   0.0000       2.610572        71.0373 
 310   0.0000       2.634516        71.6888 
 311   0.0000       2.640570        71.8536 
 312   0.0000       2.668485        72.6132 
 313   0.0000       2.675160        72.7948 
 314   0.0000       2.687024        73.1176 
 315   0.0000       2.689079        73.1736 
 316   0.0000       2.692130        73.2566 
 317   0.0000       2.694251        73.3143 
 318   0.0000       2.703868        73.5760 
 319   0.0000       2.711211        73.7758 
 320   0.0000       2.715585        73.8948 
 321   0.0000       2.728622        74.2496 
 322   0.0000       2.734337        74.4051 
 323   0.0000       2.746976        74.7490 
 324   0.0000       2.757131        75.0254 
 325   0.0000       2.760478        75.1164 
 326   0.0000       2.765831        75.2621 
 327   0.0000       2.769406        75.3594 
 328   0.0000       2.782237        75.7085 
 329   0.0000       2.801340        76.2283 
 330   0.0000       2.812911        76.5432 
 331   0.0000       2.818544        76.6965 
 332   0.0000       2.832126        77.0661 
 333   0.0000       2.840078        77.2825 
 334   0.0000       2.844238        77.3957 
 335   0.0000       2.846852        77.4668 
 336   0.0000       2.864738        77.9535 
 337   0.0000       2.874857        78.2288 
 338   0.0000       2.882849        78.4463 
 339   0.0000       2.894638        78.7671 
 340   0.0000       2.899348        78.8953 
 341   0.0000       2.914262        79.3011 
 342   0.0000       2.941337        80.0379 
 343   0.0000       2.947670        80.2102 
 344   0.0000       2.948290        80.2271 
 345   0.0000       2.974149        80.9307 
 346   0.0000       2.977148        81.0123 
 347   0.0000       2.981501        81.1308 
 348   0.0000       2.986014        81.2536 
 349   0.0000       3.003351        81.7253 
 350   0.0000       3.006456        81.8098 
 351   0.0000       3.026456        82.3541 
 352   0.0000       3.035581        82.6024 
 353   0.0000       3.040026        82.7233 
 354   0.0000       3.060412        83.2780 
 355   0.0000       3.063870        83.3721 
 356   0.0000       3.070851        83.5621 
 357   0.0000       3.108435        84.5848 
 358   0.0000       3.114041        84.7374 
 359   0.0000       3.118099        84.8478 
 360   0.0000       3.133976        85.2798 
 361   0.0000       3.135810        85.3297 
 362   0.0000       3.145341        85.5891 
 363   0.0000       3.151500        85.7567 
 364   0.0000       3.160912        86.0128 
 365   0.0000       3.164083        86.0991 
 366   0.0000       3.174437        86.3808 
 367   0.0000       3.179854        86.5282 
 368   0.0000       3.188000        86.7499 
 369   0.0000       3.206406        87.2507 
 370   0.0000       3.217304        87.5473 
 371   0.0000       3.238813        88.1326 
 372   0.0000       3.252983        88.5182 
 373   0.0000       3.257676        88.6459 
 374   0.0000       3.260614        88.7258 
 375   0.0000       3.272820        89.0580 
 376   0.0000       3.277958        89.1978 
 377   0.0000       3.287956        89.4698 
 378   0.0000       3.289898        89.5227 
 379   0.0000       3.301934        89.8502 
 380   0.0000       3.319018        90.3151 
 381   0.0000       3.321972        90.3954 
 382   0.0000       3.330466        90.6266 
 383   0.0000       3.339711        90.8781 
 384   0.0000       3.372604        91.7732 
 385   0.0000       3.375155        91.8426 
 386   0.0000       3.375714        91.8579 
 387   0.0000       3.393492        92.3416 
 388   0.0000       3.397226        92.4432 
 389   0.0000       3.404558        92.6427 
 390   0.0000       3.409531        92.7781 
 391   0.0000       3.430051        93.3364 
 392   0.0000       3.435465        93.4838 
 393   0.0000       3.451688        93.9252 
 394   0.0000       3.453126        93.9643 
 395   0.0000       3.460767        94.1723 
 396   0.0000       3.466021        94.3152 
 397   0.0000       3.473627        94.5222 
 398   0.0000       3.481798        94.7446 
 399   0.0000       3.508802        95.4794 
 400   0.0000       3.511389        95.5498 
 401   0.0000       3.521684        95.8299 
 402   0.0000       3.524027        95.8936 
 403   0.0000       3.538037        96.2749 
 404   0.0000       3.551337        96.6368 
 405   0.0000       3.559338        96.8545 
 406   0.0000       3.581078        97.4461 
 407   0.0000       3.599695        97.9527 
 408   0.0000       3.603903        98.0672 
 409   0.0000       3.618560        98.4660 
 410   0.0000       3.643327        99.1400 
 411   0.0000       3.645530        99.1999 
 412   0.0000       3.692941       100.4900 
 413   0.0000       3.749862       102.0389 
 414   0.0000       3.759338       102.2968 
 415   0.0000       3.771091       102.6166 
 416   0.0000       3.773699       102.6876 
 417   0.0000       3.789790       103.1254 
 418   0.0000       3.797161       103.3260 
 419   0.0000       3.852358       104.8280 
 420   0.0000       3.859792       105.0303 
 421   0.0000       3.893274       105.9414 
 422   0.0000       3.902472       106.1917 
 423   0.0000       3.914847       106.5284 
 424   0.0000       3.930838       106.9635 
 425   0.0000       3.974959       108.1641 
 426   0.0000       3.988674       108.5373 
 427   0.0000       4.000291       108.8534 
 428   0.0000       4.002500       108.9136 
 429   0.0000       4.030949       109.6877 
 430   0.0000       4.038167       109.8841 
 431   0.0000       4.039368       109.9168 
 432   0.0000       4.062154       110.5368 
 433   0.0000       4.078360       110.9778 
 434   0.0000       4.086281       111.1934 
 435   0.0000       4.117317       112.0379 
 436   0.0000       4.158960       113.1711 
 437   0.0000       4.168533       113.4316 
 438   0.0000       4.178536       113.7037 
 439   0.0000       4.191886       114.0670 
 440   0.0000       4.205592       114.4400 
 441   0.0000       4.209132       114.5363 
 442   0.0000       4.216146       114.7272 
 443   0.0000       4.228569       115.0652 
 444   0.0000       4.232583       115.1744 
 445   0.0000       4.246931       115.5649 
 446   0.0000       4.253602       115.7464 
 447   0.0000       4.259145       115.8972 
 448   0.0000       4.268772       116.1592 
 449   0.0000       4.271487       116.2331 
 450   0.0000       4.283480       116.5594 
 451   0.0000       4.309416       117.2652 
 452   0.0000       4.348424       118.3266 
 453   0.0000       4.360451       118.6539 
 454   0.0000       4.400043       119.7313 
 455   0.0000       4.428309       120.5004 
 456   0.0000       4.470939       121.6604 
 457   0.0000       4.509966       122.7224 
 458   0.0000       4.528475       123.2261 
 459   0.0000       4.561729       124.1310 
 460   0.0000       4.580031       124.6290 
 461   0.0000       4.615137       125.5843 
 462   0.0000       4.617458       125.6474 
 463   0.0000       4.649994       126.5328 
 464   0.0000       4.654874       126.6656 
 465   0.0000       4.692389       127.6864 
 466   0.0000       4.695497       127.7710 
 467   0.0000       4.711236       128.1993 
 468   0.0000       4.720525       128.4520 
 469   0.0000       4.736020       128.8737 
 470   0.0000       4.748569       129.2151 
 471   0.0000       4.773219       129.8859 
 472   0.0000       4.827721       131.3690 
 473   0.0000       4.859904       132.2447 
 474   0.0000       4.918080       133.8278 
 475   0.0000       4.923064       133.9634 
 476   0.0000       4.932616       134.2233 
 477   0.0000       4.940409       134.4354 
 478   0.0000       4.948763       134.6627 
 479   0.0000       4.958939       134.9396 
 480   0.0000       4.970794       135.2622 
 481   0.0000       4.983699       135.6133 
 482   0.0000       5.019839       136.5968 
 483   0.0000       5.097706       138.7156 
 484   0.0000       5.130781       139.6156 
 485   0.0000       5.132279       139.6564 
 486   0.0000       5.152463       140.2057 
 487   0.0000       5.172975       140.7638 
 488   0.0000       5.201095       141.5290 
 489   0.0000       5.215181       141.9123 
 490   0.0000       5.272129       143.4619 
 491   0.0000       5.298041       144.1670 
 492   0.0000       5.309959       144.4913 
 493   0.0000       5.321210       144.7975 
 494   0.0000       5.326257       144.9348 
 495   0.0000       5.374071       146.2359 
 496   0.0000       5.435913       147.9187 
 497   0.0000       5.447153       148.2246 
 498   0.0000       5.485106       149.2573 
 499   0.0000       5.495464       149.5392 
 500   0.0000       5.501969       149.7162 
 501   0.0000       5.535357       150.6247 
 502   0.0000       5.547950       150.9674 
 503   0.0000       5.613707       152.7567 
 504   0.0000       5.623704       153.0288 
 505   0.0000       5.643093       153.5564 
 506   0.0000       5.715141       155.5169 
 507   0.0000       5.822948       158.4505 
 508   0.0000       5.851224       159.2199 
 509   0.0000       5.893895       160.3810 
 510   0.0000       6.006192       163.4368 
 511   0.0000       6.030686       164.1033 
 512   0.0000       6.258206       170.2944 
 513   0.0000       6.301392       171.4696 
 514   0.0000       6.361097       173.0943 
 515   0.0000       6.363283       173.1537 
 516   0.0000       6.424306       174.8142 
 517   0.0000       6.433293       175.0588 
 518   0.0000       6.434549       175.0930 
 519   0.0000       6.439125       175.2175 
 520   0.0000       6.464443       175.9064 
 521   0.0000       6.731061       183.1615 
 522   0.0000       6.783060       184.5764 
 523   0.0000       6.821235       185.6152 
 524   0.0000       6.865983       186.8329 
 525   0.0000       6.895343       187.6318 
 526   0.0000       6.965037       189.5283 
 527   0.0000       7.005981       190.6424 
 528   0.0000       7.160222       194.8395 
 529   0.0000       7.301085       198.6726 
 530   0.0000       7.305959       198.8053 
 531   0.0000       7.451154       202.7562 
 532   0.0000       7.500431       204.0971 
 533   0.0000       7.563795       205.8213 
 534   0.0000      22.167340       603.2040 
 535   0.0000      22.487088       611.9048 
 536   0.0000      22.773211       619.6906 
 537   0.0000      22.779458       619.8606 
 538   0.0000      22.804964       620.5546 
 539   0.0000      22.853483       621.8749 
 540   0.0000      22.860987       622.0791 
 541   0.0000      22.866150       622.2196 
 542   0.0000      23.020653       626.4238 
 543   0.0000      23.101703       628.6293 
 544   0.0000      23.369123       635.9062 
 545   0.0000      23.547243       640.7530 
 546   0.0000      32.667454       888.9266 
 547   0.0000      44.025534      1197.9957 
 548   0.0000      44.181583      1202.2420 
 549   0.0000      44.234255      1203.6753 

                    ********************************
                    * MULLIKEN POPULATION ANALYSIS *
                    ********************************

-----------------------
MULLIKEN ATOMIC CHARGES
-----------------------
   0 C :    0.145562
   1 C :   -0.224577
   2 C :   -0.212375
   3 H :    0.160253
   4 H :    0.157110
   5 C :   -0.250834
   6 C :   -0.256684
   7 H :    0.161056
   8 H :    0.146935
   9 C :    0.288173
  10 O :   -0.422966
  11 H :    0.370917
  12 C :    0.201371
  13 C :   -0.205769
  14 C :   -0.205781
  15 C :   -0.199002
  16 C :   -0.199226
  17 C :    0.118878
  18 H :    0.163822
  19 H :    0.163752
  20 H :    0.172157
  21 H :    0.171973
  22 N :    0.481177
  23 O :   -0.363139
  24 O :   -0.362784
Sum of atomic charges:    0.0000000

--------------------------------
MULLIKEN REDUCED ORBITAL CHARGES
--------------------------------
  0 C s       :     3.198104  s :     3.198104
      pz      :     0.690468  p :     2.508045
      px      :     0.988423
      py      :     0.829154
      dz2     :     0.032973  d :     0.138435
      dxz     :     0.023449
      dyz     :     0.042479
      dx2y2   :     0.016917
      dxy     :     0.022618
      f0      :     0.001292  f :     0.009855
      f+1     :     0.001022
      f-1     :     0.003317
      f+2     :     0.000902
      f-2     :     0.001085
      f+3     :     0.001446
      f-3     :     0.000791
  1 C s       :     3.219372  s :     3.219372
      pz      :     0.981427  p :     2.899954
      px      :     0.940559
      py      :     0.977968
      dz2     :     0.018402  d :     0.097814
      dxz     :     0.022681
      dyz     :     0.037135
      dx2y2   :     0.008986
      dxy     :     0.010610
      f0      :     0.000861  f :     0.007437
      f+1     :     0.001527
      f-1     :     0.002186
      f+2     :     0.000770
      f-2     :     0.000437
      f+3     :     0.000991
      f-3     :     0.000665
  2 C s       :     3.222411  s :     3.222411
      pz      :     0.957521  p :     2.884686
      px      :     0.940901
      py      :     0.986264
      dz2     :     0.021015  d :     0.097906
      dxz     :     0.023730
      dyz     :     0.035049
      dx2y2   :     0.009141
      dxy     :     0.008971
      f0      :     0.000913  f :     0.007373
      f+1     :     0.001499
      f-1     :     0.002158
      f+2     :     0.000707
      f-2     :     0.000575
      f+3     :     0.000847
      f-3     :     0.000674
  3 H s       :     0.817309  s :     0.817309
      pz      :     0.006635  p :     0.022438
      px      :     0.004636
      py      :     0.011167
  4 H s       :     0.820500  s :     0.820500
      pz      :     0.005826  p :     0.022390
      px      :     0.004624
      py      :     0.011940
  5 C s       :     3.235461  s :     3.235461
      pz      :     0.929354  p :     2.923860
      px      :     1.032714
      py      :     0.961792
      dz2     :     0.016993  d :     0.084307
      dxz     :     0.017958
      dyz     :     0.031445
      dx2y2   :     0.009366
      dxy     :     0.008544
      f0      :     0.000867  f :     0.007206
      f+1     :     0.001466
      f-1     :     0.002049
      f+2     :     0.000765
[...]
     52      -0.000006   0.000044  -0.000063   0.000090   0.000121  -0.000045
     53       0.000042  -0.000008  -0.000036   0.000075   0.000100   0.000386
     54      -0.022321   0.003258  -0.128550  -0.036605   0.205305  -0.342012
     55      -0.038896   0.005638  -0.227354  -0.065380   0.366260  -0.610996
     56      -0.023175   0.003703  -0.135003  -0.038248   0.218359  -0.363450
     57       0.001692   0.079473  -0.010221   0.273192   0.268731   0.131543
     58       0.002913   0.136657  -0.017544   0.475445   0.469204   0.230208
     59      -0.001890  -0.095723   0.012786  -0.333925  -0.330646  -0.161473
     60       0.002821  -0.000083   0.021765   0.011802  -0.039650   0.081701
     61       0.005247   0.000032   0.039258   0.021283  -0.070907   0.146145
     62      -0.003606  -0.000086  -0.027535  -0.015125   0.050125  -0.103308
     63      -0.000254  -0.011831   0.000824  -0.057940  -0.060311  -0.040808
     64      -0.000605  -0.022144   0.001337  -0.107222  -0.111320  -0.075406
     65      -0.000338  -0.013020   0.000661  -0.063901  -0.066500  -0.045128
     66       0.000001   0.000004  -0.000012   0.000050   0.000121  -0.000050
     67      -0.000007   0.000030  -0.000059   0.000126   0.000271  -0.000118
     68      -0.000055  -0.000004   0.000052   0.000031  -0.000066  -0.000112
     69      -0.000001   0.000002   0.000027   0.000007  -0.000051   0.000049
     70      -0.000005  -0.000007   0.000051  -0.000003  -0.000105   0.000089
     71       0.000022   0.000007   0.000016   0.000006  -0.000038   0.000133
     72       0.000005  -0.000012  -0.000002  -0.000051  -0.000050  -0.000005
     73       0.000013  -0.000020   0.000003  -0.000090  -0.000096   0.000008
     74       0.000020   0.000019  -0.000010   0.000066   0.000094   0.000076
                 72         73         74    
      0       0.000032  -0.000030   0.000003
      1       0.000079  -0.000078   0.000046
      2       0.000076   0.000081   0.000302
      3       0.000027   0.000119  -0.000017
      4      -0.000331  -0.001220  -0.000149
      5       0.000211   0.000747  -0.000262
      6      -0.000127  -0.000032   0.000029
      7       0.001510   0.000425  -0.000065
      8       0.000766   0.000227  -0.000198
      9      -0.000270  -0.000960   0.000012
     10       0.003398   0.014261  -0.000580
     11      -0.002123  -0.008999   0.000869
     12       0.001058   0.000302  -0.000039
     13      -0.017696  -0.004498   0.000712
     14      -0.009052  -0.002303   0.000251
     15       0.000007   0.000022  -0.000015
     16      -0.000122  -0.000209   0.000618
     17      -0.000067  -0.000143   0.000986
     18      -0.000033  -0.000013  -0.000035
     19       0.000333   0.000172   0.000746
     20      -0.000264  -0.000121   0.000712
     21      -0.000083  -0.000128   0.000453
     22       0.001380   0.002292  -0.004038
     23       0.000776   0.001243  -0.003134
     24       0.000258   0.000135  -0.000075
     25      -0.003739  -0.001968   0.000266
     26       0.002468   0.001333   0.000072
     27       0.000003  -0.000003   0.000137
     28      -0.000019   0.000007  -0.002141
     29      -0.000054  -0.000053  -0.000718
     30       0.000000  -0.000001   0.003232
     31      -0.000005  -0.000009  -0.057894
     32       0.000022   0.000022  -0.022379
     33      -0.000001  -0.000002  -0.052722
     34       0.000113   0.000126   0.933705
     35       0.000054   0.000061   0.348592
     36      -0.000427   0.000401  -0.000000
     37      -0.000829   0.000728  -0.000013
     38      -0.000820  -0.000942  -0.000258
     39      -0.000674  -0.008374  -0.000009
     40      -0.001195  -0.014969  -0.000036
     41      -0.000315  -0.012638   0.000111
     42       0.007916   0.001076   0.000009
     43       0.013668   0.001876   0.000046
     44      -0.013517  -0.001134   0.000106
     45       0.001029  -0.035302  -0.000006
     46       0.001802  -0.063145  -0.000024
     47      -0.001895   0.045853  -0.000069
     48       0.035875   0.001098   0.000003
     49       0.066319   0.002045   0.000021
     50       0.040838   0.000694  -0.000070
     51      -0.001413   0.001368   0.000000
     52      -0.002595   0.002579   0.000007
     53       0.002056   0.001975   0.000140
     54       0.006353   0.096076   0.000006
     55       0.011440   0.171659   0.000022
     56       0.006580   0.104909  -0.000080
     57      -0.091497  -0.010938   0.000001
     58      -0.159538  -0.019191  -0.000032
     59       0.115090   0.013420  -0.000066
     60      -0.014000   0.400638  -0.000049
     61      -0.025041   0.715342  -0.000020
     62       0.018335  -0.518337   0.000078
     63      -0.407289  -0.010229   0.000045
     64      -0.751496  -0.018779   0.000027
     65      -0.461168  -0.011344   0.000071
     66       0.000597  -0.000552  -0.000004
     67       0.001068  -0.000981  -0.000002
     68       0.000429   0.000535  -0.000149
     69      -0.000040   0.000328  -0.000021
     70      -0.000077   0.000596  -0.000027
     71      -0.000225   0.000250   0.000043
     72      -0.000327   0.000018   0.000017
     73      -0.000577   0.000030   0.000035
     74       0.000276  -0.000213   0.000040


-----------
IR SPECTRUM
-----------

 Mode   freq       eps      Int      T**2         TX        TY        TZ
       cm**-1   L/(mol*cm) km/mol    a.u.
----------------------------------------------------------------------------
  6:     44.52   0.000182    0.92  0.001274  (-0.030935  0.001122 -0.017763)
  7:     46.75   0.000192    0.97  0.001284  (-0.029512  0.018213  0.009035)
  8:     74.60   0.000508    2.56  0.002123  ( 0.022401  0.008132  0.039436)
  9:     81.25   0.000309    1.56  0.001185  (-0.016111  0.030194  0.003768)
 10:    141.30   0.000673    3.40  0.001486  (-0.037857  0.000579 -0.007244)
 11:    218.46   0.000548    2.77  0.000782  (-0.009922  0.024819 -0.008234)
 12:    237.07   0.000285    1.44  0.000376  ( 0.001443  0.000379  0.019321)
 13:    261.68   0.000422    2.13  0.000503  (-0.019006 -0.008940  0.007866)
 14:    346.14   0.000413    2.09  0.000372  ( 0.003531 -0.002106 -0.018849)
 15:    393.17   0.035213  177.95  0.027949  ( 0.166740  0.009453 -0.007544)
 16:    398.66   0.001712    8.65  0.001340  (-0.018313  0.003108  0.031549)
 17:    419.71   0.000106    0.54  0.000079  (-0.008846 -0.000929  0.000192)
 18:    426.89   0.001910    9.65  0.001396  ( 0.016902  0.001871  0.033272)
 19:    453.55   0.002485   12.56  0.001710  ( 0.013327 -0.008160 -0.038287)
 20:    457.44   0.004339   21.93  0.002960  (-0.004886  0.000133 -0.054184)
 21:    507.79   0.005748   29.05  0.003533  ( 0.057791 -0.009738  0.009898)
 22:    548.66   0.000863    4.36  0.000491  ( 0.002823 -0.021645  0.003784)
 23:    556.47   0.002259   11.42  0.001267  ( 0.030537  0.018283  0.000083)
 24:    623.53   0.002237   11.31  0.001120  (-0.000965 -0.000186 -0.033446)
 25:    639.20   0.000252    1.27  0.000123  (-0.002342  0.009851 -0.004529)
 26:    654.49   0.000208    1.05  0.000099  ( 0.004203 -0.004780  0.007664)
 27:    726.19   0.002343   11.84  0.001007  ( 0.022811 -0.021887  0.002701)
 28:    749.37   0.004864   24.58  0.002025  ( 0.039359 -0.021815 -0.000585)
 29:    754.11   0.005661   28.61  0.002343  (-0.000353 -0.000994 -0.048388)
 30:    796.88   0.013329   67.36  0.005220  ( 0.068179 -0.023863 -0.001382)
 31:    831.75   0.001033    5.22  0.000387  (-0.015010 -0.000749  0.012714)
 32:    845.10   0.000010    0.05  0.000004  (-0.000941 -0.000005  0.001630)
 33:    856.07   0.001413    7.14  0.000515  ( 0.015146 -0.001567 -0.016832)
 34:    856.41   0.022324  112.81  0.008134  (-0.090088  0.000492 -0.004266)
 35:    890.47   0.019313   97.60  0.006768  (-0.000337 -0.003613 -0.082189)
 36:    894.78   0.003931   19.86  0.001371  (-0.020177  0.031036 -0.000696)
 37:    973.33   0.000148    0.75  0.000047  (-0.000306 -0.005966  0.003419)
 38:    983.19   0.000629    3.18  0.000200  (-0.000380  0.001853  0.014005)
 39:    999.98   0.000032    0.16  0.000010  ( 0.001336  0.000560  0.002829)
 40:   1002.25   0.000034    0.17  0.000010  (-0.002907 -0.001375 -0.000300)
 41:   1022.55   0.001058    5.34  0.000323  (-0.000045  0.001838  0.017871)
 42:   1032.75   0.000017    0.08  0.000005  (-0.000121  0.001071  0.001968)
 43:   1055.15   0.000176    0.89  0.000052  ( 0.000397  0.000727  0.007161)
 44:   1130.69   0.000830    4.19  0.000229  (-0.009896  0.006525  0.009405)
 45:   1137.94   0.007150   36.13  0.001961  ( 0.010493  0.040596  0.014231)
 46:   1139.52   0.074494  376.46  0.020401  ( 0.000526  0.003481  0.142787)
 47:   1191.02   0.045281  228.83  0.011864  (-0.000596 -0.006995 -0.108696)
 48:   1199.51   0.047070  237.87  0.012246  ( 0.000895 -0.008400  0.110338)
 49:   1215.02   0.001790    9.05  0.000460  (-0.000143 -0.004590 -0.020945)
 50:   1313.10   0.049114  248.20  0.011672  ( 0.000354 -0.012684 -0.107289)
 51:   1315.92   0.007333   37.06  0.001739  (-0.002644  0.008648 -0.040709)
 52:   1326.65   0.054807  276.97  0.012892  (-0.001472 -0.002051 -0.113515)
 53:   1333.75   0.005249   26.53  0.001228  ( 0.003616 -0.007206 -0.034104)
 54:   1381.02   0.006558   33.14  0.001482  (-0.017534 -0.034264 -0.000600)
 55:   1387.14   0.007656   38.69  0.001722  (-0.000317  0.000630  0.041497)
 56:   1399.91   0.306815  1550.52  0.068394  ( 0.001869  0.008798  0.261368)
 57:   1446.46   0.001260    6.37  0.000272  (-0.006520 -0.014308 -0.004957)
 58:   1484.29   0.005874   29.68  0.001235  (-0.003524 -0.011528 -0.033010)
 59:   1527.09   0.026757  135.22  0.005468  (-0.000232  0.001806  0.073922)
 60:   1567.49   0.018308   92.52  0.003645  ( 0.002165  0.002328 -0.060289)
 61:   1591.54   0.101516  513.02  0.019905  ( 0.070338  0.122209 -0.004736)
 62:   1643.37   0.020306  102.62  0.003856  ( 0.020578  0.017882  0.055793)
 63:   1652.04   0.092333  466.61  0.017441  ( 0.008382  0.004430 -0.131725)
 64:   1660.15   0.024147  122.03  0.004539  (-0.029422 -0.060594 -0.001305)
 65:   1674.50   0.015666   79.17  0.002920  (-0.001381 -0.010075 -0.053068)
 66:   3188.80   0.002755   13.92  0.000270  ( 0.000399  0.002035  0.016289)
 67:   3198.51   0.001132    5.72  0.000110  (-0.001180  0.003105  0.009971)
 68:   3206.89   0.000432    2.18  0.000042  ( 0.001972 -0.006173  0.000080)
 69:   3212.04   0.000231    1.17  0.000022  (-0.002112  0.001959 -0.003764)
 70:   3215.86   0.001392    7.04  0.000135  (-0.003003 -0.010332  0.004397)
 71:   3216.32   0.000646    3.27  0.000063  ( 0.001645  0.001668  0.007564)
 72:   3242.14   0.000531    2.68  0.000051  (-0.002412 -0.004257 -0.005215)
 73:   3243.16   0.000564    2.85  0.000054  ( 0.002108  0.003708 -0.006006)
 74:   3815.11   0.053439  270.06  0.004371  (-0.002047  0.039309  0.053120)

* The epsilon (eps) is given for a Dirac delta lineshape.
** The dipole moment derivative (T) already includes vibrational overlap.

The first frequency considered to be a vibration is 6
The total number of vibrations considered is 69


--------------------------
THERMOCHEMISTRY AT 298.15K
--------------------------

Temperature         ... 298.15 K
Pressure            ... 1.00 atm
Total Mass          ... 215.21 AMU

Throughout the following assumptions are being made:
  (1) The electronic state is orbitally nondegenerate
  (2) There are no thermally accessible electronically excited states
  (3) Hindered rotations indicated by low frequency modes are not
      treated as such but are treated as vibrations and this may
      cause some error
  (4) All equations used are the standard statistical mechanics
      equations for an ideal gas
  (5) All vibrations are strictly harmonic

freq.      44.52  E(vib)   ...       0.53 
freq.      46.75  E(vib)   ...       0.53 
freq.      74.60  E(vib)   ...       0.49 
freq.      81.25  E(vib)   ...       0.48 
freq.     141.30  E(vib)   ...       0.41 
freq.     218.46  E(vib)   ...       0.33 
freq.     237.07  E(vib)   ...       0.32 
freq.     261.68  E(vib)   ...       0.30 
freq.     346.14  E(vib)   ...       0.23 
freq.     393.17  E(vib)   ...       0.20 
freq.     398.66  E(vib)   ...       0.19 
freq.     419.71  E(vib)   ...       0.18 
freq.     426.89  E(vib)   ...       0.18 
freq.     453.55  E(vib)   ...       0.16 
freq.     457.44  E(vib)   ...       0.16 
freq.     507.79  E(vib)   ...       0.14 
freq.     548.66  E(vib)   ...       0.12 
freq.     556.47  E(vib)   ...       0.12 
freq.     623.53  E(vib)   ...       0.09 
freq.     639.20  E(vib)   ...       0.09 
freq.     654.49  E(vib)   ...       0.08 
freq.     726.19  E(vib)   ...       0.06 
freq.     749.37  E(vib)   ...       0.06 
freq.     754.11  E(vib)   ...       0.06 
freq.     796.88  E(vib)   ...       0.05 
freq.     831.75  E(vib)   ...       0.04 
freq.     845.10  E(vib)   ...       0.04 
freq.     856.07  E(vib)   ...       0.04 
freq.     856.41  E(vib)   ...       0.04 
freq.     890.47  E(vib)   ...       0.04 
freq.     894.78  E(vib)   ...       0.03 
freq.     973.33  E(vib)   ...       0.03 
freq.     983.19  E(vib)   ...       0.02 
freq.     999.98  E(vib)   ...       0.02 
freq.    1002.25  E(vib)   ...       0.02 
freq.    1022.55  E(vib)   ...       0.02 
freq.    1032.75  E(vib)   ...       0.02 
freq.    1055.15  E(vib)   ...       0.02 
freq.    1130.69  E(vib)   ...       0.01 
freq.    1137.94  E(vib)   ...       0.01 
freq.    1139.52  E(vib)   ...       0.01 
freq.    1191.02  E(vib)   ...       0.01 
freq.    1199.51  E(vib)   ...       0.01 
freq.    1215.02  E(vib)   ...       0.01 
freq.    1313.10  E(vib)   ...       0.01 
freq.    1315.92  E(vib)   ...       0.01 
freq.    1326.65  E(vib)   ...       0.01 
freq.    1333.75  E(vib)   ...       0.01 
freq.    1381.02  E(vib)   ...       0.01 
freq.    1387.14  E(vib)   ...       0.00 
freq.    1399.91  E(vib)   ...       0.00 
freq.    1446.46  E(vib)   ...       0.00 
freq.    1484.29  E(vib)   ...       0.00 
freq.    1527.09  E(vib)   ...       0.00 
freq.    1567.49  E(vib)   ...       0.00 
freq.    1591.54  E(vib)   ...       0.00 
freq.    1643.37  E(vib)   ...       0.00 
freq.    1652.04  E(vib)   ...       0.00 
freq.    1660.15  E(vib)   ...       0.00 
freq.    1674.50  E(vib)   ...       0.00 
freq.    3188.80  E(vib)   ...       0.00 
freq.    3198.51  E(vib)   ...       0.00 
freq.    3206.89  E(vib)   ...       0.00 
freq.    3212.04  E(vib)   ...       0.00 
freq.    3215.86  E(vib)   ...       0.00 
freq.    3216.32  E(vib)   ...       0.00 
freq.    3242.14  E(vib)   ...       0.00 
freq.    3243.16  E(vib)   ...       0.00 
freq.    3815.11  E(vib)   ...       0.00 

------------
INNER ENERGY
------------

The inner energy is: U= E(el) + E(ZPE) + E(vib) + E(rot) + E(trans)
    E(el)   - is the total energy from the electronic structure calculation
              = E(kin-el) + E(nuc-el) + E(el-el) + E(nuc-nuc)
    E(ZPE)  - the the zero temperature vibrational energy from the frequency calculation
    E(vib)  - the the finite temperature correction to E(ZPE) due to population
              of excited vibrational states
    E(rot)  - is the rotational thermal energy
    E(trans)- is the translational thermal energy

Summary of contributions to the inner energy U:
Electronic energy                ...   -742.52199341 Eh
Zero point energy                ...      0.18922139 Eh     118.74 kcal/mol
Thermal vibrational correction   ...      0.00971449 Eh       6.10 kcal/mol
Thermal rotational correction    ...      0.00141627 Eh       0.89 kcal/mol
Thermal translational correction ...      0.00141627 Eh       0.89 kcal/mol
-----------------------------------------------------------------------
Total thermal energy                   -742.32022499 Eh


Summary of corrections to the electronic energy:
(perhaps to be used in another calculation)
Total thermal correction                  0.01254703 Eh       7.87 kcal/mol
Non-thermal (ZPE) correction              0.18922139 Eh     118.74 kcal/mol
-----------------------------------------------------------------------
Total correction                          0.20176842 Eh     126.61 kcal/mol


--------
ENTHALPY
--------

The enthalpy is H = U + kB*T
                kB is Boltzmann's constant
Total free energy                 ...   -742.32022499 Eh 
Thermal Enthalpy correction       ...      0.00094421 Eh       0.59 kcal/mol
-----------------------------------------------------------------------
Total Enthalpy                    ...   -742.31928078 Eh


Note: Only C1 symmetry has been detected, increase convergence thresholds 
      if your molecule has a higher symmetry. Symmetry factor of 1.0 is   
      used for the rotational entropy correction. 
 

Note: Rotational entropy computed according to Herzberg 
Infrared and Raman Spectra, Chapter V,1, Van Nostrand Reinhold, 1945 
Point Group:  C1, Symmetry Number:   1  
Rotational constants in cm-1:     0.078878     0.006806     0.006341 

Vibrational entropy computed according to the QRRHO of S. Grimme
Chem.Eur.J. 2012 18 9955


-------
ENTROPY
-------

The entropy contributions are T*S = T*(S(el)+S(vib)+S(rot)+S(trans))
     S(el)   - electronic entropy
     S(vib)  - vibrational entropy
     S(rot)  - rotational entropy
     S(trans)- translational entropy
The entropies will be listed as multiplied by the temperature to get
units of energy

Electronic entropy                ...      0.00000000 Eh      0.00 kcal/mol
Vibrational entropy               ...      0.01649174 Eh     10.35 kcal/mol
Rotational entropy                ...      0.01545470 Eh      9.70 kcal/mol
Translational entropy             ...      0.01995672 Eh     12.52 kcal/mol
-----------------------------------------------------------------------
Final entropy term                ...      0.05190316 Eh     32.57 kcal/mol

In case the symmetry of your molecule has not been determined correctly
or in case you have a reason to use a different symmetry number we print 
out the resulting rotational entropy values for sn=1,12 :
 --------------------------------------------------------
|  sn= 1 | S(rot)=       0.01545470 Eh      9.70 kcal/mol|
|  sn= 2 | S(rot)=       0.01480025 Eh      9.29 kcal/mol|
|  sn= 3 | S(rot)=       0.01441742 Eh      9.05 kcal/mol|
|  sn= 4 | S(rot)=       0.01414579 Eh      8.88 kcal/mol|
|  sn= 5 | S(rot)=       0.01393510 Eh      8.74 kcal/mol|
|  sn= 6 | S(rot)=       0.01376296 Eh      8.64 kcal/mol|
|  sn= 7 | S(rot)=       0.01361741 Eh      8.55 kcal/mol|
|  sn= 8 | S(rot)=       0.01349134 Eh      8.47 kcal/mol|
|  sn= 9 | S(rot)=       0.01338013 Eh      8.40 kcal/mol|
|  sn=10 | S(rot)=       0.01328065 Eh      8.33 kcal/mol|
|  sn=11 | S(rot)=       0.01319066 Eh      8.28 kcal/mol|
|  sn=12 | S(rot)=       0.01310850 Eh      8.23 kcal/mol|
 --------------------------------------------------------


-------------------
GIBBS FREE ENERGY
-------------------

The Gibbs free energy is G = H - T*S

Total enthalpy                    ...   -742.31928078 Eh 
Total entropy correction          ...     -0.05190316 Eh    -32.57 kcal/mol
-----------------------------------------------------------------------
Final Gibbs free energy         ...   -742.37118395 Eh

For completeness - the Gibbs free energy minus the electronic energy
G-E(el)                           ...      0.15080946 Eh     94.63 kcal/mol


Timings for individual modules:

Sum of individual times         ...      773.929 sec (=  12.899 min)
GTO integral calculation        ...        5.625 sec (=   0.094 min)   0.7 %
SCF iterations                  ...      135.503 sec (=   2.258 min)  17.5 %
SCF Gradient evaluation         ...       23.738 sec (=   0.396 min)   3.1 %
Geometry relaxation             ...        0.278 sec (=   0.005 min)   0.0 %
Analytical frequency calculation...      608.786 sec (=  10.146 min)  78.7 %
                             ****ORCA TERMINATED NORMALLY****
TOTAL RUN TIME: 0 days 0 hours 13 minutes 3 seconds 290 msec
