
                                 *****************
                                 * O   R   C   A *
                                 *****************

                                            #,                                       
                                            ###                                      
                                            ####                                     
                                            #####                                    
                                            ######                                   
                                           ########,                                 
                                     ,,################,,,,,                         
                               ,,#################################,,                 
                          ,,##########################################,,             
                       ,#########################################, ''#####,          
                    ,#############################################,,   '####,        
                  ,##################################################,,,,####,       
                ,###########''''           ''''###############################       
              ,#####''   ,,,,##########,,,,          '''####'''          '####       
            ,##' ,,,,###########################,,,                        '##       
           ' ,,###''''                  '''############,,,                           
         ,,##''                                '''############,,,,        ,,,,,,###''
      ,#''                                            '''#######################'''  
     '                                                          ''''####''''         
             ,#######,   #######,   ,#######,      ##                                
            ,#'     '#,  ##    ##  ,#'     '#,    #''#        ######   ,####,        
            ##       ##  ##   ,#'  ##            #'  '#       #        #'  '#        
            ##       ##  #######   ##           ,######,      #####,   #    #        
            '#,     ,#'  ##    ##  '#,     ,#' ,#      #,         ##   #,  ,#        
             '#######'   ##     ##  '#######'  #'      '#     #####' # '####'        



                  #######################################################
                  #                        -***-                        #
                  #          Department of theory and spectroscopy      #
                  #    Directorship and core code : Frank Neese         #
                  #        Max Planck Institute fuer Kohlenforschung    #
                  #                Kaiser Wilhelm Platz 1               #
                  #                 D-45470 Muelheim/Ruhr               #
                  #                      Germany                        #
                  #                                                     #
                  #                  All rights reserved                #
                  #                        -***-                        #
                  #######################################################


                         Program Version 5.0.4 -  RELEASE  -


 With contributions from (in alphabetic order):
   Daniel Aravena         : Magnetic Suceptibility
   Michael Atanasov       : Ab Initio Ligand Field Theory (pilot matlab implementation)
   Alexander A. Auer      : GIAO ZORA, VPT2 properties, NMR spectrum
   Ute Becker             : Parallelization
   Giovanni Bistoni       : ED, misc. LED, open-shell LED, HFLD
   Martin Brehm           : Molecular dynamics
   Dmytro Bykov           : SCF Hessian
   Vijay G. Chilkuri      : MRCI spin determinant printing, contributions to CSF-ICE
   Dipayan Datta          : RHF DLPNO-CCSD density
   Achintya Kumar Dutta   : EOM-CC, STEOM-CC
   Dmitry Ganyushin       : Spin-Orbit,Spin-Spin,Magnetic field MRCI
   Miquel Garcia          : C-PCM and meta-GGA Hessian, CC/C-PCM, Gaussian charge scheme
   Yang Guo               : DLPNO-NEVPT2, F12-NEVPT2, CIM, IAO-localization
   Andreas Hansen         : Spin unrestricted coupled pair/coupled cluster methods
   Benjamin Helmich-Paris : MC-RPA, TRAH-SCF, COSX integrals
   Lee Huntington         : MR-EOM, pCC
   Robert Izsak           : Overlap fitted RIJCOSX, COSX-SCS-MP3, EOM
   Marcus Kettner         : VPT2
   Christian Kollmar      : KDIIS, OOCD, Brueckner-CCSD(T), CCSD density, CASPT2, CASPT2-K
   Simone Kossmann        : Meta GGA functionals, TD-DFT gradient, OOMP2, MP2 Hessian
   Martin Krupicka        : Initial AUTO-CI
   Lucas Lang             : DCDCAS
   Marvin Lechner         : AUTO-CI (C++ implementation), FIC-MRCC
   Dagmar Lenk            : GEPOL surface, SMD
   Dimitrios Liakos       : Extrapolation schemes; Compound Job, initial MDCI parallelization
   Dimitrios Manganas     : Further ROCIS development; embedding schemes
   Dimitrios Pantazis     : SARC Basis sets
   Anastasios Papadopoulos: AUTO-CI, single reference methods and gradients
   Taras Petrenko         : DFT Hessian,TD-DFT gradient, ASA, ECA, R-Raman, ABS, FL, XAS/XES, NRVS
   Peter Pinski           : DLPNO-MP2, DLPNO-MP2 Gradient
   Christoph Reimann      : Effective Core Potentials
   Marius Retegan         : Local ZFS, SOC
   Christoph Riplinger    : Optimizer, TS searches, QM/MM, DLPNO-CCSD(T), (RO)-DLPNO pert. Triples
   Tobias Risthaus        : Range-separated hybrids, TD-DFT gradient, RPA, STAB
   Michael Roemelt        : Original ROCIS implementation
   Masaaki Saitow         : Open-shell DLPNO-CCSD energy and density
   Barbara Sandhoefer     : DKH picture change effects
   Avijit Sen             : IP-ROCIS
   Kantharuban Sivalingam : CASSCF convergence, NEVPT2, FIC-MRCI
   Bernardo de Souza      : ESD, SOC TD-DFT
   Georgi Stoychev        : AutoAux, RI-MP2 NMR, DLPNO-MP2 response
   Willem Van den Heuvel  : Paramagnetic NMR
   Boris Wezisla          : Elementary symmetry handling
   Frank Wennmohs         : Technical directorship


 We gratefully acknowledge several colleagues who have allowed us to
 interface, adapt or use parts of their codes:
   Stefan Grimme, W. Hujo, H. Kruse, P. Pracht,  : VdW corrections, initial TS optimization,
                  C. Bannwarth, S. Ehlert          DFT functionals, gCP, sTDA/sTD-DF
   Ed Valeev, F. Pavosevic, A. Kumar             : LibInt (2-el integral package), F12 methods
   Garnet Chan, S. Sharma, J. Yang, R. Olivares  : DMRG
   Ulf Ekstrom                                   : XCFun DFT Library
   Mihaly Kallay                                 : mrcc  (arbitrary order and MRCC methods)
   Jiri Pittner, Ondrej Demel                    : Mk-CCSD
   Frank Weinhold                                : gennbo (NPA and NBO analysis)
   Christopher J. Cramer and Donald G. Truhlar   : smd solvation model
   Lars Goerigk                                  : TD-DFT with DH, B97 family of functionals
   V. Asgeirsson, H. Jonsson                     : NEB implementation
   FAccTs GmbH                                   : IRC, NEB, NEB-TS, DLPNO-Multilevel, CI-OPT
                                                   MM, QMMM, 2- and 3-layer-ONIOM, Crystal-QMMM,
                                                   LR-CPCM, SF, NACMEs, symmetry and pop. for TD-DFT,
                                                   nearIR, NL-DFT gradient (VV10), updates on ESD,
                                                   ML-optimized integration grids
   S Lehtola, MJT Oliveira, MAL Marques          : LibXC Library
   Liviu Ungur et al                             : ANISO software


 Your calculation uses the libint2 library for the computation of 2-el integrals
 For citations please refer to: http://libint.valeyev.net

 Your ORCA version has been built with support for libXC version: 5.1.0
 For citations please refer to: https://tddft.org/programs/libxc/

 This ORCA versions uses:
   CBLAS   interface :  Fast vector & matrix operations
   LAPACKE interface :  Fast linear algebra routines
   SCALAPACK package :  Parallel linear algebra routines
   Shared memory     :  Shared parallel matrices
   BLAS/LAPACK       :  OpenBLAS 0.3.15  USE64BITINT DYNAMIC_ARCH NO_AFFINITY Haswell SINGLE_THREADED
        Core in use  :  Haswell
   Copyright (c) 2011-2014, The OpenBLAS Project


Your calculation utilizes the atom-pairwise dispersion correction
with the Becke-Johnson damping scheme (D3BJ)
Cite in your paper:
S.Grimme, S.Ehrlich, L.Goerigk, J Comput Chem, (2011), 32, 1456–1465 
S.Grimme, J.Antony, S.Ehrlich and H.Krieg, J.Chem.Phys., 132, (2010), 154104 
   

================================================================================

----- Orbital basis set information -----
Your calculation utilizes the basis: def2-TZVP
   F. Weigend and R. Ahlrichs, Phys. Chem. Chem. Phys. 7, 3297 (2005).

----- AuxJ basis set information -----
Your calculation utilizes the auxiliary basis: def2/J
   F. Weigend, Phys. Chem. Chem. Phys. 8, 1057 (2006).

================================================================================
                                        WARNINGS
                       Please study these warnings very carefully!
================================================================================


WARNING: Geometry Optimization
  ===> : Switching off AutoStart
         For restart on a previous wavefunction, please use MOREAD

INFO   : the flag for use of the SHARK integral package has been found!

================================================================================
                                       INPUT FILE
================================================================================
NAME = 4-OMePh-PhenOH/4-OMePh-PhenOH.inp
|  1> %pal nprocs 24 end
|  2> %maxcore 3500
|  3> ! PBE0 D3BJ def2-TZVP TightSCF OPT FREQ TightOpt
|  4> ! CPCM(dmso)
|  5> %scf
|  6> MaxIter 800
|  7> end
|  8> %geom
|  9> MaxIter 800
| 10> MaxStep 0.2
| 11> end
| 12> *xyz 0 1
| 13> 
| 14> C       0.10337100     -0.48846700     -1.61535400
| 15> C      -0.40861100      0.61204700     -0.92705200
| 16> C       0.48096300     -1.60138300     -0.85998100
| 17> H      -0.73329200      1.48741900     -1.47841500
| 18> H       0.90047200     -2.46903500     -1.35726600
| 19> C      -0.53702000      0.60964500      0.45167200
| 20> C       0.35722700     -1.61892800      0.51800900
| 21> H      -0.94560300      1.47475100      0.96486300
| 22> H       0.66380700     -2.48685300      1.09083800
| 23> C      -0.15110400     -0.50818600      1.18307000
| 24> O      -0.24869800     -0.56481600      2.53370900
| 25> H      -0.60422600      0.26663600      2.86860400
| 26> C       0.24254800     -0.47277200     -3.08170000
| 27> C       0.54451400      0.70857400     -3.76793300
| 28> C       0.07907400     -1.62863300     -3.84060300
| 29> C       0.67424100      0.73156300     -5.14145400
| 30> C       0.20752200     -1.62475700     -5.22312000
| 31> C       0.50589700     -0.43714200     -5.88370200
| 32> H       0.70029900      1.62721200     -3.21317900
| 33> H      -0.17451200     -2.56142500     -3.34889500
| 34> H       0.91747900      1.65174800     -5.66074500
| 35> H       0.06326400     -2.54637500     -5.77120200
| 36> O       0.64917800     -0.32181000     -7.22276100
| 37> C       0.50791100     -1.49268300     -8.00388500
| 38> H       1.25044200     -2.24633000     -7.72478200
| 39> H      -0.49463900     -1.91894100     -7.90284100
| 40> H       0.66967400     -1.18930800     -9.03643200
| 41> *
| 42> 
| 43>                          ****END OF INPUT****
================================================================================

                       *****************************
                       * Geometry Optimization Run *
                       *****************************

Geometry optimization settings:
Update method            Update   .... BFGS
Choice of coordinates    CoordSys .... Z-matrix Internals
Initial Hessian          InHess   .... Almoef's Model

Convergence Tolerances:
Energy Change            TolE     ....  1.0000e-06 Eh
Max. Gradient            TolMAXG  ....  1.0000e-04 Eh/bohr
RMS Gradient             TolRMSG  ....  3.0000e-05 Eh/bohr
Max. Displacement        TolMAXD  ....  1.0000e-03 bohr
RMS Displacement         TolRMSD  ....  6.0000e-04 bohr
Strict Convergence                ....  False
------------------------------------------------------------------------------
                        ORCA OPTIMIZATION COORDINATE SETUP
------------------------------------------------------------------------------

The optimization will be done in new redundant internal coordinates
Making redundant internal coordinates   ...  (new redundants) done
Evaluating the initial hessian          ...  (Almloef) done
Evaluating the coordinates              ...  done
Calculating the B-matrix                .... done
Calculating the G-matrix                .... done
Diagonalizing the G-matrix              .... done
Small eigenvalue found = 6.864e-03
Small eigenvalue found = 1.849e-02
Small eigenvalue found = 2.586e-02
The first mode is                       ....   56
The number of degrees of freedom        ....   75

    -----------------------------------------------------------------
                    Redundant Internal Coordinates


    -----------------------------------------------------------------
         Definition                    Initial Value    Approx d2E/dq
    -----------------------------------------------------------------
      1. B(C   1,C   0)                  1.3954         0.612625   
      2. B(C   2,C   0)                  1.3970         0.608825   
      3. B(H   3,C   1)                  1.0843         0.367727   
      4. B(H   4,C   2)                  1.0845         0.367475   
      5. B(C   5,C   1)                  1.3847         0.637097   
      6. B(C   6,C   2)                  1.3836         0.639553   
      7. B(H   7,C   5)                  1.0857         0.365853   
      8. B(H   8,C   6)                  1.0842         0.367900   
      9. B(C   9,C   6)                  1.3908         0.622856   
     10. B(C   9,C   5)                  1.3905         0.623707   
     11. B(O  10,C   9)                  1.3553         0.635575   
     12. B(H  11,O  10)                  0.9643         0.511814   
     13. B(C  12,C   0)                  1.4730         0.460560   
     14. B(C  13,C  12)                  1.3992         0.604099   
     15. B(C  14,C  12)                  1.3924         0.619398   
     16. B(C  15,C  13)                  1.3798         0.648592   
     17. B(C  16,C  14)                  1.3885         0.628303   
     18. B(C  17,C  16)                  1.3913         0.621729   
     19. B(C  17,C  15)                  1.3947         0.614138   
     20. B(H  18,C  13)                  1.0844         0.367589   
     21. B(H  19,C  14)                  1.0845         0.367423   
     22. B(H  20,C  15)                  1.0842         0.367806   
     23. B(H  21,C  16)                  1.0819         0.370928   
     24. B(O  22,C  17)                  1.3516         0.644301   
     25. B(C  23,O  22)                  1.4146         0.511269   
     26. B(H  24,C  23)                  1.0942         0.354610   
     27. B(H  25,C  23)                  1.0941         0.354742   
     28. B(H  26,C  23)                  1.0883         0.362380   
     29. A(C   1,C   0,C   2)          117.4355         0.431719   
     30. A(C   1,C   0,C  12)          121.1520         0.410740   
     31. A(C   2,C   0,C  12)          121.4123         0.410287   
     32. A(C   0,C   1,H   3)          119.7204         0.353447   
     33. A(C   0,C   1,C   5)          121.5883         0.435258   
     34. A(H   3,C   1,C   5)          118.6814         0.355801   
     35. A(C   0,C   2,H   4)          119.6014         0.353033   
     36. A(C   0,C   2,C   6)          121.6287         0.435072   
     37. A(H   4,C   2,C   6)          118.7586         0.355992   
     38. A(H   7,C   5,C   9)          119.7621         0.354215   
     39. A(C   1,C   5,C   9)          119.9600         0.436666   
     40. A(C   1,C   5,H   7)          120.2761         0.355493   
     41. A(H   8,C   6,C   9)          119.3424         0.354468   
     42. A(C   2,C   6,C   9)          119.9189         0.436861   
     43. A(C   2,C   6,H   8)          120.7346         0.356062   
     44. A(C   5,C   9,C   6)          119.4678         0.434892   
     45. A(C   5,C   9,O  10)          122.5330         0.433619   
     46. A(C   6,C   9,O  10)          117.9992         0.433512   
     47. A(C   9,O  10,H  11)          109.6705         0.370691   
     48. A(C  13,C  12,C  14)          117.3176         0.431967   
     49. A(C   0,C  12,C  14)          121.5095         0.411541   
     50. A(C   0,C  12,C  13)          121.1729         0.409721   
     51. A(C  15,C  13,H  18)          118.7913         0.356861   
     52. A(C  12,C  13,H  18)          119.6932         0.352587   
     53. A(C  12,C  13,C  15)          121.5051         0.435561   
     54. A(C  16,C  14,H  19)          118.3902         0.354914   
     55. A(C  12,C  14,H  19)          119.6262         0.354056   
     56. A(C  12,C  14,C  16)          121.9736         0.435031   
     57. A(C  13,C  15,C  17)          120.2953         0.436856   
     58. A(C  17,C  15,H  20)          118.9055         0.353607   
     59. A(C  13,C  15,H  20)          120.7965         0.356897   
     60. A(C  14,C  16,C  17)          119.6675         0.435325   
     61. A(C  17,C  16,H  21)          121.0093         0.354852   
     62. A(C  14,C  16,H  21)          119.3201         0.355486   
     63. A(C  15,C  17,C  16)          119.2407         0.433542   
     64. A(C  16,C  17,O  22)          124.4670         0.434435   
     65. A(C  15,C  17,O  22)          116.2922         0.433476   
     66. A(C  17,O  22,C  23)          117.7648         0.416756   
     67. A(H  25,C  23,H  26)          109.4169         0.290443   
     68. A(H  24,C  23,H  26)          109.4602         0.290426   
     69. A(O  22,C  23,H  26)          106.1606         0.339918   
     70. A(H  24,C  23,H  25)          109.2649         0.289457   
     71. A(O  22,C  23,H  25)          111.2841         0.338711   
     72. A(O  22,C  23,H  24)          111.1916         0.338690   
     73. D(H   3,C   1,C   0,C   2)   -178.6769         0.025933   
     74. D(H   3,C   1,C   0,C  12)      1.4881         0.025933   
     75. D(C   5,C   1,C   0,C  12)   -179.6666         0.025933   
     76. D(C   5,C   1,C   0,C   2)      0.1685         0.025933   
     77. D(C   6,C   2,C   0,C   1)     -0.1001         0.025594   
     78. D(C   6,C   2,C   0,C  12)    179.7345         0.025594   
     79. D(H   4,C   2,C   0,C   1)   -178.8644         0.025594   
     80. D(H   4,C   2,C   0,C  12)      0.9702         0.025594   
     81. D(C   9,C   5,C   1,H   3)    178.8625         0.028184   
     82. D(H   7,C   5,C   1,H   3)     -0.6504         0.028184   
     83. D(H   7,C   5,C   1,C   0)   -179.5074         0.028184   
     84. D(C   9,C   5,C   1,C   0)      0.0055         0.028184   
     85. D(H   8,C   6,C   2,H   4)     -0.6255         0.028416   
     86. D(H   8,C   6,C   2,C   0)   -179.4000         0.028416   
     87. D(C   9,C   6,C   2,C   0)     -0.1419         0.028416   
     88. D(C   9,C   6,C   2,H   4)    178.6326         0.028416   
     89. D(O  10,C   9,C   6,H   8)     -0.3827         0.026860   
     90. D(C   5,C   9,C   6,H   8)    179.5863         0.026860   
     91. D(C   5,C   9,C   6,C   2)      0.3179         0.026860   
     92. D(O  10,C   9,C   5,H   7)     -0.7681         0.026938   
     93. D(O  10,C   9,C   5,C   1)    179.7164         0.026938   
     94. D(O  10,C   9,C   6,C   2)   -179.6512         0.026860   
     95. D(C   6,C   9,C   5,H   7)    179.2642         0.026938   
     96. D(C   6,C   9,C   5,C   1)     -0.2512         0.026938   
     97. D(H  11,O  10,C   9,C   6)    179.3907         0.029748   
     98. D(H  11,O  10,C   9,C   5)     -0.5774         0.029748   
     99. D(C  14,C  12,C   0,C   2)     33.4240         0.014449   
    100. D(C  14,C  12,C   0,C   1)   -146.7475         0.014449   
    101. D(C  13,C  12,C   0,C   2)   -146.6086         0.014449   
    102. D(C  13,C  12,C   0,C   1)     33.2199         0.014449   
    103. D(C  15,C  13,C  12,C   0)   -179.8901         0.025176   
    104. D(H  18,C  13,C  12,C  14)   -178.7295         0.025176   
    105. D(H  18,C  13,C  12,C   0)      1.3018         0.025176   
    106. D(C  15,C  13,C  12,C  14)      0.0786         0.025176   
    107. D(H  19,C  14,C  12,C  13)   -178.8264         0.026545   
    108. D(H  19,C  14,C  12,C   0)      1.1422         0.026545   
    109. D(C  16,C  14,C  12,C  13)      0.0047         0.026545   
    110. D(C  16,C  14,C  12,C   0)    179.9733         0.026545   
    111. D(H  20,C  15,C  13,H  18)     -0.6161         0.029281   
    112. D(H  20,C  15,C  13,C  12)   -179.4346         0.029281   
    113. D(C  17,C  15,C  13,H  18)    178.7726         0.029281   
    114. D(C  17,C  15,C  13,C  12)     -0.0459         0.029281   
    115. D(H  21,C  16,C  14,H  19)     -0.6423         0.027362   
    116. D(H  21,C  16,C  14,C  12)   -179.4873         0.027362   
    117. D(C  17,C  16,C  14,H  19)    178.7250         0.027362   
    118. D(C  17,C  16,C  14,C  12)     -0.1200         0.027362   
    119. D(O  22,C  17,C  16,H  21)     -0.4714         0.026757   
    120. D(O  22,C  17,C  16,C  14)   -179.8277         0.026757   
    121. D(C  15,C  17,C  16,H  21)    179.5080         0.026757   
    122. D(C  15,C  17,C  16,C  14)      0.1516         0.026757   
    123. D(O  22,C  17,C  15,H  20)     -0.6899         0.026069   
    124. D(O  22,C  17,C  15,C  13)    179.9100         0.026069   
    125. D(C  16,C  17,C  15,H  20)    179.3291         0.026069   
    126. D(C  16,C  17,C  15,C  13)     -0.0710         0.026069   
    127. D(C  23,O  22,C  17,C  16)     -1.0942         0.030636   
    128. D(C  23,O  22,C  17,C  15)    178.9259         0.030636   
    129. D(H  26,C  23,O  22,C  17)   -179.3373         0.020697   
    130. D(H  25,C  23,O  22,C  17)     61.6934         0.020697   
    131. D(H  24,C  23,O  22,C  17)    -60.3665         0.020697   
    -----------------------------------------------------------------

Number of atoms                         .... 27
Number of degrees of freedom            .... 131

         *************************************************************
         *                GEOMETRY OPTIMIZATION CYCLE   1            *
         *************************************************************
---------------------------------
CARTESIAN COORDINATES (ANGSTROEM)
---------------------------------
  C      0.103371   -0.488467   -1.615354
  C     -0.408611    0.612047   -0.927052
  C      0.480963   -1.601383   -0.859981
  H     -0.733292    1.487419   -1.478415
  H      0.900472   -2.469035   -1.357266
  C     -0.537020    0.609645    0.451672
  C      0.357227   -1.618928    0.518009
  H     -0.945603    1.474751    0.964863
  H      0.663807   -2.486853    1.090838
  C     -0.151104   -0.508186    1.183070
  O     -0.248698   -0.564816    2.533709
  H     -0.604226    0.266636    2.868604
  C      0.242548   -0.472772   -3.081700
  C      0.544514    0.708574   -3.767933
  C      0.079074   -1.628633   -3.840603
  C      0.674241    0.731563   -5.141454
  C      0.207522   -1.624757   -5.223120
  C      0.505897   -0.437142   -5.883702
  H      0.700299    1.627212   -3.213179
  H     -0.174512   -2.561425   -3.348895
  H      0.917479    1.651748   -5.660745
  H      0.063264   -2.546375   -5.771202
  O      0.649178   -0.321810   -7.222761
  C      0.507911   -1.492683   -8.003885
  H      1.250442   -2.246330   -7.724782
  H     -0.494639   -1.918941   -7.902841
  H      0.669674   -1.189308   -9.036432

----------------------------
CARTESIAN COORDINATES (A.U.)
----------------------------
  NO LB      ZA    FRAG     MASS         X           Y           Z
   0 C     6.0000    0    12.011    0.195343   -0.923069   -3.052577
   1 C     6.0000    0    12.011   -0.772163    1.156601   -1.751874
   2 C     6.0000    0    12.011    0.908888   -3.026175   -1.625129
   3 H     1.0000    0     1.008   -1.385721    2.810815   -2.793799
   4 H     1.0000    0     1.008    1.701645   -4.665800   -2.564861
   5 C     6.0000    0    12.011   -1.014821    1.152062    0.853536
   6 C     6.0000    0    12.011    0.675061   -3.059331    0.978895
   7 H     1.0000    0     1.008   -1.786931    2.786876    1.823327
   8 H     1.0000    0     1.008    1.254413   -4.699471    2.061385
   9 C     6.0000    0    12.011   -0.285545   -0.960332    2.235678
  10 O     8.0000    0    15.999   -0.469971   -1.067348    4.788016
  11 H     1.0000    0     1.008   -1.141822    0.503869    5.420876
  12 C     6.0000    0    12.011    0.458349   -0.893410   -5.823569
  13 C     6.0000    0    12.011    1.028982    1.339011   -7.120361
  14 C     6.0000    0    12.011    0.149428   -3.077670   -7.257688
  15 C     6.0000    0    12.011    1.274131    1.382454   -9.715940
  16 C     6.0000    0    12.011    0.392160   -3.070346   -9.870266
  17 C     6.0000    0    12.011    0.956007   -0.826079  -11.118585
  18 H     1.0000    0     1.008    1.323373    3.074985   -6.072028
  19 H     1.0000    0     1.008   -0.329780   -4.840392   -6.328494
  20 H     1.0000    0     1.008    1.733784    3.121351  -10.697258
  21 H     1.0000    0     1.008    0.119552   -4.811951  -10.905991
  22 O     8.0000    0    15.999    1.226769   -0.608133  -13.649040
  23 C     6.0000    0    12.011    0.959813   -2.820762  -15.125151
  24 H     1.0000    0     1.008    2.362993   -4.244949  -14.597722
  25 H     1.0000    0     1.008   -0.934732   -3.626273  -14.934205
  26 H     1.0000    0     1.008    1.265500   -2.247466  -17.076382

--------------------------------
INTERNAL COORDINATES (ANGSTROEM)
--------------------------------
 C      0   0   0     0.000000000000     0.00000000     0.00000000
 C      1   0   0     1.395355250724     0.00000000     0.00000000
 C      1   2   0     1.397049072384   117.43546375     0.00000000
 H      2   1   3     1.084294723732   119.72042599   181.32314983
 H      3   1   2     1.084481519165   119.60143280   181.13557172
 C      2   1   3     1.384692929519   121.58832958     0.16849484
 C      3   1   2     1.383645498248   121.62872342   359.89991764
 H      6   2   1     1.085685710326   120.27613386   180.49257200
 H      7   3   1     1.084167037530   120.73458770   180.60004397
 C      6   2   1     1.390474860622   119.95999601     0.00000000
 O     10   6   2     1.355343961530   122.53297938   179.71642322
 H     11  10   6     0.964296244996   109.67051942   359.42264066
 C      1   2   3     1.473019742593   121.15200974   180.16494533
 C     13   1   2     1.399170313851   121.17291290    33.21986626
 C     13   1   2     1.392362080569   121.50946491   213.25250193
 C     14  13   1     1.379825179539   121.50505979   180.10989849
 C     15  13   1     1.388476563493   121.97363391   179.97328193
 C     17  15  13     1.391339501191   119.66745587   359.88000117
 H     14  13   1     1.084396948440   119.69317274     1.30184417
 H     15  13   1     1.084519954599   119.62617561     1.14220627
 H     16  14  13     1.084236275703   120.79646434   180.56542751
 H     17  15  13     1.081935297147   119.32012295   180.51272436
 O     18  17  15     1.351632317114   124.46702405   180.17226632
 C     23  18  17     1.414586388593   117.76475896   358.90580399
 H     24  23  18     1.094182147167   111.19157298   299.63354619
 H     24  23  18     1.094080561476   111.28409716    61.69342700
 H     24  23  18     1.088281657478   106.16062221   180.66266580

---------------------------
INTERNAL COORDINATES (A.U.)
---------------------------
 C      0   0   0     0.000000000000     0.00000000     0.00000000
 C      1   0   0     2.636839283398     0.00000000     0.00000000
 C      1   2   0     2.640040142454   117.43546375     0.00000000
 H      2   1   3     2.049020076310   119.72042599   181.32314983
 H      3   1   2     2.049373068520   119.60143280   181.13557172
 C      2   1   3     2.616690416369   121.58832958     0.16849484
 C      3   1   2     2.614711058121   121.62872342   359.89991764
 H      6   2   1     2.051648660028   120.27613386   180.49257200
 H      7   3   1     2.048778784356   120.73458770   180.60004397
 C      6   2   1     2.627616682677   119.95999601     0.00000000
 O     10   6   2     2.561228904556   122.53297938   179.71642322
 H     11  10   6     1.822255815011   109.67051942   359.42264066
 C      1   2   3     2.783603903361   121.15200974   180.16494533
 C     13   1   2     2.644048707890   121.17291290    33.21986626
 C     13   1   2     2.631183011532   121.50946491   213.25250193
 C     14  13   1     2.607491702018   121.50505979   180.10989849
 C     15  13   1     2.623840448370   121.97363391   179.97328193
 C     17  15  13     2.629250616557   119.66745587   359.88000117
 H     14  13   1     2.049213253011   119.69317274     1.30184417
 H     15  13   1     2.049445700965   119.62617561     1.14220627
 H     16  14  13     2.048909625541   120.79646434   180.56542751
 H     17  15  13     2.044561406230   119.32012295   180.51272436
 O     18  17  15     2.554214913102   124.46702405   180.17226632
 C     23  18  17     2.673180867214   117.76475896   358.90580399
 H     24  23  18     2.067704598772   111.19157298   299.63354619
 H     24  23  18     2.067512629637   111.28409716    61.69342700
 H     24  23  18     2.056554289203   106.16062221   180.66266580

---------------------
BASIS SET INFORMATION
---------------------
There are 3 groups of distinct atoms

 Group   1 Type C   : 11s6p2d1f contracted to 5s3p2d1f pattern {62111/411/11/1}
 Group   2 Type H   : 5s1p contracted to 3s1p pattern {311/1}
 Group   3 Type O   : 11s6p2d1f contracted to 5s3p2d1f pattern {62111/411/11/1}

Atom   0C    basis set group =>   1
Atom   1C    basis set group =>   1
Atom   2C    basis set group =>   1
Atom   3H    basis set group =>   2
Atom   4H    basis set group =>   2
Atom   5C    basis set group =>   1
Atom   6C    basis set group =>   1
Atom   7H    basis set group =>   2
Atom   8H    basis set group =>   2
Atom   9C    basis set group =>   1
Atom  10O    basis set group =>   3
Atom  11H    basis set group =>   2
Atom  12C    basis set group =>   1
Atom  13C    basis set group =>   1
Atom  14C    basis set group =>   1
Atom  15C    basis set group =>   1
Atom  16C    basis set group =>   1
Atom  17C    basis set group =>   1
Atom  18H    basis set group =>   2
Atom  19H    basis set group =>   2
Atom  20H    basis set group =>   2
Atom  21H    basis set group =>   2
Atom  22O    basis set group =>   3
Atom  23C    basis set group =>   1
Atom  24H    basis set group =>   2
Atom  25H    basis set group =>   2
Atom  26H    basis set group =>   2
---------------------------------
AUXILIARY/J BASIS SET INFORMATION
---------------------------------
There are 3 groups of distinct atoms

 Group   1 Type C   : 12s5p4d2f1g contracted to 6s4p3d1f1g pattern {711111/2111/211/2/1}
 Group   2 Type H   : 5s2p1d contracted to 3s1p1d pattern {311/2/1}
 Group   3 Type O   : 12s5p4d2f1g contracted to 6s4p3d1f1g pattern {711111/2111/211/2/1}

Atom   0C    basis set group =>   1
Atom   1C    basis set group =>   1
Atom   2C    basis set group =>   1
Atom   3H    basis set group =>   2
Atom   4H    basis set group =>   2
Atom   5C    basis set group =>   1
Atom   6C    basis set group =>   1
Atom   7H    basis set group =>   2
Atom   8H    basis set group =>   2
Atom   9C    basis set group =>   1
Atom  10O    basis set group =>   3
Atom  11H    basis set group =>   2
Atom  12C    basis set group =>   1
Atom  13C    basis set group =>   1
Atom  14C    basis set group =>   1
Atom  15C    basis set group =>   1
Atom  16C    basis set group =>   1
Atom  17C    basis set group =>   1
Atom  18H    basis set group =>   2
Atom  19H    basis set group =>   2
Atom  20H    basis set group =>   2
Atom  21H    basis set group =>   2
Atom  22O    basis set group =>   3
Atom  23C    basis set group =>   1
Atom  24H    basis set group =>   2
Atom  25H    basis set group =>   2
Atom  26H    basis set group =>   2


           ************************************************************
           *        Program running with 24 parallel MPI-processes    *
           *              working on a common directory               *
           ************************************************************
------------------------------------------------------------------------------
                           ORCA GTO INTEGRAL CALCULATION
                           -- RI-GTO INTEGRALS CHOSEN --
------------------------------------------------------------------------------
------------------------------------------------------------------------------
                   ___                                                        
                  /   \      - P O W E R E D   B Y -                         
                 /     \                                                     
                 |  |  |   _    _      __       _____    __    __             
                 |  |  |  | |  | |    /  \     |  _  \  |  |  /  |          
                  \  \/   | |  | |   /    \    | | | |  |  | /  /          
                 / \  \   | |__| |  /  /\  \   | |_| |  |  |/  /          
                |  |  |   |  __  | /  /__\  \  |    /   |      \           
                |  |  |   | |  | | |   __   |  |    \   |  |\   \          
                \     /   | |  | | |  |  |  |  | |\  \  |  | \   \       
                 \___/    |_|  |_| |__|  |__|  |_| \__\ |__|  \__/        
                                                                              
                      - O R C A' S   B I G   F R I E N D -                    
                                      &                                       
                       - I N T E G R A L  F E E D E R -                       
                                                                              
 v1 FN, 2020, v2 2021                                                         
------------------------------------------------------------------------------


Reading SHARK input file 4-OMePh-PhenOH/4-OMePh-PhenOH.SHARKINP.tmp ... ok
----------------------
SHARK INTEGRAL PACKAGE
----------------------

Number of atoms                             ...     27
Number of basis functions                   ...    537
Number of shells                            ...    213
Maximum angular momentum                    ...      3
Integral batch strategy                     ... SHARK/LIBINT Hybrid
RI-J (if used) integral strategy            ... SPLIT-RIJ (Revised 2003 algorithm where possible)
Printlevel                                  ...      1
Contraction scheme used                     ... SEGMENTED contraction
Coulomb Range Separation                    ... NOT USED
Exchange Range Separation                   ... NOT USED
Finite Nucleus Model                        ... NOT USED
Auxiliary Coulomb fitting basis             ... AVAILABLE
   # of basis functions in Aux-J            ...    867
   # of shells in Aux-J                     ...    285
   Maximum angular momentum in Aux-J        ...      4
Auxiliary J/K fitting basis                 ... NOT available
Auxiliary Correlation fitting basis         ... NOT available
Auxiliary 'external' fitting basis          ... NOT available
Integral threshold                          ...     2.500000e-11
Primitive cut-off                           ...     2.500000e-12
Primitive pair pre-selection threshold      ...     2.500000e-12

Calculating pre-screening integrals         ... done (  0.1 sec) Dimension = 213
Organizing shell pair data                  ... done (  0.2 sec)
Shell pair information
Total number of shell pairs                 ...     22791
Shell pairs after pre-screening             ...     17137
Total number of primitive shell pairs       ...     69744
Primitive shell pairs kept                  ...     36773
          la=0 lb=0:   4463 shell pairs
          la=1 lb=0:   4886 shell pairs
          la=1 lb=1:   1353 shell pairs
          la=2 lb=0:   2467 shell pairs
          la=2 lb=1:   1357 shell pairs
          la=2 lb=2:    350 shell pairs
          la=3 lb=0:   1186 shell pairs
          la=3 lb=1:    654 shell pairs
          la=3 lb=2:    330 shell pairs
          la=3 lb=3:     91 shell pairs

Calculating one electron integrals          ... done (  0.0 sec)
Calculating RI/J V-Matrix + Cholesky decomp.... done (  0.1 sec)
Calculating Nuclear repulsion               ... done (  0.0 sec) ENN=    887.507961428814 Eh

SHARK setup successfully completed in   0.8 seconds

Maximum memory used throughout the entire GTOINT-calculation: 29.6 MB


           ************************************************************
           *        Program running with 24 parallel MPI-processes    *
           *              working on a common directory               *
           ************************************************************
-------------------------------------------------------------------------------
                                 ORCA SCF
-------------------------------------------------------------------------------

------------
SCF SETTINGS
------------
Hamiltonian:
 Density Functional     Method          .... DFT(GTOs)
 Exchange Functional    Exchange        .... PBE
   PBE kappa parameter   XKappa         ....  0.804000
   PBE mue parameter    XMuePBE         ....  0.219520
 Correlation Functional Correlation     .... PBE
   PBE beta parameter  CBetaPBE         ....  0.066725
 LDA part of GGA corr.  LDAOpt          .... PW91-LDA
 Gradients option       PostSCFGGA      .... off
 Hybrid DFT is turned on
   Fraction HF Exchange ScalHFX         ....  0.250000
   Scaling of DF-GGA-X  ScalDFX         ....  0.750000
   Scaling of DF-GGA-C  ScalDFC         ....  1.000000
   Scaling of DF-LDA-C  ScalLDAC        ....  1.000000
   Perturbative correction              ....  0.000000
   Density functional embedding theory  .... OFF
   NL short-range parameter             ....  6.900000
 RI-approximation to the Coulomb term is turned on
   Number of AuxJ basis functions       .... 867
   RIJ-COSX (HFX calculated with COS-X)).... on


General Settings:
 Integral files         IntName         .... 4-OMePh-PhenOH/4-OMePh-PhenOH
 Hartree-Fock type      HFTyp           .... RHF
 Total Charge           Charge          ....    0
 Multiplicity           Mult            ....    1
 Number of Electrons    NEL             ....  106
 Basis Dimension        Dim             ....  537
 Nuclear Repulsion      ENuc            ....    887.5079614288 Eh

Convergence Acceleration:
 DIIS                   CNVDIIS         .... on
   Start iteration      DIISMaxIt       ....    12
   Startup error        DIISStart       ....  0.200000
   # of expansion vecs  DIISMaxEq       ....     5
   Bias factor          DIISBfac        ....   1.050
   Max. coefficient     DIISMaxC        ....  10.000
 Trust-Rad. Augm. Hess. CNVTRAH         .... auto
   Auto Start mean grad. ratio tolernc. ....  1.125000
   Auto Start start iteration           ....    20
   Auto Start num. interpolation iter.  ....    10
   Max. Number of Micro iterations      ....    16
   Max. Number of Macro iterations      .... Maxiter - #DIIS iter
   Number of Davidson start vectors     ....     2
   Converg. threshold I  (grad. norm)   ....   1.000e-05
   Converg. threshold II (energy diff.) ....   1.000e-08
   Grad. Scal. Fac. for Micro threshold ....   0.100
   Minimum threshold for Micro iter.    ....   0.010
   NR start threshold (gradient norm)   ....   0.001
   Initial trust radius                 ....   0.400
   Minimum AH scaling param. (alpha)    ....   1.000
   Maximum AH scaling param. (alpha)    .... 1000.000
   Orbital update algorithm             .... Taylor
   White noise on init. David. guess    .... on
   Maximum white noise                  ....   0.010
   Quad. conv. algorithm                .... NR
 SOSCF                  CNVSOSCF        .... on
   Start iteration      SOSCFMaxIt      ....   150
   Startup grad/error   SOSCFStart      ....  0.003300
 Level Shifting         CNVShift        .... on
   Level shift para.    LevelShift      ....    0.2500
   Turn off err/grad.   ShiftErr        ....    0.0010
 Zerner damping         CNVZerner       .... off
 Static damping         CNVDamp         .... on
   Fraction old density DampFac         ....    0.7000
   Max. Damping (<1)    DampMax         ....    0.9800
   Min. Damping (>=0)   DampMin         ....    0.0000
   Turn off err/grad.   DampErr         ....    0.1000
 Fernandez-Rico         CNVRico         .... off

SCF Procedure:
 Maximum # iterations   MaxIter         ....   800
 SCF integral mode      SCFMode         .... Direct
   Integral package                     .... SHARK and LIBINT hybrid scheme
 Reset frequency        DirectResetFreq ....    20
 Integral Threshold     Thresh          ....  2.500e-11 Eh
 Primitive CutOff       TCut            ....  2.500e-12 Eh

Convergence Tolerance:
 Convergence Check Mode ConvCheckMode   .... Total+1el-Energy
 Convergence forced     ConvForced      .... 0
 Energy Change          TolE            ....  1.000e-08 Eh
 1-El. energy change                    ....  1.000e-05 Eh
 Orbital Gradient       TolG            ....  1.000e-05
 Orbital Rotation angle TolX            ....  1.000e-05
 DIIS Error             TolErr          ....  5.000e-07


Diagonalization of the overlap matrix:
Smallest eigenvalue                        ... 7.174e-06
Time for diagonalization                   ...    0.086 sec
Threshold for overlap eigenvalues          ... 1.000e-08
Number of eigenvalues below threshold      ... 0
Time for construction of square roots      ...    0.047 sec
Total time needed                          ...    0.136 sec

Time for model grid setup =    0.182 sec

------------------------------
INITIAL GUESS: MODEL POTENTIAL
------------------------------
Loading Hartree-Fock densities                     ... done
Calculating cut-offs                               ... done
Initializing the effective Hamiltonian             ... done
Setting up the integral package (SHARK)            ... done
Starting the Coulomb interaction                   ... done (   0.2 sec)
Reading the grid                                   ... done
Mapping shells                                     ... done
Starting the XC term evaluation                    ... done (   0.1 sec)
  promolecular density results
     # of electrons  =    105.998999304
     EX              =    -86.400054072
     EC              =     -3.546912377
     EX+EC           =    -89.946966449
Transforming the Hamiltonian                       ... done (   0.1 sec)
Diagonalizing the Hamiltonian                      ... done (   0.1 sec)
Back transforming the eigenvectors                 ... done (   0.0 sec)
Now organizing SCF variables                       ... done
                      ------------------
                      INITIAL GUESS DONE (   0.7 sec)
                      ------------------
-------------------
DFT GRID GENERATION
-------------------

General Integration Accuracy     IntAcc      ... 4.388
Radial Grid Type                 RadialGrid  ... OptM3 with GC (2021)
Angular Grid (max. ang.)         AngularGrid ... 4 (Lebedev-302)
Angular grid pruning method      GridPruning ... 4 (adaptive)
Weight generation scheme         WeightScheme... Becke
Basis function cutoff            BFCut       ... 1.0000e-11
Integration weight cutoff        WCut        ... 1.0000e-14
Angular grids for H and He will be reduced by one unit
Partially contracted basis set               ... off
Rotationally invariant grid construction     ... off

Total number of grid points                  ...   128363
Total number of batches                      ...     2020
Average number of points per batch           ...       63
Average number of grid points per atom       ...     4754
Time for grid setup =    0.884 sec

--------------------
COSX GRID GENERATION
--------------------

GRIDX 1
-------
General Integration Accuracy     IntAcc      ... 3.816
Radial Grid Type                 RadialGrid  ... OptM3 with GC (2021)
Angular Grid (max. ang.)         AngularGrid ... 1 (Lebedev-50)
Angular grid pruning method      GridPruning ... 4 (adaptive)
Weight generation scheme         WeightScheme... Becke
Basis function cutoff            BFCut       ... 1.0000e-11
Integration weight cutoff        WCut        ... 1.0000e-14
Angular grids for H and He will be reduced by one unit
Partially contracted basis set               ... on
Rotationally invariant grid construction     ... off

Total number of grid points                  ...    16392
Total number of batches                      ...      265
Average number of points per batch           ...       61
Average number of grid points per atom       ...      607
UseSFitting                                  ... on

GRIDX 2
-------
General Integration Accuracy     IntAcc      ... 4.020
Radial Grid Type                 RadialGrid  ... OptM3 with GC (2021)
Angular Grid (max. ang.)         AngularGrid ... 2 (Lebedev-110)
Angular grid pruning method      GridPruning ... 4 (adaptive)
Weight generation scheme         WeightScheme... Becke
Basis function cutoff            BFCut       ... 1.0000e-11
Integration weight cutoff        WCut        ... 1.0000e-14
Angular grids for H and He will be reduced by one unit
Partially contracted basis set               ... on
Rotationally invariant grid construction     ... off

Total number of grid points                  ...    35686
Total number of batches                      ...      574
Average number of points per batch           ...       62
Average number of grid points per atom       ...     1322
UseSFitting                                  ... on

GRIDX 3
-------
General Integration Accuracy     IntAcc      ... 4.338
Radial Grid Type                 RadialGrid  ... OptM3 with GC (2021)
Angular Grid (max. ang.)         AngularGrid ... 3 (Lebedev-194)
Angular grid pruning method      GridPruning ... 4 (adaptive)
Weight generation scheme         WeightScheme... Becke
Basis function cutoff            BFCut       ... 1.0000e-11
Integration weight cutoff        WCut        ... 1.0000e-14
Angular grids for H and He will be reduced by one unit
Partially contracted basis set               ... on
Rotationally invariant grid construction     ... off

Total number of grid points                  ...    78215
Total number of batches                      ...     1237
Average number of points per batch           ...       63
Average number of grid points per atom       ...     2897
UseSFitting                                  ... on

Time for X-Grid setup             =    1.176 sec


--------------------
CPCM SOLVATION MODEL
--------------------
CPCM parameters:
  Epsilon                                         ...      47.2000
  Refrac                                          ...       1.4790
  Rsolv                                           ...       1.3000
  Surface type                                    ... GAUSSIAN VDW
  Epsilon function type                           ...         CPCM
Radii:
 Radius for C  used is    3.8550 Bohr (=   2.0400 Ang.)
 Radius for H  used is    2.4944 Bohr (=   1.3200 Ang.)
 Radius for O  used is    3.4469 Bohr (=   1.8240 Ang.)
Calculating surface                               ...        done! (  0.0s)
GEPOL surface points                              ...         1479
GEPOL Volume                                      ...    1665.9423
GEPOL Surface-area                                ...     882.0578
Calculating surface distance matrix               ...        done! (  0.0s)
Performing Cholesky decomposition & store         ...        done! (  0.2s)
Overall time for CPCM initialization              ...                 0.2s
--------------
SCF ITERATIONS
--------------
ITER       Energy         Delta-E        Max-DP      RMS-DP      [F,P]     Damp
               ***  Starting incremental Fock matrix formation  ***
  0   -652.2341277800   0.000000000000 0.08139436  0.00094932  0.2092428 0.7000
  1   -652.3698376874  -0.135709907475 0.09184355  0.00095404  0.0996027 0.7000
                               ***Turning on DIIS***
  2   -652.4334364187  -0.063598731216 0.17906985  0.00192448  0.0376770 0.0000
  3   -652.5269482134  -0.093511794710 0.08094840  0.00067014  0.0468269 0.0000
  4   -652.5475199950  -0.020571781617 0.02565097  0.00024561  0.0073146 0.0000
  5   -652.5483142949  -0.000794299912 0.01182901  0.00011357  0.0062868 0.0000
                      *** Initiating the SOSCF procedure ***
                           *** Shutting down DIIS ***
                      *** Re-Reading the Fockian *** 
                      *** Removing any level shift *** 
ITER      Energy       Delta-E        Grad      Rot      Max-DP    RMS-DP
  6   -652.54839548  -0.0000811836  0.000296  0.000296  0.002637  0.000036
               *** Restarting incremental Fock matrix formation ***
  7   -652.54839100   0.0000044818  0.000105  0.000435  0.007074  0.000096
  8   -652.54839141  -0.0000004086  0.000117  0.000351  0.001847  0.000025
  9   -652.54839186  -0.0000004505  0.000046  0.000149  0.001805  0.000024
 10   -652.54839188  -0.0000000213  0.000020  0.000033  0.000257  0.000004
 11   -652.54839191  -0.0000000287  0.000007  0.000024  0.000548  0.000008
                  ***Gradient check signals convergence***
              ***Rediagonalizing the Fockian in SOSCF/NRSCF***

               *****************************************************
               *                     SUCCESS                       *
               *           SCF CONVERGED AFTER  12 CYCLES          *
               *****************************************************

Old exchange energy                            =    -22.060475536 Eh
New exchange energy                            =    -22.060464404 Eh
Exchange energy change after final integration =      0.000011132 Eh
Total energy after final integration           =   -652.548380774 Eh
Final COS-X integration done in                =     5.115 sec

----------------
TOTAL SCF ENERGY
----------------

Total Energy       :         -652.54838077 Eh          -17756.74418 eV

Components:
Nuclear Repulsion  :          887.50796143 Eh           24150.31941 eV
Electronic Energy  :        -1540.05634220 Eh          -41907.06359 eV
One Electron Energy:        -2646.91176570 Eh          -72026.13088 eV
Two Electron Energy:         1106.85542350 Eh           30119.06730 eV
Max COSX asymmetry :            0.00000136 Eh               0.00004 eV
CPCM Dielectric    :           -0.01843349 Eh              -0.50160 eV

Virial components:
Potential Energy   :        -1302.10011435 Eh          -35431.94544 eV
Kinetic Energy     :          649.55173358 Eh           17675.20126 eV
Virial Ratio       :            2.00461341


DFT components:
N(Alpha)           :       52.999979111775 electrons
N(Beta)            :       52.999979111775 electrons
N(Total)           :      105.999958223549 electrons
E(X)               :      -66.004721299781 Eh       
E(C)               :       -3.553303463873 Eh       
E(XC)              :      -69.558024763654 Eh       
DFET-embed. en.    :        0.000000000000 Eh       
CPCM Solvation Model Properties:
Surface-charge          :           -0.02901231
Charge-correction       :            0.00009815 Eh               0.00267 eV
Free-energy (cav+disp)  :  This term is not implemented in the current solvation scheme

---------------
SCF CONVERGENCE
---------------

  Last Energy change         ...   -3.4333e-10  Tolerance :   1.0000e-08
  Last MAX-Density change    ...    1.3323e-15  Tolerance :   1.0000e-07
  Last RMS-Density change    ...    1.3045e-17  Tolerance :   5.0000e-09
  Last Orbital Gradient      ...    2.2942e-06  Tolerance :   1.0000e-05
  Last Orbital Rotation      ...    2.8157e-06  Tolerance :   1.0000e-05

             **** THE GBW FILE WAS UPDATED (4-OMePh-PhenOH/4-OMePh-PhenOH.gbw) ****
             **** DENSITY 4-OMePh-PhenOH/4-OMePh-PhenOH.scfp WAS UPDATED ****
             **** ENERGY FILE WAS UPDATED (4-OMePh-PhenOH/4-OMePh-PhenOH.en.tmp) ****
             **** THE GBW FILE WAS UPDATED (4-OMePh-PhenOH/4-OMePh-PhenOH.gbw) ****
             **** DENSITY 4-OMePh-PhenOH/4-OMePh-PhenOH.scfp WAS UPDATED ****
----------------
ORBITAL ENERGIES
----------------

  NO   OCC          E(Eh)            E(eV) 
   0   2.0000     -19.242370      -523.6115 
   1   2.0000     -19.238009      -523.4928 
   2   2.0000     -10.288047      -279.9520 
   3   2.0000     -10.286392      -279.9070 
   4   2.0000     -10.264778      -279.3188 
   5   2.0000     -10.232905      -278.4515 
   6   2.0000     -10.232489      -278.4402 
   7   2.0000     -10.228659      -278.3360 
   8   2.0000     -10.228367      -278.3280 
   9   2.0000     -10.227863      -278.3143 
  10   2.0000     -10.227640      -278.3082 
  11   2.0000     -10.225164      -278.2409 
  12   2.0000     -10.224412      -278.2204 
  13   2.0000     -10.223192      -278.1872 
  14   2.0000     -10.223033      -278.1829 
  15   2.0000      -1.104045       -30.0426 
  16   2.0000      -1.095995       -29.8235 
  17   2.0000      -0.899275       -24.4705 
  18   2.0000      -0.876241       -23.8437 
  19   2.0000      -0.803610       -21.8673 
  20   2.0000      -0.780696       -21.2438 
  21   2.0000      -0.773188       -21.0395 
  22   2.0000      -0.754266       -20.5246 
  23   2.0000      -0.711765       -19.3681 
  24   2.0000      -0.655892       -17.8477 
  25   2.0000      -0.635607       -17.2958 
  26   2.0000      -0.625093       -17.0097 
  27   2.0000      -0.598184       -16.2774 
  28   2.0000      -0.566066       -15.4034 
  29   2.0000      -0.555097       -15.1049 
  30   2.0000      -0.522467       -14.2171 
  31   2.0000      -0.509430       -13.8623 
  32   2.0000      -0.486337       -13.2339 
  33   2.0000      -0.484518       -13.1844 
  34   2.0000      -0.463436       -12.6107 
  35   2.0000      -0.456438       -12.4203 
  36   2.0000      -0.440552       -11.9880 
  37   2.0000      -0.436820       -11.8865 
  38   2.0000      -0.434499       -11.8233 
  39   2.0000      -0.429976       -11.7002 
  40   2.0000      -0.423779       -11.5316 
  41   2.0000      -0.405818       -11.0429 
  42   2.0000      -0.396758       -10.7963 
  43   2.0000      -0.377056       -10.2602 
  44   2.0000      -0.367759       -10.0072 
  45   2.0000      -0.364901        -9.9295 
  46   2.0000      -0.351926        -9.5764 
  47   2.0000      -0.337218        -9.1762 
  48   2.0000      -0.335240        -9.1224 
  49   2.0000      -0.274174        -7.4607 
  50   2.0000      -0.272526        -7.4158 
  51   2.0000      -0.262350        -7.1389 
  52   2.0000      -0.215710        -5.8698 
  53   0.0000      -0.021544        -0.5862 
  54   0.0000      -0.015916        -0.4331 
  55   0.0000      -0.007254        -0.1974 
  56   0.0000       0.037182         1.0118 
  57   0.0000       0.062274         1.6946 
  58   0.0000       0.064322         1.7503 
  59   0.0000       0.072899         1.9837 
  60   0.0000       0.084800         2.3075 
  61   0.0000       0.086083         2.3424 
  62   0.0000       0.099389         2.7045 
  63   0.0000       0.111375         3.0307 
  64   0.0000       0.121838         3.3154 
  65   0.0000       0.124719         3.3938 
  66   0.0000       0.132025         3.5926 
  67   0.0000       0.136787         3.7222 
  68   0.0000       0.140932         3.8349 
  69   0.0000       0.143101         3.8940 
  70   0.0000       0.154366         4.2005 
  71   0.0000       0.162205         4.4138 
  72   0.0000       0.169892         4.6230 
  73   0.0000       0.173304         4.7158 
  74   0.0000       0.187837         5.1113 
  75   0.0000       0.199772         5.4361 
  76   0.0000       0.206807         5.6275 
  77   0.0000       0.214617         5.8400 
  78   0.0000       0.217670         5.9231 
  79   0.0000       0.221701         6.0328 
  80   0.0000       0.227279         6.1846 
  81   0.0000       0.234225         6.3736 
  82   0.0000       0.239615         6.5202 
  83   0.0000       0.243778         6.6335 
  84   0.0000       0.247841         6.7441 
  85   0.0000       0.253832         6.9071 
  86   0.0000       0.259835         7.0705 
  87   0.0000       0.269554         7.3349 
  88   0.0000       0.275601         7.4995 
  89   0.0000       0.278310         7.5732 
  90   0.0000       0.284486         7.7413 
  91   0.0000       0.307282         8.3616 
  92   0.0000       0.308977         8.4077 
  93   0.0000       0.311720         8.4823 
  94   0.0000       0.325634         8.8610 
  95   0.0000       0.334801         9.1104 
  96   0.0000       0.336832         9.1657 
  97   0.0000       0.338046         9.1987 
  98   0.0000       0.343606         9.3500 
  99   0.0000       0.346617         9.4319 
 100   0.0000       0.355409         9.6712 
 101   0.0000       0.359383         9.7793 
 102   0.0000       0.371873        10.1192 
 103   0.0000       0.375908        10.2290 
 104   0.0000       0.380712        10.3597 
 105   0.0000       0.384973        10.4756 
 106   0.0000       0.387547        10.5457 
 107   0.0000       0.392717        10.6864 
 108   0.0000       0.405021        11.0212 
 109   0.0000       0.406135        11.0515 
 110   0.0000       0.413619        11.2551 
 111   0.0000       0.425135        11.5685 
 112   0.0000       0.427517        11.6333 
 113   0.0000       0.435751        11.8574 
 114   0.0000       0.442171        12.0321 
 115   0.0000       0.445564        12.1244 
 116   0.0000       0.450670        12.2634 
 117   0.0000       0.457029        12.4364 
 118   0.0000       0.464920        12.6511 
 119   0.0000       0.468426        12.7465 
 120   0.0000       0.472589        12.8598 
 121   0.0000       0.479044        13.0354 
 122   0.0000       0.485446        13.2097 
 123   0.0000       0.494794        13.4640 
 124   0.0000       0.498585        13.5672 
 125   0.0000       0.507428        13.8078 
 126   0.0000       0.513385        13.9699 
 127   0.0000       0.520504        14.1636 
 128   0.0000       0.525343        14.2953 
 129   0.0000       0.531550        14.4642 
 130   0.0000       0.541902        14.7459 
 131   0.0000       0.548850        14.9350 
 132   0.0000       0.561687        15.2843 
 133   0.0000       0.583865        15.8878 
 134   0.0000       0.592661        16.1271 
 135   0.0000       0.596287        16.2258 
 136   0.0000       0.603283        16.4162 
 137   0.0000       0.604605        16.4521 
 138   0.0000       0.627487        17.0748 
 139   0.0000       0.637870        17.3573 
 140   0.0000       0.643758        17.5175 
 141   0.0000       0.646357        17.5883 
 142   0.0000       0.658834        17.9278 
 143   0.0000       0.666403        18.1337 
 144   0.0000       0.677866        18.4457 
 145   0.0000       0.686412        18.6782 
 146   0.0000       0.692714        18.8497 
 147   0.0000       0.703488        19.1429 
 148   0.0000       0.709100        19.2956 
 149   0.0000       0.713450        19.4140 
 150   0.0000       0.725945        19.7540 
 151   0.0000       0.728213        19.8157 
 152   0.0000       0.736359        20.0373 
 153   0.0000       0.739372        20.1193 
 154   0.0000       0.742349        20.2003 
 155   0.0000       0.746849        20.3228 
 156   0.0000       0.748455        20.3665 
 157   0.0000       0.755749        20.5650 
 158   0.0000       0.782279        21.2869 
 159   0.0000       0.788568        21.4580 
 160   0.0000       0.802731        21.8434 
 161   0.0000       0.816617        22.2213 
 162   0.0000       0.820841        22.3362 
 163   0.0000       0.834146        22.6983 
 164   0.0000       0.841878        22.9087 
 165   0.0000       0.849921        23.1275 
 166   0.0000       0.858356        23.3571 
 167   0.0000       0.871522        23.7153 
 168   0.0000       0.873548        23.7704 
 169   0.0000       0.883752        24.0481 
 170   0.0000       0.895362        24.3640 
 171   0.0000       0.900978        24.5168 
 172   0.0000       0.912875        24.8406 
 173   0.0000       0.923323        25.1249 
 174   0.0000       0.931643        25.3513 
 175   0.0000       0.941891        25.6302 
 176   0.0000       0.958949        26.0943 
 177   0.0000       0.974173        26.5086 
 178   0.0000       0.984262        26.7831 
 179   0.0000       0.999110        27.1872 
 180   0.0000       1.009111        27.4593 
 181   0.0000       1.014164        27.5968 
 182   0.0000       1.027060        27.9477 
 183   0.0000       1.038923        28.2705 
 184   0.0000       1.043237        28.3879 
 185   0.0000       1.066530        29.0218 
 186   0.0000       1.086276        29.5591 
 187   0.0000       1.093712        29.7614 
 188   0.0000       1.100469        29.9453 
 189   0.0000       1.116267        30.3752 
 190   0.0000       1.117833        30.4178 
 191   0.0000       1.135004        30.8850 
 192   0.0000       1.156798        31.4781 
 193   0.0000       1.168684        31.8015 
 194   0.0000       1.176268        32.0079 
 195   0.0000       1.189032        32.3552 
 196   0.0000       1.198417        32.6106 
 197   0.0000       1.217181        33.1212 
 198   0.0000       1.225220        33.3399 
 199   0.0000       1.227580        33.4041 
 200   0.0000       1.247084        33.9349 
 201   0.0000       1.257153        34.2089 
 202   0.0000       1.270787        34.5799 
 203   0.0000       1.294170        35.2162 
 204   0.0000       1.302701        35.4483 
 205   0.0000       1.309225        35.6258 
 206   0.0000       1.319213        35.8976 
 207   0.0000       1.326630        36.0994 
 208   0.0000       1.329256        36.1709 
 209   0.0000       1.343782        36.5662 
 210   0.0000       1.372421        37.3455 
 211   0.0000       1.375249        37.4224 
 212   0.0000       1.389184        37.8016 
 213   0.0000       1.406250        38.2660 
 214   0.0000       1.421714        38.6868 
 215   0.0000       1.436181        39.0805 
 216   0.0000       1.449067        39.4311 
 217   0.0000       1.457578        39.6627 
 218   0.0000       1.473267        40.0896 
 219   0.0000       1.487624        40.4803 
 220   0.0000       1.491728        40.5920 
 221   0.0000       1.505517        40.9672 
 222   0.0000       1.522029        41.4165 
 223   0.0000       1.523863        41.4664 
 224   0.0000       1.529654        41.6240 
 225   0.0000       1.544287        42.0222 
 226   0.0000       1.547422        42.1075 
 227   0.0000       1.551056        42.2064 
 228   0.0000       1.558433        42.4071 
 229   0.0000       1.562583        42.5200 
 230   0.0000       1.566911        42.6378 
 231   0.0000       1.572626        42.7933 
 232   0.0000       1.598286        43.4916 
 233   0.0000       1.599926        43.5362 
 234   0.0000       1.623458        44.1765 
 235   0.0000       1.630181        44.3595 
 236   0.0000       1.645238        44.7692 
 237   0.0000       1.649539        44.8862 
 238   0.0000       1.670326        45.4519 
 239   0.0000       1.678715        45.6801 
 240   0.0000       1.694739        46.1162 
 241   0.0000       1.699099        46.2348 
 242   0.0000       1.707889        46.4740 
 243   0.0000       1.721778        46.8520 
 244   0.0000       1.728118        47.0245 
 245   0.0000       1.738565        47.3088 
 246   0.0000       1.753689        47.7203 
 247   0.0000       1.754920        47.7538 
 248   0.0000       1.770127        48.1676 
 249   0.0000       1.776688        48.3461 
 250   0.0000       1.798596        48.9423 
 251   0.0000       1.805078        49.1187 
 252   0.0000       1.826478        49.7010 
 253   0.0000       1.830460        49.8094 
 254   0.0000       1.842009        50.1236 
 255   0.0000       1.859723        50.6056 
 256   0.0000       1.878505        51.1167 
 257   0.0000       1.883200        51.2445 
 258   0.0000       1.903737        51.8033 
 259   0.0000       1.909172        51.9512 
 260   0.0000       1.918857        52.2147 
 261   0.0000       1.932269        52.5797 
 262   0.0000       1.938381        52.7460 
 263   0.0000       1.959473        53.3200 
 264   0.0000       1.963101        53.4187 
 265   0.0000       1.983941        53.9858 
 266   0.0000       1.995589        54.3027 
 267   0.0000       2.028913        55.2095 
 268   0.0000       2.046544        55.6893 
 269   0.0000       2.057172        55.9785 
 270   0.0000       2.059063        56.0299 
 271   0.0000       2.064763        56.1850 
 272   0.0000       2.078549        56.5602 
 273   0.0000       2.088659        56.8353 
 274   0.0000       2.107236        57.3408 
 275   0.0000       2.124077        57.7991 
 276   0.0000       2.144038        58.3422 
 277   0.0000       2.156716        58.6872 
 278   0.0000       2.162091        58.8335 
 279   0.0000       2.186542        59.4988 
 280   0.0000       2.196029        59.7570 
 281   0.0000       2.219574        60.3977 
 282   0.0000       2.224760        60.5388 
 283   0.0000       2.237812        60.8940 
 284   0.0000       2.252984        61.3068 
 285   0.0000       2.260837        61.5205 
 286   0.0000       2.275565        61.9213 
 287   0.0000       2.283306        62.1319 
 288   0.0000       2.286235        62.2116 
 289   0.0000       2.307621        62.7936 
 290   0.0000       2.320564        63.1458 
 291   0.0000       2.326224        63.2998 
 292   0.0000       2.340194        63.6799 
 293   0.0000       2.351178        63.9788 
 294   0.0000       2.370214        64.4968 
 295   0.0000       2.397097        65.2283 
 296   0.0000       2.408534        65.5396 
 297   0.0000       2.421180        65.8837 
 298   0.0000       2.443775        66.4985 
 299   0.0000       2.452922        66.7474 
 300   0.0000       2.461936        66.9927 
 301   0.0000       2.474860        67.3444 
 302   0.0000       2.496977        67.9462 
 303   0.0000       2.523485        68.6675 
 304   0.0000       2.539695        69.1086 
 305   0.0000       2.553666        69.4888 
 306   0.0000       2.569765        69.9269 
 307   0.0000       2.581142        70.2364 
 308   0.0000       2.584774        70.3353 
 309   0.0000       2.592488        70.5452 
 310   0.0000       2.597327        70.6769 
 311   0.0000       2.612470        71.0889 
 312   0.0000       2.627705        71.5035 
 313   0.0000       2.630413        71.5772 
 314   0.0000       2.647253        72.0354 
 315   0.0000       2.658213        72.3337 
 316   0.0000       2.681090        72.9562 
 317   0.0000       2.690372        73.2088 
 318   0.0000       2.694762        73.3282 
 319   0.0000       2.701538        73.5126 
 320   0.0000       2.706753        73.6545 
 321   0.0000       2.714801        73.8735 
 322   0.0000       2.719605        74.0042 
 323   0.0000       2.728559        74.2479 
 324   0.0000       2.735674        74.4415 
 325   0.0000       2.749182        74.8091 
 326   0.0000       2.751980        74.8852 
 327   0.0000       2.758720        75.0686 
 328   0.0000       2.768716        75.3406 
 329   0.0000       2.773558        75.4723 
 330   0.0000       2.789342        75.9019 
 331   0.0000       2.792778        75.9953 
 332   0.0000       2.808136        76.4133 
 333   0.0000       2.825565        76.8875 
 334   0.0000       2.832020        77.0632 
 335   0.0000       2.841074        77.3096 
 336   0.0000       2.844337        77.3983 
 337   0.0000       2.851235        77.5860 
 338   0.0000       2.860159        77.8289 
 339   0.0000       2.869210        78.0752 
 340   0.0000       2.872739        78.1712 
 341   0.0000       2.892793        78.7169 
 342   0.0000       2.895441        78.7890 
 343   0.0000       2.912602        79.2559 
 344   0.0000       2.920648        79.4749 
 345   0.0000       2.932200        79.7892 
 346   0.0000       2.941370        80.0388 
 347   0.0000       2.952481        80.3411 
 348   0.0000       2.960364        80.5556 
 349   0.0000       2.970375        80.8280 
 350   0.0000       2.979686        81.0814 
 351   0.0000       2.995739        81.5182 
 352   0.0000       3.018164        82.1284 
 353   0.0000       3.027167        82.3734 
 354   0.0000       3.031886        82.5018 
 355   0.0000       3.043640        82.8216 
 356   0.0000       3.056971        83.1844 
 357   0.0000       3.068751        83.5050 
 358   0.0000       3.073348        83.6301 
 359   0.0000       3.097686        84.2923 
 360   0.0000       3.100221        84.3613 
 361   0.0000       3.113866        84.7326 
 362   0.0000       3.124775        85.0295 
 363   0.0000       3.131339        85.2081 
 364   0.0000       3.149528        85.7030 
 365   0.0000       3.159195        85.9661 
 366   0.0000       3.160390        85.9986 
 367   0.0000       3.165064        86.1258 
 368   0.0000       3.170128        86.2636 
 369   0.0000       3.178658        86.4957 
 370   0.0000       3.193904        86.9105 
 371   0.0000       3.195878        86.9643 
 372   0.0000       3.199764        87.0700 
 373   0.0000       3.212326        87.4118 
 374   0.0000       3.251470        88.4770 
 375   0.0000       3.258650        88.6724 
 376   0.0000       3.263335        88.7998 
 377   0.0000       3.273359        89.0726 
 378   0.0000       3.277120        89.1750 
 379   0.0000       3.288860        89.4944 
 380   0.0000       3.294941        89.6599 
 381   0.0000       3.297389        89.7265 
 382   0.0000       3.305458        89.9461 
 383   0.0000       3.313636        90.1686 
 384   0.0000       3.323333        90.4325 
 385   0.0000       3.331375        90.6513 
 386   0.0000       3.341582        90.9291 
 387   0.0000       3.360759        91.4509 
 388   0.0000       3.366291        91.6014 
 389   0.0000       3.387611        92.1816 
 390   0.0000       3.390438        92.2585 
 391   0.0000       3.394713        92.3748 
 392   0.0000       3.404489        92.6408 
 393   0.0000       3.411136        92.8217 
 394   0.0000       3.417307        92.9897 
 395   0.0000       3.423672        93.1629 
 396   0.0000       3.428314        93.2892 
 397   0.0000       3.449229        93.8583 
 398   0.0000       3.459190        94.1293 
 399   0.0000       3.469002        94.3963 
 400   0.0000       3.471676        94.4691 
 401   0.0000       3.474078        94.5345 
 402   0.0000       3.484767        94.8253 
 403   0.0000       3.485715        94.8511 
 404   0.0000       3.498417        95.1968 
 405   0.0000       3.513226        95.5998 
 406   0.0000       3.525763        95.9409 
 407   0.0000       3.529395        96.0397 
 408   0.0000       3.540098        96.3310 
 409   0.0000       3.545567        96.4798 
 410   0.0000       3.553086        96.6844 
 411   0.0000       3.563441        96.9662 
 412   0.0000       3.575850        97.3038 
 413   0.0000       3.589976        97.6882 
 414   0.0000       3.601357        97.9979 
 415   0.0000       3.614907        98.3666 
 416   0.0000       3.625441        98.6533 
 417   0.0000       3.632229        98.8380 
 418   0.0000       3.643586        99.1470 
 419   0.0000       3.661803        99.6427 
 420   0.0000       3.696850       100.5964 
 421   0.0000       3.710054       100.9557 
 422   0.0000       3.775850       102.7461 
 423   0.0000       3.784531       102.9823 
 424   0.0000       3.796110       103.2974 
 425   0.0000       3.808731       103.6408 
 426   0.0000       3.813782       103.7783 
 427   0.0000       3.829623       104.2093 
 428   0.0000       3.897423       106.0543 
 429   0.0000       3.911448       106.4359 
 430   0.0000       3.924733       106.7974 
 431   0.0000       3.946575       107.3918 
 432   0.0000       3.963463       107.8513 
 433   0.0000       3.982530       108.3702 
 434   0.0000       4.012840       109.1949 
 435   0.0000       4.021945       109.4427 
 436   0.0000       4.036591       109.8412 
 437   0.0000       4.044844       110.0658 
 438   0.0000       4.051820       110.2556 
 439   0.0000       4.084876       111.1551 
 440   0.0000       4.101328       111.6028 
 441   0.0000       4.149448       112.9122 
 442   0.0000       4.171094       113.5012 
 443   0.0000       4.175106       113.6104 
 444   0.0000       4.178633       113.7064 
 445   0.0000       4.187340       113.9433 
 446   0.0000       4.200552       114.3028 
 447   0.0000       4.222113       114.8895 
 448   0.0000       4.229311       115.0854 
 449   0.0000       4.238093       115.3244 
 450   0.0000       4.243781       115.4792 
 451   0.0000       4.251083       115.6778 
 452   0.0000       4.253359       115.7398 
 453   0.0000       4.259387       115.9038 
 454   0.0000       4.272622       116.2640 
 455   0.0000       4.281903       116.5165 
 456   0.0000       4.289603       116.7260 
 457   0.0000       4.312098       117.3381 
 458   0.0000       4.316103       117.4471 
 459   0.0000       4.349332       118.3514 
 460   0.0000       4.391443       119.4972 
 461   0.0000       4.409623       119.9919 
 462   0.0000       4.426316       120.4462 
 463   0.0000       4.446525       120.9961 
 464   0.0000       4.499968       122.4504 
 465   0.0000       4.514448       122.8444 
 466   0.0000       4.530833       123.2902 
 467   0.0000       4.574759       124.4855 
 468   0.0000       4.630087       125.9911 
 469   0.0000       4.638261       126.2135 
 470   0.0000       4.645460       126.4094 
 471   0.0000       4.652471       126.6002 
 472   0.0000       4.682084       127.4060 
 473   0.0000       4.688935       127.5924 
 474   0.0000       4.708222       128.1172 
 475   0.0000       4.749011       129.2272 
 476   0.0000       4.780511       130.0843 
 477   0.0000       4.847868       131.9172 
 478   0.0000       4.898095       133.2839 
 479   0.0000       4.928356       134.1074 
 480   0.0000       4.939053       134.3985 
 481   0.0000       4.952375       134.7610 
 482   0.0000       4.962338       135.0321 
 483   0.0000       4.979239       135.4920 
 484   0.0000       4.994356       135.9033 
 485   0.0000       5.004185       136.1708 
 486   0.0000       5.044820       137.2765 
 487   0.0000       5.207901       141.7142 
 488   0.0000       5.236741       142.4990 
 489   0.0000       5.273713       143.5050 
 490   0.0000       5.275592       143.5562 
 491   0.0000       5.308231       144.4443 
 492   0.0000       5.369851       146.1211 
 493   0.0000       5.404568       147.0658 
 494   0.0000       5.449866       148.2984 
 495   0.0000       5.485924       149.2796 
 496   0.0000       5.500834       149.6853 
 497   0.0000       5.512673       150.0075 
 498   0.0000       5.534522       150.6020 
 499   0.0000       5.553603       151.1212 
 500   0.0000       5.608970       152.6278 
 501   0.0000       5.646721       153.6551 
 502   0.0000       5.779855       157.2779 
 503   0.0000       5.816381       158.2718 
 504   0.0000       5.838044       158.8613 
 505   0.0000       5.928300       161.3172 
 506   0.0000       6.021736       163.8598 
 507   0.0000       6.039621       164.3464 
 508   0.0000       6.356044       172.9567 
 509   0.0000       6.382026       173.6637 
 510   0.0000       6.432140       175.0274 
 511   0.0000       6.438775       175.2080 
 512   0.0000       6.562804       178.5830 
 513   0.0000       6.664665       181.3548 
 514   0.0000       6.733408       183.2253 
 515   0.0000       6.807894       185.2522 
 516   0.0000       6.824540       185.7052 
 517   0.0000       6.878769       187.1808 
 518   0.0000       7.008207       190.7030 
 519   0.0000       7.195121       195.7892 
 520   0.0000       7.306898       198.8308 
 521   0.0000       7.438509       202.4121 
 522   0.0000      22.121390       601.9536 
 523   0.0000      22.434008       610.4604 
 524   0.0000      22.478814       611.6796 
 525   0.0000      22.763086       619.4151 
 526   0.0000      22.780252       619.8822 
 527   0.0000      22.795855       620.3068 
 528   0.0000      22.850905       621.8047 
 529   0.0000      22.858656       622.0157 
 530   0.0000      22.871911       622.3763 
 531   0.0000      23.033950       626.7857 
 532   0.0000      23.109896       628.8522 
 533   0.0000      23.389716       636.4665 
 534   0.0000      23.559879       641.0969 
 535   0.0000      44.028393      1198.0735 
 536   0.0000      44.317434      1205.9387 

                    ********************************
                    * MULLIKEN POPULATION ANALYSIS *
                    ********************************

-----------------------
MULLIKEN ATOMIC CHARGES
-----------------------
   0 C :    0.149560
   1 C :   -0.238174
   2 C :   -0.223523
   3 H :    0.154784
   4 H :    0.150917
   5 C :   -0.253440
   6 C :   -0.258245
   7 H :    0.156383
   8 H :    0.141797
   9 C :    0.278784
  10 O :   -0.433462
  11 H :    0.367844
  12 C :    0.155143
  13 C :   -0.216040
  14 C :   -0.251667
  15 C :   -0.256763
  16 C :   -0.294419
  17 C :    0.329894
  18 H :    0.150480
  19 H :    0.153710
  20 H :    0.135859
  21 H :    0.160643
  22 O :   -0.261629
  23 C :   -0.253215
  24 H :    0.146805
  25 H :    0.146914
  26 H :    0.161059
Sum of atomic charges:    0.0000000

--------------------------------
MULLIKEN REDUCED ORBITAL CHARGES
--------------------------------
  0 C s       :     3.199690  s :     3.199690
      pz      :     0.698121  p :     2.500447
      px      :     0.930812
      py      :     0.871514
      dz2     :     0.032528  d :     0.140446
      dxz     :     0.029467
      dyz     :     0.039094
      dx2y2   :     0.019717
      dxy     :     0.019640
      f0      :     0.001258  f :     0.009856
      f+1     :     0.001335
      f-1     :     0.002979
      f+2     :     0.000997
      f-2     :     0.001028
      f+3     :     0.000884
      f-3     :     0.001375
  1 C s       :     3.216778  s :     3.216778
      pz      :     0.979139  p :     2.916353
      px      :     0.945943
      py      :     0.991271
      dz2     :     0.019553  d :     0.097631
      dxz     :     0.023546
      dyz     :     0.035047
      dx2y2   :     0.010616
      dxy     :     0.008869
      f0      :     0.000911  f :     0.007412
      f+1     :     0.001586
      f-1     :     0.002038
      f+2     :     0.000660
      f-2     :     0.000599
      f+3     :     0.000659
      f-3     :     0.000959
  2 C s       :     3.220244  s :     3.220244
      pz      :     0.955339  p :     2.898258
      px      :     0.953764
      py      :     0.989154
      dz2     :     0.021429  d :     0.097673
      dxz     :     0.024244
      dyz     :     0.033264
      dx2y2   :     0.008254
      dxy     :     0.010482
      f0      :     0.000938  f :     0.007348
      f+1     :     0.001479
      f-1     :     0.002102
      f+2     :     0.000582
      f-2     :     0.000718
      f+3     :     0.000758
      f-3     :     0.000771
  3 H s       :     0.822870  s :     0.822870
      pz      :     0.006451  p :     0.022346
      px      :     0.005465
      py      :     0.010430
  4 H s       :     0.826766  s :     0.826766
      pz      :     0.005955  p :     0.022316
      px      :     0.006038
      py      :     0.010323
[...]
     70      -0.000010  -0.000522   0.000039  -0.000675  -0.000018  -0.000184
     71      -0.000109   0.000957  -0.000408   0.001106   0.000087   0.000243
     72      -0.000141  -0.002939  -0.000021  -0.004055   0.000060  -0.000574
     73       0.000224   0.002419   0.000388   0.003426  -0.000132   0.000457
     74      -0.000049  -0.001125   0.000125  -0.001580  -0.000029  -0.000302
     75       0.000113   0.003903  -0.000003   0.005257  -0.000206   0.000656
     76       0.000121   0.001196   0.000327   0.001664  -0.000154   0.000169
     77       0.000006  -0.000477   0.000190  -0.000662  -0.000026  -0.000147
     78      -0.000184   0.001684  -0.000586   0.001976   0.000078   0.000275
     79      -0.000343   0.003457  -0.001293   0.004126   0.000232   0.000774
     80       0.001124  -0.010134   0.003358  -0.011794  -0.000310  -0.001223
                 78         79         80    
      0      -0.000138  -0.000004  -0.000021
      1       0.000918  -0.000118   0.000028
      2      -0.001799  -0.000045   0.000120
      3      -0.006261  -0.000196   0.000041
      4       0.016720   0.000534  -0.000075
      5      -0.010604  -0.000376  -0.000173
      6       0.015751   0.000657   0.000053
      7      -0.032033  -0.001309  -0.000099
      8      -0.020624  -0.000793  -0.000100
      9       0.069965   0.002085   0.000158
     10      -0.189964  -0.005745  -0.000632
     11       0.120173   0.003706   0.000864
     12      -0.176857  -0.007345  -0.000299
     13       0.365737   0.015343   0.000651
     14       0.211852   0.008995   0.000238
     15      -0.003547  -0.000119  -0.000342
     16       0.007500   0.000256   0.000594
     17       0.004657   0.000153   0.000943
     18       0.016144   0.000203  -0.000295
     19      -0.046094  -0.000558   0.000605
     20       0.031272   0.000401   0.000615
     21       0.038987   0.001356   0.001749
     22      -0.082699  -0.002882  -0.003720
     23      -0.048615  -0.001794  -0.003949
     24      -0.185142  -0.002189  -0.000171
     25       0.523091   0.006291   0.000308
     26      -0.341798  -0.004174   0.000046
     27      -0.000890  -0.000017   0.000817
     28       0.001619   0.000017  -0.001969
     29       0.002637   0.000094  -0.000570
     30       0.000080  -0.000002   0.022836
     31      -0.000112   0.000013  -0.052995
     32      -0.000376  -0.000043  -0.023188
     33       0.000501   0.000080  -0.366920
     34      -0.000720  -0.000198   0.855210
     35      -0.002369  -0.000099   0.360662
     36      -0.000217   0.000119   0.000009
     37      -0.000927   0.001020   0.000001
     38       0.001011   0.000893  -0.000075
     39       0.004088   0.000356  -0.000006
     40       0.024733   0.002017   0.000014
     41       0.016563   0.001075   0.000022
     42      -0.002085  -0.004738   0.000002
     43      -0.007594  -0.016420  -0.000011
     44       0.003649   0.011564   0.000019
     45       0.008108  -0.000087   0.000011
     46       0.030530  -0.000131   0.000025
     47      -0.018096   0.000530   0.000016
     48       0.000517  -0.011328  -0.000014
     49       0.003285  -0.072492  -0.000021
     50       0.001894  -0.042937   0.000016
     51      -0.000144   0.000773   0.000007
     52      -0.001342   0.002887   0.000013
     53      -0.001402  -0.002191  -0.000055
     54      -0.047398  -0.003550  -0.000003
     55      -0.283249  -0.021339  -0.000009
     56      -0.173121  -0.012678  -0.000081
     57       0.023138   0.050408   0.000025
     58       0.086256   0.185306   0.000010
     59      -0.045141  -0.100360  -0.000065
     60      -0.091494   0.001141  -0.000031
     61      -0.347477   0.004065  -0.000134
     62       0.193952  -0.003106   0.000115
     63      -0.006143   0.129314   0.000004
     64      -0.038812   0.826219   0.000118
     65      -0.023212   0.493540   0.000107
     66       0.000010  -0.000086  -0.000004
     67       0.000160  -0.000402   0.000008
     68       0.000266   0.000066   0.000061
     69       0.000000  -0.000567  -0.000003
     70      -0.000042  -0.001961  -0.000023
     71      -0.000048   0.001942  -0.000017
     72       0.000211  -0.013420  -0.000050
     73      -0.000116   0.011930   0.000102
     74       0.000061  -0.006256  -0.000024
     75      -0.000288   0.017818   0.000078
     76      -0.000045   0.006056   0.000074
     77       0.000037  -0.003247  -0.000003
     78      -0.000188   0.003810  -0.000006
     79      -0.000277   0.008954   0.000005
     80       0.001389  -0.021137   0.000072


-----------
IR SPECTRUM
-----------

 Mode   freq       eps      Int      T**2         TX        TY        TZ
       cm**-1   L/(mol*cm) km/mol    a.u.
----------------------------------------------------------------------------
  6:     47.40   0.000594    3.00  0.003913  (-0.061583 -0.001036 -0.010928)
  7:     63.49   0.000315    1.59  0.001549  ( 0.038954  0.001688  0.005401)
  8:     82.36   0.000217    1.10  0.000821  ( 0.000615 -0.019082  0.021370)
  9:    106.51   0.000536    2.71  0.001572  ( 0.038479 -0.003360 -0.008923)
 10:    164.00   0.000443    2.24  0.000844  ( 0.022524 -0.009735  0.015548)
 11:    222.65   0.000134    0.68  0.000188  ( 0.011597  0.003117 -0.006632)
 12:    240.94   0.000059    0.30  0.000077  ( 0.000766 -0.000141 -0.008724)
 13:    267.53   0.000318    1.61  0.000371  ( 0.018793  0.003584  0.002338)
 14:    286.63   0.000464    2.35  0.000505  ( 0.012801 -0.010134  0.015455)
 15:    374.01   0.034209  172.88  0.028543  ( 0.155729  0.062588  0.019340)
 16:    378.02   0.003469   17.53  0.002864  (-0.035433 -0.011158  0.038524)
 17:    410.34   0.000082    0.41  0.000062  (-0.004006 -0.003902 -0.005568)
 18:    426.00   0.000224    1.13  0.000164  ( 0.000439 -0.000465 -0.012796)
 19:    431.14   0.000030    0.15  0.000022  (-0.001274 -0.000573 -0.004441)
 20:    453.29   0.001788    9.04  0.001231  (-0.009798 -0.000582  0.033687)
 21:    483.61   0.000711    3.59  0.000459  (-0.013091  0.006325 -0.015735)
 22:    531.33   0.010239   51.74  0.006014  (-0.076430 -0.011997  0.005323)
 23:    555.35   0.010622   53.68  0.005969  ( 0.004077 -0.011904  0.076225)
 24:    561.42   0.001862    9.41  0.001035  (-0.005464  0.029798  0.010838)
 25:    645.06   0.000713    3.61  0.000345  ( 0.010392  0.007267  0.013577)
 26:    655.73   0.000238    1.20  0.000113  (-0.003507  0.009559 -0.003095)
 27:    681.77   0.000206    1.04  0.000094  ( 0.000380  0.007770 -0.005817)
 28:    739.83   0.000665    3.36  0.000281  ( 0.016644  0.000362 -0.001847)
 29:    762.64   0.000267    1.35  0.000109  ( 0.000598 -0.010389  0.001053)
 30:    821.66   0.008830   44.62  0.003354  (-0.007762 -0.011687  0.056185)
 31:    829.30   0.003917   19.80  0.001474  (-0.037190 -0.003190 -0.008987)
 32:    831.59   0.000087    0.44  0.000033  ( 0.003893 -0.004122  0.000812)
 33:    846.24   0.037100  187.49  0.013681  (-0.116269 -0.009874 -0.008071)
 34:    857.93   0.002447   12.37  0.000890  ( 0.000324  0.004543  0.029484)
 35:    870.31   0.003779   19.10  0.001355  (-0.007499  0.036037 -0.000140)
 36:    961.32   0.000011    0.06  0.000004  ( 0.000399  0.001475 -0.001118)
 37:    971.69   0.000105    0.53  0.000034  (-0.000781 -0.005478  0.001799)
 38:    978.28   0.000052    0.26  0.000017  ( 0.000100 -0.002240 -0.003410)
 39:    980.58   0.000055    0.28  0.000018  (-0.000415  0.002386  0.003415)
 40:   1018.93   0.000794    4.01  0.000243  (-0.001231  0.003513  0.015142)
 41:   1032.62   0.000191    0.96  0.000058  (-0.000179  0.003693  0.006630)
 42:   1056.78   0.001164    5.88  0.000344  ( 0.002758  0.017592  0.005164)
 43:   1084.50   0.019460   98.34  0.005600  ( 0.004871  0.053227  0.052371)
 44:   1129.32   0.002133   10.78  0.000589  (-0.014804  0.013481  0.013727)
 45:   1134.99   0.005897   29.80  0.001621  (-0.001188 -0.040073  0.003761)
 46:   1171.49   0.000184    0.93  0.000049  (-0.006858  0.001398  0.000247)
 47:   1188.86   0.018494   93.46  0.004854  (-0.006229  0.010625  0.068576)
 48:   1198.71   0.052695  266.30  0.013718  ( 0.006418  0.013296 -0.116191)
 49:   1199.84   0.007213   36.45  0.001876  ( 0.000748 -0.000465  0.043304)
 50:   1204.83   0.002920   14.76  0.000756  ( 0.000571  0.017354  0.021326)
 51:   1294.21   0.123182  622.51  0.029702  (-0.010920  0.018303  0.171020)
 52:   1303.84   0.014764   74.61  0.003534  ( 0.008682 -0.007377 -0.058342)
 53:   1312.36   0.009199   46.49  0.002187  (-0.003887  0.035181  0.030573)
 54:   1325.45   0.000429    2.17  0.000101  ( 0.001112 -0.009947  0.000851)
 55:   1335.91   0.000840    4.25  0.000196  ( 0.003716 -0.004393 -0.012776)
 56:   1361.89   0.009681   48.93  0.002218  (-0.001712 -0.011824 -0.045559)
 57:   1381.73   0.009621   48.62  0.002173  (-0.006023  0.005597  0.045883)
 58:   1448.91   0.000176    0.89  0.000038  (-0.000269  0.005885  0.001770)
 59:   1468.09   0.004691   23.70  0.000997  ( 0.003259  0.005753 -0.030876)
 60:   1472.45   0.002819   14.25  0.000598  (-0.023989  0.004574  0.001063)
 61:   1479.52   0.015056   76.08  0.003176  ( 0.004552 -0.001716 -0.056142)
 62:   1487.58   0.002103   10.63  0.000441  (-0.001440 -0.001625  0.020892)
 63:   1539.89   0.117670  594.65  0.023846  ( 0.012621 -0.004803 -0.153830)
 64:   1572.10   0.000168    0.85  0.000033  ( 0.000391  0.005575  0.001430)
 65:   1629.19   0.006218   31.42  0.001191  ( 0.002880  0.020325 -0.027743)
 66:   1650.75   0.001347    6.81  0.000255  ( 0.005943 -0.008790  0.011920)
 67:   1671.71   0.001690    8.54  0.000315  ( 0.001081  0.002838  0.017498)
 68:   1676.09   0.042398  214.26  0.007894  (-0.008353  0.006802  0.088192)
 69:   3033.68   0.014228   71.90  0.001464  ( 0.002725  0.026847  0.027118)
 70:   3102.87   0.008530   43.11  0.000858  ( 0.028672 -0.005377  0.002619)
 71:   3163.70   0.004501   22.75  0.000444  (-0.003290 -0.007285  0.019496)
 72:   3184.07   0.004132   20.88  0.000405  (-0.001770  0.002181  0.019927)
 73:   3190.92   0.002817   14.23  0.000275  ( 0.004906  0.001707 -0.015763)
 74:   3191.99   0.001176    5.95  0.000115  ( 0.001396  0.001172  0.010568)
 75:   3195.68   0.000700    3.54  0.000068  ( 0.001542  0.008121 -0.000030)
 76:   3202.81   0.001115    5.64  0.000109  ( 0.005308 -0.008846 -0.001489)
 77:   3207.88   0.003139   15.86  0.000305  (-0.000014  0.015390 -0.008279)
 78:   3208.84   0.000268    1.36  0.000026  ( 0.003112 -0.000026  0.004052)
 79:   3227.65   0.000960    4.85  0.000093  (-0.000195 -0.004826 -0.008335)
 80:   3823.53   0.042828  216.43  0.003495  (-0.016910  0.033290  0.045840)

* The epsilon (eps) is given for a Dirac delta lineshape.
** The dipole moment derivative (T) already includes vibrational overlap.

The first frequency considered to be a vibration is 6
The total number of vibrations considered is 75


--------------------------
THERMOCHEMISTRY AT 298.15K
--------------------------

Temperature         ... 298.15 K
Pressure            ... 1.00 atm
Total Mass          ... 200.24 AMU

Throughout the following assumptions are being made:
  (1) The electronic state is orbitally nondegenerate
  (2) There are no thermally accessible electronically excited states
  (3) Hindered rotations indicated by low frequency modes are not
      treated as such but are treated as vibrations and this may
      cause some error
  (4) All equations used are the standard statistical mechanics
      equations for an ideal gas
  (5) All vibrations are strictly harmonic

freq.      47.40  E(vib)   ...       0.53 
freq.      63.49  E(vib)   ...       0.51 
freq.      82.36  E(vib)   ...       0.48 
freq.     106.51  E(vib)   ...       0.45 
freq.     164.00  E(vib)   ...       0.39 
freq.     222.65  E(vib)   ...       0.33 
freq.     240.94  E(vib)   ...       0.31 
freq.     267.53  E(vib)   ...       0.29 
freq.     286.63  E(vib)   ...       0.27 
freq.     374.01  E(vib)   ...       0.21 
freq.     378.02  E(vib)   ...       0.21 
freq.     410.34  E(vib)   ...       0.19 
freq.     426.00  E(vib)   ...       0.18 
freq.     431.14  E(vib)   ...       0.18 
freq.     453.29  E(vib)   ...       0.16 
freq.     483.61  E(vib)   ...       0.15 
freq.     531.33  E(vib)   ...       0.13 
freq.     555.35  E(vib)   ...       0.12 
freq.     561.42  E(vib)   ...       0.11 
freq.     645.06  E(vib)   ...       0.09 
freq.     655.73  E(vib)   ...       0.08 
freq.     681.77  E(vib)   ...       0.08 
freq.     739.83  E(vib)   ...       0.06 
freq.     762.64  E(vib)   ...       0.06 
freq.     821.66  E(vib)   ...       0.05 
freq.     829.30  E(vib)   ...       0.04 
freq.     831.59  E(vib)   ...       0.04 
freq.     846.24  E(vib)   ...       0.04 
freq.     857.93  E(vib)   ...       0.04 
freq.     870.31  E(vib)   ...       0.04 
freq.     961.32  E(vib)   ...       0.03 
freq.     971.69  E(vib)   ...       0.03 
freq.     978.28  E(vib)   ...       0.03 
freq.     980.58  E(vib)   ...       0.02 
freq.    1018.93  E(vib)   ...       0.02 
freq.    1032.62  E(vib)   ...       0.02 
freq.    1056.78  E(vib)   ...       0.02 
freq.    1084.50  E(vib)   ...       0.02 
freq.    1129.32  E(vib)   ...       0.01 
freq.    1134.99  E(vib)   ...       0.01 
freq.    1171.49  E(vib)   ...       0.01 
freq.    1188.86  E(vib)   ...       0.01 
freq.    1198.71  E(vib)   ...       0.01 
freq.    1199.84  E(vib)   ...       0.01 
freq.    1204.83  E(vib)   ...       0.01 
freq.    1294.21  E(vib)   ...       0.01 
freq.    1303.84  E(vib)   ...       0.01 
freq.    1312.36  E(vib)   ...       0.01 
freq.    1325.45  E(vib)   ...       0.01 
freq.    1335.91  E(vib)   ...       0.01 
freq.    1361.89  E(vib)   ...       0.01 
freq.    1381.73  E(vib)   ...       0.01 
freq.    1448.91  E(vib)   ...       0.00 
freq.    1468.09  E(vib)   ...       0.00 
freq.    1472.45  E(vib)   ...       0.00 
freq.    1479.52  E(vib)   ...       0.00 
freq.    1487.58  E(vib)   ...       0.00 
freq.    1539.89  E(vib)   ...       0.00 
freq.    1572.10  E(vib)   ...       0.00 
freq.    1629.19  E(vib)   ...       0.00 
freq.    1650.75  E(vib)   ...       0.00 
freq.    1671.71  E(vib)   ...       0.00 
freq.    1676.09  E(vib)   ...       0.00 
freq.    3033.68  E(vib)   ...       0.00 
freq.    3102.87  E(vib)   ...       0.00 
freq.    3163.70  E(vib)   ...       0.00 
freq.    3184.07  E(vib)   ...       0.00 
freq.    3190.92  E(vib)   ...       0.00 
freq.    3191.99  E(vib)   ...       0.00 
freq.    3195.68  E(vib)   ...       0.00 
freq.    3202.81  E(vib)   ...       0.00 
freq.    3207.88  E(vib)   ...       0.00 
freq.    3208.84  E(vib)   ...       0.00 
freq.    3227.65  E(vib)   ...       0.00 
freq.    3823.53  E(vib)   ...       0.00 

------------
INNER ENERGY
------------

The inner energy is: U= E(el) + E(ZPE) + E(vib) + E(rot) + E(trans)
    E(el)   - is the total energy from the electronic structure calculation
              = E(kin-el) + E(nuc-el) + E(el-el) + E(nuc-nuc)
    E(ZPE)  - the the zero temperature vibrational energy from the frequency calculation
    E(vib)  - the the finite temperature correction to E(ZPE) due to population
              of excited vibrational states
    E(rot)  - is the rotational thermal energy
    E(trans)- is the translational thermal energy

Summary of contributions to the inner energy U:
Electronic energy                ...   -652.57629860 Eh
Zero point energy                ...      0.21890022 Eh     137.36 kcal/mol
Thermal vibrational correction   ...      0.00979342 Eh       6.15 kcal/mol
Thermal rotational correction    ...      0.00141627 Eh       0.89 kcal/mol
Thermal translational correction ...      0.00141627 Eh       0.89 kcal/mol
-----------------------------------------------------------------------
Total thermal energy                   -652.34477241 Eh


Summary of corrections to the electronic energy:
(perhaps to be used in another calculation)
Total thermal correction                  0.01262597 Eh       7.92 kcal/mol
Non-thermal (ZPE) correction              0.21890022 Eh     137.36 kcal/mol
-----------------------------------------------------------------------
Total correction                          0.23152619 Eh     145.28 kcal/mol


--------
ENTHALPY
--------

The enthalpy is H = U + kB*T
                kB is Boltzmann's constant
Total free energy                 ...   -652.34477241 Eh 
Thermal Enthalpy correction       ...      0.00094421 Eh       0.59 kcal/mol
-----------------------------------------------------------------------
Total Enthalpy                    ...   -652.34382820 Eh


Note: Only C1 symmetry has been detected, increase convergence thresholds 
      if your molecule has a higher symmetry. Symmetry factor of 1.0 is   
      used for the rotational entropy correction. 
 

Note: Rotational entropy computed according to Herzberg 
Infrared and Raman Spectra, Chapter V,1, Van Nostrand Reinhold, 1945 
Point Group:  C1, Symmetry Number:   1  
Rotational constants in cm-1:     0.087311     0.007910     0.007361 

Vibrational entropy computed according to the QRRHO of S. Grimme
Chem.Eur.J. 2012 18 9955


-------
ENTROPY
-------

The entropy contributions are T*S = T*(S(el)+S(vib)+S(rot)+S(trans))
     S(el)   - electronic entropy
     S(vib)  - vibrational entropy
     S(rot)  - rotational entropy
     S(trans)- translational entropy
The entropies will be listed as multiplied by the temperature to get
units of energy

Electronic entropy                ...      0.00000000 Eh      0.00 kcal/mol
Vibrational entropy               ...      0.01649080 Eh     10.35 kcal/mol
Rotational entropy                ...      0.01526536 Eh      9.58 kcal/mol
Translational entropy             ...      0.01985460 Eh     12.46 kcal/mol
-----------------------------------------------------------------------
Final entropy term                ...      0.05161076 Eh     32.39 kcal/mol

In case the symmetry of your molecule has not been determined correctly
or in case you have a reason to use a different symmetry number we print 
out the resulting rotational entropy values for sn=1,12 :
 --------------------------------------------------------
|  sn= 1 | S(rot)=       0.01526536 Eh      9.58 kcal/mol|
|  sn= 2 | S(rot)=       0.01461091 Eh      9.17 kcal/mol|
|  sn= 3 | S(rot)=       0.01422807 Eh      8.93 kcal/mol|
|  sn= 4 | S(rot)=       0.01395645 Eh      8.76 kcal/mol|
|  sn= 5 | S(rot)=       0.01374576 Eh      8.63 kcal/mol|
|  sn= 6 | S(rot)=       0.01357362 Eh      8.52 kcal/mol|
|  sn= 7 | S(rot)=       0.01342807 Eh      8.43 kcal/mol|
|  sn= 8 | S(rot)=       0.01330199 Eh      8.35 kcal/mol|
|  sn= 9 | S(rot)=       0.01319079 Eh      8.28 kcal/mol|
|  sn=10 | S(rot)=       0.01309131 Eh      8.21 kcal/mol|
|  sn=11 | S(rot)=       0.01300132 Eh      8.16 kcal/mol|
|  sn=12 | S(rot)=       0.01291916 Eh      8.11 kcal/mol|
 --------------------------------------------------------


-------------------
GIBBS FREE ENERGY
-------------------

The Gibbs free energy is G = H - T*S

Total enthalpy                    ...   -652.34382820 Eh 
Total entropy correction          ...     -0.05161076 Eh    -32.39 kcal/mol
-----------------------------------------------------------------------
Final Gibbs free energy         ...   -652.39543896 Eh

For completeness - the Gibbs free energy minus the electronic energy
G-E(el)                           ...      0.18085963 Eh    113.49 kcal/mol


Timings for individual modules:

Sum of individual times         ...      779.615 sec (=  12.994 min)
GTO integral calculation        ...        4.623 sec (=   0.077 min)   0.6 %
SCF iterations                  ...      122.554 sec (=   2.043 min)  15.7 %
SCF Gradient evaluation         ...       24.909 sec (=   0.415 min)   3.2 %
Geometry relaxation             ...        0.271 sec (=   0.005 min)   0.0 %
Analytical frequency calculation...      627.259 sec (=  10.454 min)  80.5 %
                             ****ORCA TERMINATED NORMALLY****
TOTAL RUN TIME: 0 days 0 hours 13 minutes 6 seconds 462 msec
