
                                 *****************
                                 * O   R   C   A *
                                 *****************

                                            #,                                       
                                            ###                                      
                                            ####                                     
                                            #####                                    
                                            ######                                   
                                           ########,                                 
                                     ,,################,,,,,                         
                               ,,#################################,,                 
                          ,,##########################################,,             
                       ,#########################################, ''#####,          
                    ,#############################################,,   '####,        
                  ,##################################################,,,,####,       
                ,###########''''           ''''###############################       
              ,#####''   ,,,,##########,,,,          '''####'''          '####       
            ,##' ,,,,###########################,,,                        '##       
           ' ,,###''''                  '''############,,,                           
         ,,##''                                '''############,,,,        ,,,,,,###''
      ,#''                                            '''#######################'''  
     '                                                          ''''####''''         
             ,#######,   #######,   ,#######,      ##                                
            ,#'     '#,  ##    ##  ,#'     '#,    #''#        ######   ,####,        
            ##       ##  ##   ,#'  ##            #'  '#       #        #'  '#        
            ##       ##  #######   ##           ,######,      #####,   #    #        
            '#,     ,#'  ##    ##  '#,     ,#' ,#      #,         ##   #,  ,#        
             '#######'   ##     ##  '#######'  #'      '#     #####' # '####'        



                  #######################################################
                  #                        -***-                        #
                  #          Department of theory and spectroscopy      #
                  #    Directorship and core code : Frank Neese         #
                  #        Max Planck Institute fuer Kohlenforschung    #
                  #                Kaiser Wilhelm Platz 1               #
                  #                 D-45470 Muelheim/Ruhr               #
                  #                      Germany                        #
                  #                                                     #
                  #                  All rights reserved                #
                  #                        -***-                        #
                  #######################################################


                         Program Version 5.0.4 -  RELEASE  -


 With contributions from (in alphabetic order):
   Daniel Aravena         : Magnetic Suceptibility
   Michael Atanasov       : Ab Initio Ligand Field Theory (pilot matlab implementation)
   Alexander A. Auer      : GIAO ZORA, VPT2 properties, NMR spectrum
   Ute Becker             : Parallelization
   Giovanni Bistoni       : ED, misc. LED, open-shell LED, HFLD
   Martin Brehm           : Molecular dynamics
   Dmytro Bykov           : SCF Hessian
   Vijay G. Chilkuri      : MRCI spin determinant printing, contributions to CSF-ICE
   Dipayan Datta          : RHF DLPNO-CCSD density
   Achintya Kumar Dutta   : EOM-CC, STEOM-CC
   Dmitry Ganyushin       : Spin-Orbit,Spin-Spin,Magnetic field MRCI
   Miquel Garcia          : C-PCM and meta-GGA Hessian, CC/C-PCM, Gaussian charge scheme
   Yang Guo               : DLPNO-NEVPT2, F12-NEVPT2, CIM, IAO-localization
   Andreas Hansen         : Spin unrestricted coupled pair/coupled cluster methods
   Benjamin Helmich-Paris : MC-RPA, TRAH-SCF, COSX integrals
   Lee Huntington         : MR-EOM, pCC
   Robert Izsak           : Overlap fitted RIJCOSX, COSX-SCS-MP3, EOM
   Marcus Kettner         : VPT2
   Christian Kollmar      : KDIIS, OOCD, Brueckner-CCSD(T), CCSD density, CASPT2, CASPT2-K
   Simone Kossmann        : Meta GGA functionals, TD-DFT gradient, OOMP2, MP2 Hessian
   Martin Krupicka        : Initial AUTO-CI
   Lucas Lang             : DCDCAS
   Marvin Lechner         : AUTO-CI (C++ implementation), FIC-MRCC
   Dagmar Lenk            : GEPOL surface, SMD
   Dimitrios Liakos       : Extrapolation schemes; Compound Job, initial MDCI parallelization
   Dimitrios Manganas     : Further ROCIS development; embedding schemes
   Dimitrios Pantazis     : SARC Basis sets
   Anastasios Papadopoulos: AUTO-CI, single reference methods and gradients
   Taras Petrenko         : DFT Hessian,TD-DFT gradient, ASA, ECA, R-Raman, ABS, FL, XAS/XES, NRVS
   Peter Pinski           : DLPNO-MP2, DLPNO-MP2 Gradient
   Christoph Reimann      : Effective Core Potentials
   Marius Retegan         : Local ZFS, SOC
   Christoph Riplinger    : Optimizer, TS searches, QM/MM, DLPNO-CCSD(T), (RO)-DLPNO pert. Triples
   Tobias Risthaus        : Range-separated hybrids, TD-DFT gradient, RPA, STAB
   Michael Roemelt        : Original ROCIS implementation
   Masaaki Saitow         : Open-shell DLPNO-CCSD energy and density
   Barbara Sandhoefer     : DKH picture change effects
   Avijit Sen             : IP-ROCIS
   Kantharuban Sivalingam : CASSCF convergence, NEVPT2, FIC-MRCI
   Bernardo de Souza      : ESD, SOC TD-DFT
   Georgi Stoychev        : AutoAux, RI-MP2 NMR, DLPNO-MP2 response
   Willem Van den Heuvel  : Paramagnetic NMR
   Boris Wezisla          : Elementary symmetry handling
   Frank Wennmohs         : Technical directorship


 We gratefully acknowledge several colleagues who have allowed us to
 interface, adapt or use parts of their codes:
   Stefan Grimme, W. Hujo, H. Kruse, P. Pracht,  : VdW corrections, initial TS optimization,
                  C. Bannwarth, S. Ehlert          DFT functionals, gCP, sTDA/sTD-DF
   Ed Valeev, F. Pavosevic, A. Kumar             : LibInt (2-el integral package), F12 methods
   Garnet Chan, S. Sharma, J. Yang, R. Olivares  : DMRG
   Ulf Ekstrom                                   : XCFun DFT Library
   Mihaly Kallay                                 : mrcc  (arbitrary order and MRCC methods)
   Jiri Pittner, Ondrej Demel                    : Mk-CCSD
   Frank Weinhold                                : gennbo (NPA and NBO analysis)
   Christopher J. Cramer and Donald G. Truhlar   : smd solvation model
   Lars Goerigk                                  : TD-DFT with DH, B97 family of functionals
   V. Asgeirsson, H. Jonsson                     : NEB implementation
   FAccTs GmbH                                   : IRC, NEB, NEB-TS, DLPNO-Multilevel, CI-OPT
                                                   MM, QMMM, 2- and 3-layer-ONIOM, Crystal-QMMM,
                                                   LR-CPCM, SF, NACMEs, symmetry and pop. for TD-DFT,
                                                   nearIR, NL-DFT gradient (VV10), updates on ESD,
                                                   ML-optimized integration grids
   S Lehtola, MJT Oliveira, MAL Marques          : LibXC Library
   Liviu Ungur et al                             : ANISO software


 Your calculation uses the libint2 library for the computation of 2-el integrals
 For citations please refer to: http://libint.valeyev.net

 Your ORCA version has been built with support for libXC version: 5.1.0
 For citations please refer to: https://tddft.org/programs/libxc/

 This ORCA versions uses:
   CBLAS   interface :  Fast vector & matrix operations
   LAPACKE interface :  Fast linear algebra routines
   SCALAPACK package :  Parallel linear algebra routines
   Shared memory     :  Shared parallel matrices
   BLAS/LAPACK       :  OpenBLAS 0.3.15  USE64BITINT DYNAMIC_ARCH NO_AFFINITY Haswell SINGLE_THREADED
        Core in use  :  Haswell
   Copyright (c) 2011-2014, The OpenBLAS Project


Your calculation utilizes the atom-pairwise dispersion correction
with the Becke-Johnson damping scheme (D3BJ)
Cite in your paper:
S.Grimme, S.Ehrlich, L.Goerigk, J Comput Chem, (2011), 32, 1456–1465 
S.Grimme, J.Antony, S.Ehrlich and H.Krieg, J.Chem.Phys., 132, (2010), 154104 
   

================================================================================

----- Orbital basis set information -----
Your calculation utilizes the basis: def2-TZVP
   F. Weigend and R. Ahlrichs, Phys. Chem. Chem. Phys. 7, 3297 (2005).

----- AuxJ basis set information -----
Your calculation utilizes the auxiliary basis: def2/J
   F. Weigend, Phys. Chem. Chem. Phys. 8, 1057 (2006).

================================================================================
                                        WARNINGS
                       Please study these warnings very carefully!
================================================================================


WARNING: Geometry Optimization
  ===> : Switching off AutoStart
         For restart on a previous wavefunction, please use MOREAD

INFO   : the flag for use of the SHARK integral package has been found!

================================================================================
                                       INPUT FILE
================================================================================
NAME = 4-OMePh-PhenO/4-OMePh-PhenO.inp
|  1> %pal nprocs 24 end
|  2> %maxcore 3500
|  3> ! PBE0 D3BJ def2-TZVP TightSCF OPT FREQ TightOpt
|  4> ! CPCM(dmso)
|  5> %scf
|  6> MaxIter 800
|  7> end
|  8> %geom
|  9> MaxIter 800
| 10> MaxStep 0.2
| 11> end
| 12> *xyz -1 1
| 13> 
| 14> C       0.05941400     -0.50333600     -1.62208200
| 15> C      -0.38554800      0.61679000     -0.90699900
| 16> C       0.35229200     -1.64541800     -0.86452400
| 17> H      -0.64717500      1.52185700     -1.44853700
| 18> H       0.72274100     -2.53440300     -1.36788500
| 19> C      -0.53232200      0.60497800      0.46569300
| 20> C       0.21405400     -1.67440100      0.50854200
| 21> H      -0.89311200      1.49351900      0.97750200
| 22> H       0.46553900     -2.57862900      1.05710500
| 23> C      -0.23663400     -0.54541500      1.25993800
| 24> O      -0.36371200     -0.56364900      2.52996300
| 25> C       0.21545600     -0.48029700     -3.08286200
| 26> C       0.51223900      0.70409000     -3.77246900
| 27> C       0.07985900     -1.63413300     -3.85666300
| 28> C       0.66046100      0.73205100     -5.14515500
| 29> C       0.23572500     -1.62665300     -5.23728400
| 30> C       0.52573300     -0.43580400     -5.89356300
| 31> H       0.64962200      1.62556200     -3.21763800
| 32> H      -0.17234900     -2.57287900     -3.37587900
| 33> H       0.89718600      1.65842500     -5.65726700
| 34> H       0.11567800     -2.55094100     -5.78753000
| 35> O       0.69154400     -0.31647600     -7.23473800
| 36> C       0.58854400     -1.49152100     -8.01227500
| 37> H       1.33758500     -2.23198100     -7.71406600
| 38> H      -0.40791600     -1.93721200     -7.93198400
| 39> H       0.76756000     -1.19143300     -9.04321700
| 40> *
| 41> 
| 42>                          ****END OF INPUT****
================================================================================

                       *****************************
                       * Geometry Optimization Run *
                       *****************************

Geometry optimization settings:
Update method            Update   .... BFGS
Choice of coordinates    CoordSys .... Z-matrix Internals
Initial Hessian          InHess   .... Almoef's Model

Convergence Tolerances:
Energy Change            TolE     ....  1.0000e-06 Eh
Max. Gradient            TolMAXG  ....  1.0000e-04 Eh/bohr
RMS Gradient             TolRMSG  ....  3.0000e-05 Eh/bohr
Max. Displacement        TolMAXD  ....  1.0000e-03 bohr
RMS Displacement         TolRMSD  ....  6.0000e-04 bohr
Strict Convergence                ....  False
------------------------------------------------------------------------------
                        ORCA OPTIMIZATION COORDINATE SETUP
------------------------------------------------------------------------------

The optimization will be done in new redundant internal coordinates
Making redundant internal coordinates   ...  (new redundants) done
Evaluating the initial hessian          ...  (Almloef) done
Evaluating the coordinates              ...  done
Calculating the B-matrix                .... done
Calculating the G-matrix                .... done
Diagonalizing the G-matrix              .... done
Small eigenvalue found = 7.388e-03
Small eigenvalue found = 2.055e-02
Small eigenvalue found = 2.962e-02
The first mode is                       ....   55
The number of degrees of freedom        ....   72

    -----------------------------------------------------------------
                    Redundant Internal Coordinates


    -----------------------------------------------------------------
         Definition                    Initial Value    Approx d2E/dq
    -----------------------------------------------------------------
      1. B(C   1,C   0)                  1.4014         0.599096   
      2. B(C   2,C   0)                  1.4014         0.599091   
      3. B(H   3,C   1)                  1.0867         0.364528   
      4. B(H   4,C   2)                  1.0867         0.364503   
      5. B(C   5,C   1)                  1.3806         0.646827   
      6. B(C   6,C   2)                  1.3803         0.647435   
      7. B(H   7,C   5)                  1.0870         0.364057   
      8. B(H   8,C   6)                  1.0871         0.363952   
      9. B(C   9,C   6)                  1.4291         0.541200   
     10. B(C   9,C   5)                  1.4289         0.541663   
     11. B(O  10,C   9)                  1.2765         0.849106   
     12. B(C  11,C   0)                  1.4693         0.466946   
     13. B(C  12,C  11)                  1.4023         0.597220   
     14. B(C  13,C  11)                  1.3959         0.611436   
     15. B(C  14,C  12)                  1.3809         0.645922   
     16. B(C  15,C  13)                  1.3894         0.626149   
     17. B(C  16,C  15)                  1.3903         0.624113   
     18. B(C  16,C  14)                  1.3936         0.616563   
     19. B(H  17,C  12)                  1.0844         0.367648   
     20. B(H  18,C  13)                  1.0844         0.367533   
     21. B(H  19,C  14)                  1.0847         0.367247   
     22. B(H  20,C  15)                  1.0824         0.370358   
     23. B(O  21,C  16)                  1.3566         0.632547   
     24. B(C  22,O  21)                  1.4128         0.514702   
     25. B(H  23,C  22)                  1.0947         0.353993   
     26. B(H  24,C  22)                  1.0945         0.354143   
     27. B(H  25,C  22)                  1.0885         0.362023   
     28. A(C   1,C   0,C   2)          116.2245         0.428749   
     29. A(C   1,C   0,C  11)          121.9034         0.410117   
     30. A(C   2,C   0,C  11)          121.8716         0.410116   
     31. A(C   0,C   1,C   5)          122.2935         0.434696   
     32. A(C   0,C   1,H   3)          119.1999         0.351594   
     33. A(H   3,C   1,C   5)          118.4917         0.356189   
     34. A(C   0,C   2,C   6)          122.2695         0.434769   
     35. A(C   0,C   2,H   4)          119.1780         0.351589   
     36. A(H   4,C   2,C   6)          118.5377         0.356242   
     37. A(H   7,C   5,C   9)          117.7147         0.345597   
     38. A(C   1,C   5,C   9)          122.5186         0.426900   
     39. A(C   1,C   5,H   7)          119.7649         0.356111   
     40. A(H   8,C   6,C   9)          117.6935         0.345530   
     41. A(C   2,C   6,C   9)          122.5489         0.426907   
     42. A(C   2,C   6,H   8)          119.7527         0.356151   
     43. A(C   5,C   9,C   6)          114.1443         0.413536   
     44. A(C   5,C   9,O  10)          122.9521         0.445408   
     45. A(C   6,C   9,O  10)          122.9036         0.445339   
     46. A(C  12,C  11,C  13)          116.4938         0.430079   
     47. A(C   0,C  11,C  13)          121.8612         0.411602   
     48. A(C   0,C  11,C  12)          121.6448         0.409889   
     49. A(C  14,C  12,H  17)          118.5420         0.356620   
     50. A(C  11,C  12,H  17)          119.5333         0.351914   
     51. A(C  11,C  12,C  14)          121.9142         0.434341   
     52. A(C  15,C  13,H  18)          118.1183         0.354725   
     53. A(C  11,C  13,H  18)          119.4965         0.353299   
     54. A(C  11,C  13,C  15)          122.3772         0.433751   
     55. A(C  12,C  14,H  19)          120.6664         0.356554   
     56. A(C  12,C  14,C  16)          120.4290         0.436842   
     57. A(C  16,C  14,H  19)          118.8989         0.353752   
     58. A(C  13,C  15,C  16)          119.8062         0.435356   
     59. A(C  16,C  15,H  20)          120.9716         0.354990   
     60. A(C  13,C  15,H  20)          119.2173         0.355186   
     61. A(C  14,C  16,C  15)          118.9767         0.434148   
     62. A(C  15,C  16,O  21)          124.5757         0.433297   
     63. A(C  14,C  16,O  21)          116.4476         0.432350   
     64. A(C  16,O  21,C  22)          117.5176         0.415888   
     65. A(H  23,C  22,H  25)          109.3872         0.290302   
     66. A(O  21,C  22,H  25)          106.2578         0.340243   
     67. A(H  23,C  22,H  24)          109.1190         0.289302   
     68. A(O  21,C  22,H  24)          111.3878         0.338994   
     69. A(H  24,C  22,H  25)          109.3565         0.290321   
     70. A(O  21,C  22,H  23)          111.2717         0.338970   
     71. D(H   3,C   1,C   0,C  11)      1.5658         0.024739   
     72. D(H   3,C   1,C   0,C   2)   -178.6772         0.024739   
     73. D(C   5,C   1,C   0,C   2)     -0.1008         0.024739   
     74. D(C   5,C   1,C   0,C  11)   -179.8578         0.024739   
     75. D(H   4,C   2,C   0,C   1)   -178.6160         0.024738   
     76. D(C   6,C   2,C   0,C  11)    179.7214         0.024738   
     77. D(C   6,C   2,C   0,C   1)     -0.0357         0.024738   
     78. D(H   4,C   2,C   0,C  11)      1.1411         0.024738   
     79. D(C   9,C   5,C   1,H   3)    178.8763         0.029111   
     80. D(C   9,C   5,C   1,C   0)      0.2902         0.029111   
     81. D(H   7,C   5,C   1,H   3)     -0.6157         0.029111   
     82. D(H   7,C   5,C   1,C   0)   -179.2018         0.029111   
     83. D(C   9,C   6,C   2,C   0)     -0.0116         0.029169   
     84. D(H   8,C   6,C   2,H   4)     -0.6023         0.029169   
     85. D(H   8,C   6,C   2,C   0)   -179.1913         0.029169   
     86. D(C   9,C   6,C   2,H   4)    178.5774         0.029169   
     87. D(O  10,C   9,C   6,H   8)     -0.6226         0.020016   
     88. D(C   5,C   9,C   6,H   8)    179.3739         0.020016   
     89. D(C   5,C   9,C   6,C   2)      0.1781         0.020016   
     90. D(O  10,C   9,C   5,H   7)     -0.8155         0.020051   
     91. D(O  10,C   9,C   5,C   1)    179.6826         0.020051   
     92. D(O  10,C   9,C   6,C   2)   -179.8183         0.020016   
     93. D(C   6,C   9,C   5,H   7)    179.1881         0.020051   
     94. D(C   6,C   9,C   5,C   1)     -0.3138         0.020051   
     95. D(C  13,C  11,C   0,C   2)     28.7457         0.014848   
     96. D(C  13,C  11,C   0,C   1)   -151.5110         0.014848   
     97. D(C  12,C  11,C   0,C   2)   -151.0917         0.014848   
     98. D(C  12,C  11,C   0,C   1)     28.6517         0.014848   
     99. D(H  17,C  12,C  11,C   0)      1.1746         0.024576   
    100. D(C  14,C  12,C  11,C  13)      0.1357         0.024576   
    101. D(C  14,C  12,C  11,C   0)    179.9814         0.024576   
    102. D(H  17,C  12,C  11,C  13)   -178.6711         0.024576   
    103. D(H  18,C  13,C  11,C  12)   -178.5780         0.025827   
    104. D(H  18,C  13,C  11,C   0)      1.5766         0.025827   
    105. D(C  15,C  13,C  11,C  12)      0.3735         0.025827   
    106. D(C  15,C  13,C  11,C   0)   -179.4718         0.025827   
    107. D(H  19,C  14,C  12,H  17)     -0.7356         0.029024   
    108. D(H  19,C  14,C  12,C  11)   -179.5538         0.029024   
    109. D(C  16,C  14,C  12,H  17)    178.3893         0.029024   
    110. D(C  16,C  14,C  12,C  11)     -0.4288         0.029024   
    111. D(H  20,C  15,C  13,H  18)     -0.8192         0.027163   
    112. D(H  20,C  15,C  13,C  11)   -179.7845         0.027163   
    113. D(C  16,C  15,C  13,H  18)    178.3778         0.027163   
    114. D(C  16,C  15,C  13,C  11)     -0.5875         0.027163   
    115. D(O  21,C  16,C  15,H  20)     -0.5174         0.026975   
    116. D(O  21,C  16,C  15,C  13)   -179.7000         0.026975   
    117. D(C  14,C  16,C  15,H  20)    179.4630         0.026975   
    118. D(C  14,C  16,C  15,C  13)      0.2804         0.026975   
    119. D(O  21,C  16,C  14,H  19)     -0.6645         0.026288   
    120. D(O  21,C  16,C  14,C  12)   -179.8048         0.026288   
    121. D(C  15,C  16,C  14,H  19)    179.3536         0.026288   
    122. D(C  15,C  16,C  14,C  12)      0.2133         0.026288   
    123. D(C  22,O  21,C  16,C  15)     -1.3578         0.029443   
    124. D(C  22,O  21,C  16,C  14)    178.6614         0.029443   
    125. D(H  25,C  22,O  21,C  16)   -179.0196         0.020986   
    126. D(H  24,C  22,O  21,C  16)     61.9679         0.020986   
    127. D(H  23,C  22,O  21,C  16)    -60.0340         0.020986   
    -----------------------------------------------------------------

Number of atoms                         .... 26
Number of degrees of freedom            .... 127

         *************************************************************
         *                GEOMETRY OPTIMIZATION CYCLE   1            *
         *************************************************************
---------------------------------
CARTESIAN COORDINATES (ANGSTROEM)
---------------------------------
  C      0.059414   -0.503336   -1.622082
  C     -0.385548    0.616790   -0.906999
  C      0.352292   -1.645418   -0.864524
  H     -0.647175    1.521857   -1.448537
  H      0.722741   -2.534403   -1.367885
  C     -0.532322    0.604978    0.465693
  C      0.214054   -1.674401    0.508542
  H     -0.893112    1.493519    0.977502
  H      0.465539   -2.578629    1.057105
  C     -0.236634   -0.545415    1.259938
  O     -0.363712   -0.563649    2.529963
  C      0.215456   -0.480297   -3.082862
  C      0.512239    0.704090   -3.772469
  C      0.079859   -1.634133   -3.856663
  C      0.660461    0.732051   -5.145155
  C      0.235725   -1.626653   -5.237284
  C      0.525733   -0.435804   -5.893563
  H      0.649622    1.625562   -3.217638
  H     -0.172349   -2.572879   -3.375879
  H      0.897186    1.658425   -5.657267
  H      0.115678   -2.550941   -5.787530
  O      0.691544   -0.316476   -7.234738
  C      0.588544   -1.491521   -8.012275
  H      1.337585   -2.231981   -7.714066
  H     -0.407916   -1.937212   -7.931984
  H      0.767560   -1.191433   -9.043217

----------------------------
CARTESIAN COORDINATES (A.U.)
----------------------------
  NO LB      ZA    FRAG     MASS         X           Y           Z
   0 C     6.0000    0    12.011    0.112276   -0.951167   -3.065291
   1 C     6.0000    0    12.011   -0.728580    1.165564   -1.713980
   2 C     6.0000    0    12.011    0.665735   -3.109389   -1.633714
   3 H     1.0000    0     1.008   -1.222984    2.875893   -2.737338
   4 H     1.0000    0     1.008    1.365783   -4.789328   -2.584928
   5 C     6.0000    0    12.011   -1.005943    1.143243    0.880032
   6 C     6.0000    0    12.011    0.404503   -3.164159    0.961005
   7 H     1.0000    0     1.008   -1.687737    2.822342    1.847211
   8 H     1.0000    0     1.008    0.879741   -4.872903    1.997639
   9 C     6.0000    0    12.011   -0.447173   -1.030685    2.380938
  10 O     8.0000    0    15.999   -0.687316   -1.065142    4.780937
  11 C     6.0000    0    12.011    0.407153   -0.907630   -5.825765
  12 C     6.0000    0    12.011    0.967991    1.330537   -7.128933
  13 C     6.0000    0    12.011    0.150912   -3.088064   -7.288037
  14 C     6.0000    0    12.011    1.248090    1.383376   -9.722934
  15 C     6.0000    0    12.011    0.445456   -3.073929   -9.897032
  16 C     6.0000    0    12.011    0.993491   -0.823550  -11.137220
  17 H     1.0000    0     1.008    1.227608    3.071867   -6.080455
  18 H     1.0000    0     1.008   -0.325692   -4.862037   -6.379487
  19 H     1.0000    0     1.008    1.695436    3.133969  -10.690685
  20 H     1.0000    0     1.008    0.218600   -4.820580  -10.936847
  21 O     8.0000    0    15.999    1.306829   -0.598053  -13.671673
  22 C     6.0000    0    12.011    1.112187   -2.818566  -15.141005
  23 H     1.0000    0     1.008    2.527669   -4.217833  -14.577472
  24 H     1.0000    0     1.008   -0.770850   -3.660800  -14.989277
  25 H     1.0000    0     1.008    1.450478   -2.251482  -17.089203

--------------------------------
INTERNAL COORDINATES (ANGSTROEM)
--------------------------------
 C      0   0   0     0.000000000000     0.00000000     0.00000000
 C      1   0   0     1.401433956421     0.00000000     0.00000000
 C      1   2   0     1.401436028141   116.22445683     0.00000000
 H      2   1   3     1.086673072760   119.19986181   181.32281287
 H      3   1   2     1.086691809184   119.17799289   181.38401700
 C      2   1   3     1.380567078154   122.29354779   359.89921544
 C      3   1   2     1.380311558775   122.26952745   359.96431062
 H      6   2   1     1.087024831944   119.76485809   180.79822731
 H      7   3   1     1.087103650154   119.75273067   180.80869830
 C      6   2   1     1.428866882469   122.51862130     0.29022555
 O     10   6   2     1.276497080868   122.95208870   179.68263452
 C      1   2   3     1.469271285258   121.90343469   180.24297320
 C     12   1   2     1.402287605774   121.64481372    28.65165176
 C     12   1   2     1.395883966849   121.86117087   208.48903539
 C     13  12   1     1.380948381874   121.91416554   179.98135461
 C     14  12   1     1.389411568254   122.37715681   180.52819383
 C     16  14  12     1.390297848199   119.80615057   359.41248022
 H     13  12   1     1.084353343719   119.53334004     1.17456682
 H     14  12   1     1.084438187467   119.49653550     1.57664304
 H     15  13  12     1.084650272689   120.66639523   180.44617132
 H     16  14  12     1.082354031576   119.21727353   180.21548737
 O     17  16  14     1.356643962110   124.57567614   180.30001457
 C     22  17  16     1.412764502100   117.51762699   358.64218012
 H     23  22  17     1.094656128180   111.27173728   299.96603525
 H     23  22  17     1.094540836955   111.38781437    61.96794269
 H     23  22  17     1.088549926905   106.25779403   180.98035903

---------------------------
INTERNAL COORDINATES (A.U.)
---------------------------
 C      0   0   0     0.000000000000     0.00000000     0.00000000
 C      1   0   0     2.648326372413     0.00000000     0.00000000
 C      1   2   0     2.648330287397   116.22445683     0.00000000
 H      2   1   3     2.053514504623   119.19986181   181.32281287
 H      3   1   2     2.053549911333   119.17799289   181.38401700
 C      2   1   3     2.608893687220   122.29354779   359.89921544
 C      3   1   2     2.608410825571   122.26952745   359.96431062
 H      6   2   1     2.054179233145   119.76485809   180.79822731
 H      7   3   1     2.054328177977   119.75273067   180.80869830
 C      6   2   1     2.700167089697   122.51862130     0.29022555
 O     10   6   2     2.412229893591   122.95208870   179.68263452
 C      1   2   3     2.776520345573   121.90343469   180.24297320
 C     12   1   2     2.649939535905   121.64481372    28.65165176
 C     12   1   2     2.637838412076   121.86117087   208.48903539
 C     13  12   1     2.609614246824   121.91416554   179.98135461
 C     14  12   1     2.625607351301   122.37715681   180.52819383
 C     16  14  12     2.627282177676   119.80615057   359.41248022
 H     13  12   1     2.049130852030   119.53334004     1.17456682
 H     14  12   1     2.049291183478   119.49653550     1.57664304
 H     15  13  12     2.049691966466   120.66639523   180.44617132
 H     16  14  12     2.045352699624   119.21727353   180.21548737
 O     17  16  14     2.563685549626   124.57567614   180.30001457
 C     22  17  16     2.669738000695   117.51762699   358.64218012
 H     23  22  17     2.068600293079   111.27173728   299.96603525
 H     23  22  17     2.068382424238   111.38781437    61.96794269
 H     23  22  17     2.057061244950   106.25779403   180.98035903

---------------------
BASIS SET INFORMATION
---------------------
There are 3 groups of distinct atoms

 Group   1 Type C   : 11s6p2d1f contracted to 5s3p2d1f pattern {62111/411/11/1}
 Group   2 Type H   : 5s1p contracted to 3s1p pattern {311/1}
 Group   3 Type O   : 11s6p2d1f contracted to 5s3p2d1f pattern {62111/411/11/1}

Atom   0C    basis set group =>   1
Atom   1C    basis set group =>   1
Atom   2C    basis set group =>   1
Atom   3H    basis set group =>   2
Atom   4H    basis set group =>   2
Atom   5C    basis set group =>   1
Atom   6C    basis set group =>   1
Atom   7H    basis set group =>   2
Atom   8H    basis set group =>   2
Atom   9C    basis set group =>   1
Atom  10O    basis set group =>   3
Atom  11C    basis set group =>   1
Atom  12C    basis set group =>   1
Atom  13C    basis set group =>   1
Atom  14C    basis set group =>   1
Atom  15C    basis set group =>   1
Atom  16C    basis set group =>   1
Atom  17H    basis set group =>   2
Atom  18H    basis set group =>   2
Atom  19H    basis set group =>   2
Atom  20H    basis set group =>   2
Atom  21O    basis set group =>   3
Atom  22C    basis set group =>   1
Atom  23H    basis set group =>   2
Atom  24H    basis set group =>   2
Atom  25H    basis set group =>   2
---------------------------------
AUXILIARY/J BASIS SET INFORMATION
---------------------------------
There are 3 groups of distinct atoms

 Group   1 Type C   : 12s5p4d2f1g contracted to 6s4p3d1f1g pattern {711111/2111/211/2/1}
 Group   2 Type H   : 5s2p1d contracted to 3s1p1d pattern {311/2/1}
 Group   3 Type O   : 12s5p4d2f1g contracted to 6s4p3d1f1g pattern {711111/2111/211/2/1}

Atom   0C    basis set group =>   1
Atom   1C    basis set group =>   1
Atom   2C    basis set group =>   1
Atom   3H    basis set group =>   2
Atom   4H    basis set group =>   2
Atom   5C    basis set group =>   1
Atom   6C    basis set group =>   1
Atom   7H    basis set group =>   2
Atom   8H    basis set group =>   2
Atom   9C    basis set group =>   1
Atom  10O    basis set group =>   3
Atom  11C    basis set group =>   1
Atom  12C    basis set group =>   1
Atom  13C    basis set group =>   1
Atom  14C    basis set group =>   1
Atom  15C    basis set group =>   1
Atom  16C    basis set group =>   1
Atom  17H    basis set group =>   2
Atom  18H    basis set group =>   2
Atom  19H    basis set group =>   2
Atom  20H    basis set group =>   2
Atom  21O    basis set group =>   3
Atom  22C    basis set group =>   1
Atom  23H    basis set group =>   2
Atom  24H    basis set group =>   2
Atom  25H    basis set group =>   2


           ************************************************************
           *        Program running with 24 parallel MPI-processes    *
           *              working on a common directory               *
           ************************************************************
------------------------------------------------------------------------------
                           ORCA GTO INTEGRAL CALCULATION
                           -- RI-GTO INTEGRALS CHOSEN --
------------------------------------------------------------------------------
------------------------------------------------------------------------------
                   ___                                                        
                  /   \      - P O W E R E D   B Y -                         
                 /     \                                                     
                 |  |  |   _    _      __       _____    __    __             
                 |  |  |  | |  | |    /  \     |  _  \  |  |  /  |          
                  \  \/   | |  | |   /    \    | | | |  |  | /  /          
                 / \  \   | |__| |  /  /\  \   | |_| |  |  |/  /          
                |  |  |   |  __  | /  /__\  \  |    /   |      \           
                |  |  |   | |  | | |   __   |  |    \   |  |\   \          
                \     /   | |  | | |  |  |  |  | |\  \  |  | \   \       
                 \___/    |_|  |_| |__|  |__|  |_| \__\ |__|  \__/        
                                                                              
                      - O R C A' S   B I G   F R I E N D -                    
                                      &                                       
                       - I N T E G R A L  F E E D E R -                       
                                                                              
 v1 FN, 2020, v2 2021                                                         
------------------------------------------------------------------------------


Reading SHARK input file 4-OMePh-PhenO/4-OMePh-PhenO.SHARKINP.tmp ... ok
----------------------
SHARK INTEGRAL PACKAGE
----------------------

Number of atoms                             ...     26
Number of basis functions                   ...    531
Number of shells                            ...    209
Maximum angular momentum                    ...      3
Integral batch strategy                     ... SHARK/LIBINT Hybrid
RI-J (if used) integral strategy            ... SPLIT-RIJ (Revised 2003 algorithm where possible)
Printlevel                                  ...      1
Contraction scheme used                     ... SEGMENTED contraction
Coulomb Range Separation                    ... NOT USED
Exchange Range Separation                   ... NOT USED
Finite Nucleus Model                        ... NOT USED
Auxiliary Coulomb fitting basis             ... AVAILABLE
   # of basis functions in Aux-J            ...    856
   # of shells in Aux-J                     ...    280
   Maximum angular momentum in Aux-J        ...      4
Auxiliary J/K fitting basis                 ... NOT available
Auxiliary Correlation fitting basis         ... NOT available
Auxiliary 'external' fitting basis          ... NOT available
Integral threshold                          ...     2.500000e-11
Primitive cut-off                           ...     2.500000e-12
Primitive pair pre-selection threshold      ...     2.500000e-12

Calculating pre-screening integrals         ... done (  0.1 sec) Dimension = 209
Organizing shell pair data                  ... done (  0.2 sec)
Shell pair information
Total number of shell pairs                 ...     21945
Shell pairs after pre-screening             ...     16606
Total number of primitive shell pairs       ...     67524
Primitive shell pairs kept                  ...     35781
          la=0 lb=0:   4259 shell pairs
          la=1 lb=0:   4712 shell pairs
          la=1 lb=1:   1322 shell pairs
          la=2 lb=0:   2409 shell pairs
          la=2 lb=1:   1341 shell pairs
          la=2 lb=2:    350 shell pairs
          la=3 lb=0:   1155 shell pairs
          la=3 lb=1:    645 shell pairs
          la=3 lb=2:    326 shell pairs
          la=3 lb=3:     87 shell pairs

Calculating one electron integrals          ... done (  0.0 sec)
Calculating RI/J V-Matrix + Cholesky decomp.... done (  0.1 sec)
Calculating Nuclear repulsion               ... done (  0.0 sec) ENN=    871.038671028967 Eh

SHARK setup successfully completed in   0.8 seconds

Maximum memory used throughout the entire GTOINT-calculation: 29.1 MB


           ************************************************************
           *        Program running with 24 parallel MPI-processes    *
           *              working on a common directory               *
           ************************************************************
-------------------------------------------------------------------------------
                                 ORCA SCF
-------------------------------------------------------------------------------

------------
SCF SETTINGS
------------
Hamiltonian:
 Density Functional     Method          .... DFT(GTOs)
 Exchange Functional    Exchange        .... PBE
   PBE kappa parameter   XKappa         ....  0.804000
   PBE mue parameter    XMuePBE         ....  0.219520
 Correlation Functional Correlation     .... PBE
   PBE beta parameter  CBetaPBE         ....  0.066725
 LDA part of GGA corr.  LDAOpt          .... PW91-LDA
 Gradients option       PostSCFGGA      .... off
 Hybrid DFT is turned on
   Fraction HF Exchange ScalHFX         ....  0.250000
   Scaling of DF-GGA-X  ScalDFX         ....  0.750000
   Scaling of DF-GGA-C  ScalDFC         ....  1.000000
   Scaling of DF-LDA-C  ScalLDAC        ....  1.000000
   Perturbative correction              ....  0.000000
   Density functional embedding theory  .... OFF
   NL short-range parameter             ....  6.900000
 RI-approximation to the Coulomb term is turned on
   Number of AuxJ basis functions       .... 856
   RIJ-COSX (HFX calculated with COS-X)).... on


General Settings:
 Integral files         IntName         .... 4-OMePh-PhenO/4-OMePh-PhenO
 Hartree-Fock type      HFTyp           .... RHF
 Total Charge           Charge          ....   -1
 Multiplicity           Mult            ....    1
 Number of Electrons    NEL             ....  106
 Basis Dimension        Dim             ....  531
 Nuclear Repulsion      ENuc            ....    871.0386710290 Eh

Convergence Acceleration:
 DIIS                   CNVDIIS         .... on
   Start iteration      DIISMaxIt       ....    12
   Startup error        DIISStart       ....  0.200000
   # of expansion vecs  DIISMaxEq       ....     5
   Bias factor          DIISBfac        ....   1.050
   Max. coefficient     DIISMaxC        ....  10.000
 Trust-Rad. Augm. Hess. CNVTRAH         .... auto
   Auto Start mean grad. ratio tolernc. ....  1.125000
   Auto Start start iteration           ....    20
   Auto Start num. interpolation iter.  ....    10
   Max. Number of Micro iterations      ....    16
   Max. Number of Macro iterations      .... Maxiter - #DIIS iter
   Number of Davidson start vectors     ....     2
   Converg. threshold I  (grad. norm)   ....   1.000e-05
   Converg. threshold II (energy diff.) ....   1.000e-08
   Grad. Scal. Fac. for Micro threshold ....   0.100
   Minimum threshold for Micro iter.    ....   0.010
   NR start threshold (gradient norm)   ....   0.001
   Initial trust radius                 ....   0.400
   Minimum AH scaling param. (alpha)    ....   1.000
   Maximum AH scaling param. (alpha)    .... 1000.000
   Orbital update algorithm             .... Taylor
   White noise on init. David. guess    .... on
   Maximum white noise                  ....   0.010
   Quad. conv. algorithm                .... NR
 SOSCF                  CNVSOSCF        .... on
   Start iteration      SOSCFMaxIt      ....   150
   Startup grad/error   SOSCFStart      ....  0.003300
 Level Shifting         CNVShift        .... on
   Level shift para.    LevelShift      ....    0.2500
   Turn off err/grad.   ShiftErr        ....    0.0010
 Zerner damping         CNVZerner       .... off
 Static damping         CNVDamp         .... on
   Fraction old density DampFac         ....    0.7000
   Max. Damping (<1)    DampMax         ....    0.9800
   Min. Damping (>=0)   DampMin         ....    0.0000
   Turn off err/grad.   DampErr         ....    0.1000
 Fernandez-Rico         CNVRico         .... off

SCF Procedure:
 Maximum # iterations   MaxIter         ....   800
 SCF integral mode      SCFMode         .... Direct
   Integral package                     .... SHARK and LIBINT hybrid scheme
 Reset frequency        DirectResetFreq ....    20
 Integral Threshold     Thresh          ....  2.500e-11 Eh
 Primitive CutOff       TCut            ....  2.500e-12 Eh

Convergence Tolerance:
 Convergence Check Mode ConvCheckMode   .... Total+1el-Energy
 Convergence forced     ConvForced      .... 0
 Energy Change          TolE            ....  1.000e-08 Eh
 1-El. energy change                    ....  1.000e-05 Eh
 Orbital Gradient       TolG            ....  1.000e-05
 Orbital Rotation angle TolX            ....  1.000e-05
 DIIS Error             TolErr          ....  5.000e-07


Diagonalization of the overlap matrix:
Smallest eigenvalue                        ... 7.361e-06
Time for diagonalization                   ...    0.067 sec
Threshold for overlap eigenvalues          ... 1.000e-08
Number of eigenvalues below threshold      ... 0
Time for construction of square roots      ...    0.052 sec
Total time needed                          ...    0.125 sec

Time for model grid setup =    0.177 sec

------------------------------
INITIAL GUESS: MODEL POTENTIAL
------------------------------
Loading Hartree-Fock densities                     ... done
Calculating cut-offs                               ... done
Initializing the effective Hamiltonian             ... done
Setting up the integral package (SHARK)            ... done
Starting the Coulomb interaction                   ... done (   0.2 sec)
Reading the grid                                   ... done
Mapping shells                                     ... done
Starting the XC term evaluation                    ... done (   0.1 sec)
  promolecular density results
     # of electrons  =    104.999050095
     EX              =    -86.037978168
     EC              =     -3.508610494
     EX+EC           =    -89.546588662
Transforming the Hamiltonian                       ... done (   0.0 sec)
Diagonalizing the Hamiltonian                      ... done (   0.1 sec)
Back transforming the eigenvectors                 ... done (   0.0 sec)
Now organizing SCF variables                       ... done
                      ------------------
                      INITIAL GUESS DONE (   0.7 sec)
                      ------------------
-------------------
DFT GRID GENERATION
-------------------

General Integration Accuracy     IntAcc      ... 4.388
Radial Grid Type                 RadialGrid  ... OptM3 with GC (2021)
Angular Grid (max. ang.)         AngularGrid ... 4 (Lebedev-302)
Angular grid pruning method      GridPruning ... 4 (adaptive)
Weight generation scheme         WeightScheme... Becke
Basis function cutoff            BFCut       ... 1.0000e-11
Integration weight cutoff        WCut        ... 1.0000e-14
Angular grids for H and He will be reduced by one unit
Partially contracted basis set               ... off
Rotationally invariant grid construction     ... off

Total number of grid points                  ...   125169
Total number of batches                      ...     1972
Average number of points per batch           ...       63
Average number of grid points per atom       ...     4814
Time for grid setup =    0.713 sec

--------------------
COSX GRID GENERATION
--------------------

GRIDX 1
-------
General Integration Accuracy     IntAcc      ... 3.816
Radial Grid Type                 RadialGrid  ... OptM3 with GC (2021)
Angular Grid (max. ang.)         AngularGrid ... 1 (Lebedev-50)
Angular grid pruning method      GridPruning ... 4 (adaptive)
Weight generation scheme         WeightScheme... Becke
Basis function cutoff            BFCut       ... 1.0000e-11
Integration weight cutoff        WCut        ... 1.0000e-14
Angular grids for H and He will be reduced by one unit
Partially contracted basis set               ... on
Rotationally invariant grid construction     ... off

Total number of grid points                  ...    15978
Total number of batches                      ...      259
Average number of points per batch           ...       61
Average number of grid points per atom       ...      615
UseSFitting                                  ... on

GRIDX 2
-------
General Integration Accuracy     IntAcc      ... 4.020
Radial Grid Type                 RadialGrid  ... OptM3 with GC (2021)
Angular Grid (max. ang.)         AngularGrid ... 2 (Lebedev-110)
Angular grid pruning method      GridPruning ... 4 (adaptive)
Weight generation scheme         WeightScheme... Becke
Basis function cutoff            BFCut       ... 1.0000e-11
Integration weight cutoff        WCut        ... 1.0000e-14
Angular grids for H and He will be reduced by one unit
Partially contracted basis set               ... on
Rotationally invariant grid construction     ... off

Total number of grid points                  ...    34968
Total number of batches                      ...      562
Average number of points per batch           ...       62
Average number of grid points per atom       ...     1345
UseSFitting                                  ... on

GRIDX 3
-------
General Integration Accuracy     IntAcc      ... 4.338
Radial Grid Type                 RadialGrid  ... OptM3 with GC (2021)
Angular Grid (max. ang.)         AngularGrid ... 3 (Lebedev-194)
Angular grid pruning method      GridPruning ... 4 (adaptive)
Weight generation scheme         WeightScheme... Becke
Basis function cutoff            BFCut       ... 1.0000e-11
Integration weight cutoff        WCut        ... 1.0000e-14
Angular grids for H and He will be reduced by one unit
Partially contracted basis set               ... on
Rotationally invariant grid construction     ... off

Total number of grid points                  ...    76668
Total number of batches                      ...     1212
Average number of points per batch           ...       63
Average number of grid points per atom       ...     2949
UseSFitting                                  ... on

Time for X-Grid setup             =    1.116 sec


--------------------
CPCM SOLVATION MODEL
--------------------
CPCM parameters:
  Epsilon                                         ...      47.2000
  Refrac                                          ...       1.4790
  Rsolv                                           ...       1.3000
  Surface type                                    ... GAUSSIAN VDW
  Epsilon function type                           ...         CPCM
Radii:
 Radius for C  used is    3.8550 Bohr (=   2.0400 Ang.)
 Radius for H  used is    2.4944 Bohr (=   1.3200 Ang.)
 Radius for O  used is    3.4469 Bohr (=   1.8240 Ang.)
Calculating surface                               ...        done! (  0.0s)
GEPOL surface points                              ...         1416
GEPOL Volume                                      ...    1656.2967
GEPOL Surface-area                                ...     875.8787
Calculating surface distance matrix               ...        done! (  0.0s)
Performing Cholesky decomposition & store         ...        done! (  0.2s)
Overall time for CPCM initialization              ...                 0.2s
--------------
SCF ITERATIONS
--------------
ITER       Energy         Delta-E        Max-DP      RMS-DP      [F,P]     Damp
               ***  Starting incremental Fock matrix formation  ***
  0   -651.6573428713   0.000000000000 0.48179152  0.00332054  0.3322680 0.7000
  1   -651.8364815248  -0.179138653531 0.46050974  0.00316435  0.1426380 0.7000
                               ***Turning on DIIS***
  2   -651.9162415667  -0.079760041844 0.48247554  0.00397045  0.0430638 0.0000
  3   -652.0362089697  -0.119967403028 0.47694528  0.00311277  0.0823138 0.0000
  4   -652.0623139485  -0.026104978791 0.07814929  0.00057751  0.0168744 0.0000
  5   -652.0635494060  -0.001235457491 0.05303834  0.00037180  0.0130580 0.0000
                      *** Initiating the SOSCF procedure ***
                           *** Shutting down DIIS ***
                      *** Re-Reading the Fockian *** 
                      *** Removing any level shift *** 
ITER      Energy       Delta-E        Grad      Rot      Max-DP    RMS-DP
  6   -652.06375150  -0.0002020909  0.000241  0.000241  0.025005  0.000181
               *** Restarting incremental Fock matrix formation ***
  7   -652.06374393   0.0000075638  0.000173  0.001025  0.012003  0.000138
  8   -652.06374190   0.0000020337  0.000291  0.000556  0.003662  0.000024
  9   -652.06374577  -0.0000038732  0.000042  0.000161  0.000506  0.000006
 10   -652.06374571   0.0000000675  0.000055  0.000081  0.000561  0.000004
 11   -652.06374581  -0.0000001062  0.000005  0.000017  0.000364  0.000004
 12   -652.06374581   0.0000000009  0.000006  0.000009  0.000189  0.000002
                  ***Gradient check signals convergence***
              ***Rediagonalizing the Fockian in SOSCF/NRSCF***

               *****************************************************
               *                     SUCCESS                       *
               *           SCF CONVERGED AFTER  13 CYCLES          *
               *****************************************************

Old exchange energy                            =    -22.021573007 Eh
New exchange energy                            =    -22.021571612 Eh
Exchange energy change after final integration =      0.000001394 Eh
Total energy after final integration           =   -652.063744424 Eh
Final COS-X integration done in                =     4.380 sec

----------------
TOTAL SCF ENERGY
----------------

Total Energy       :         -652.06374442 Eh          -17743.55655 eV

Components:
Nuclear Repulsion  :          871.03867103 Eh           23702.16723 eV
Electronic Energy  :        -1523.10241545 Eh          -41445.72378 eV
One Electron Energy:        -2628.43028535 Eh          -71523.22423 eV
Two Electron Energy:         1105.32786990 Eh           30077.50045 eV
Max COSX asymmetry :            0.00000179 Eh               0.00005 eV
CPCM Dielectric    :           -0.10435650 Eh              -2.83968 eV

Virial components:
Potential Energy   :        -1301.12886738 Eh          -35405.51646 eV
Kinetic Energy     :          649.06512296 Eh           17661.95991 eV
Virial Ratio       :            2.00461991


DFT components:
N(Alpha)           :       52.999987541549 electrons
N(Beta)            :       52.999987541549 electrons
N(Total)           :      105.999975083099 electrons
E(X)               :      -65.904428436054 Eh       
E(C)               :       -3.550328986987 Eh       
E(XC)              :      -69.454757423041 Eh       
DFET-embed. en.    :        0.000000000000 Eh       
CPCM Solvation Model Properties:
Surface-charge          :            0.96374100
Charge-correction       :           -0.00422909 Eh              -0.11508 eV
Free-energy (cav+disp)  :  This term is not implemented in the current solvation scheme

---------------
SCF CONVERGENCE
---------------

  Last Energy change         ...   -7.6051e-09  Tolerance :   1.0000e-08
  Last MAX-Density change    ...    1.6653e-15  Tolerance :   1.0000e-07
  Last RMS-Density change    ...    1.3356e-17  Tolerance :   5.0000e-09
  Last Orbital Gradient      ...    5.7467e-07  Tolerance :   1.0000e-05
  Last Orbital Rotation      ...    1.9489e-06  Tolerance :   1.0000e-05

             **** THE GBW FILE WAS UPDATED (4-OMePh-PhenO/4-OMePh-PhenO.gbw) ****
             **** DENSITY 4-OMePh-PhenO/4-OMePh-PhenO.scfp WAS UPDATED ****
             **** ENERGY FILE WAS UPDATED (4-OMePh-PhenO/4-OMePh-PhenO.en.tmp) ****
             **** THE GBW FILE WAS UPDATED (4-OMePh-PhenO/4-OMePh-PhenO.gbw) ****
             **** DENSITY 4-OMePh-PhenO/4-OMePh-PhenO.scfp WAS UPDATED ****
----------------
ORBITAL ENERGIES
----------------

  NO   OCC          E(Eh)            E(eV) 
   0   2.0000     -19.236418      -523.4495 
   1   2.0000     -19.113003      -520.0912 
   2   2.0000     -10.277139      -279.6552 
   3   2.0000     -10.261634      -279.2332 
   4   2.0000     -10.243177      -278.7310 
   5   2.0000     -10.223378      -278.1923 
   6   2.0000     -10.218160      -278.0503 
   7   2.0000     -10.218070      -278.0478 
   8   2.0000     -10.217444      -278.0308 
   9   2.0000     -10.216566      -278.0069 
  10   2.0000     -10.205315      -277.7007 
  11   2.0000     -10.205273      -277.6996 
  12   2.0000     -10.202158      -277.6148 
  13   2.0000     -10.187217      -277.2083 
  14   2.0000     -10.187167      -277.2069 
  15   2.0000      -1.097275       -29.8584 
  16   2.0000      -0.978664       -26.6308 
  17   2.0000      -0.883127       -24.0311 
  18   2.0000      -0.845795       -23.0153 
  19   2.0000      -0.782515       -21.2933 
  20   2.0000      -0.768408       -20.9094 
  21   2.0000      -0.744149       -20.2493 
  22   2.0000      -0.728982       -19.8366 
  23   2.0000      -0.689616       -18.7654 
  24   2.0000      -0.631407       -17.1815 
  25   2.0000      -0.609017       -16.5722 
  26   2.0000      -0.593139       -16.1401 
  27   2.0000      -0.570175       -15.5152 
  28   2.0000      -0.549091       -14.9415 
  29   2.0000      -0.508950       -13.8492 
  30   2.0000      -0.497284       -13.5318 
  31   2.0000      -0.481425       -13.1002 
  32   2.0000      -0.461236       -12.5509 
  33   2.0000      -0.450221       -12.2511 
  34   2.0000      -0.437658       -11.9093 
  35   2.0000      -0.432088       -11.7577 
  36   2.0000      -0.425887       -11.5890 
  37   2.0000      -0.418503       -11.3881 
  38   2.0000      -0.405016       -11.0211 
  39   2.0000      -0.394387       -10.7318 
  40   2.0000      -0.381617       -10.3843 
  41   2.0000      -0.380138       -10.3441 
  42   2.0000      -0.367934       -10.0120 
  43   2.0000      -0.345726        -9.4077 
  44   2.0000      -0.344031        -9.3616 
  45   2.0000      -0.339368        -9.2347 
  46   2.0000      -0.323600        -8.8056 
  47   2.0000      -0.307616        -8.3707 
  48   2.0000      -0.265767        -7.2319 
  49   2.0000      -0.248884        -6.7725 
  50   2.0000      -0.237386        -6.4596 
  51   2.0000      -0.219822        -5.9817 
  52   2.0000      -0.170468        -4.6387 
  53   0.0000      -0.007002        -0.1905 
  54   0.0000      -0.001497        -0.0407 
  55   0.0000       0.015622         0.4251 
  56   0.0000       0.063956         1.7403 
  57   0.0000       0.066333         1.8050 
  58   0.0000       0.077453         2.1076 
  59   0.0000       0.089797         2.4435 
  60   0.0000       0.092423         2.5150 
  61   0.0000       0.101633         2.7656 
  62   0.0000       0.115135         3.1330 
  63   0.0000       0.123565         3.3624 
  64   0.0000       0.127348         3.4653 
  65   0.0000       0.133738         3.6392 
  66   0.0000       0.138933         3.7806 
  67   0.0000       0.144941         3.9441 
  68   0.0000       0.150682         4.1003 
  69   0.0000       0.159627         4.3437 
  70   0.0000       0.167876         4.5681 
  71   0.0000       0.179205         4.8764 
  72   0.0000       0.182695         4.9714 
  73   0.0000       0.193166         5.2563 
  74   0.0000       0.204897         5.5755 
  75   0.0000       0.212307         5.7772 
  76   0.0000       0.218086         5.9344 
  77   0.0000       0.225549         6.1375 
  78   0.0000       0.226696         6.1687 
  79   0.0000       0.234262         6.3746 
  80   0.0000       0.241455         6.5703 
  81   0.0000       0.245875         6.6906 
  82   0.0000       0.246133         6.6976 
  83   0.0000       0.255437         6.9508 
  84   0.0000       0.258903         7.0451 
  85   0.0000       0.270737         7.3671 
  86   0.0000       0.277445         7.5497 
  87   0.0000       0.285874         7.7790 
  88   0.0000       0.288286         7.8447 
  89   0.0000       0.296374         8.0647 
  90   0.0000       0.316223         8.6049 
  91   0.0000       0.318584         8.6691 
  92   0.0000       0.325519         8.8578 
  93   0.0000       0.335159         9.1202 
  94   0.0000       0.344311         9.3692 
  95   0.0000       0.347325         9.4512 
  96   0.0000       0.351574         9.5668 
  97   0.0000       0.359237         9.7753 
  98   0.0000       0.366298         9.9675 
  99   0.0000       0.368663        10.0318 
 100   0.0000       0.371543        10.1102 
 101   0.0000       0.380164        10.3448 
 102   0.0000       0.385782        10.4977 
 103   0.0000       0.389445        10.5973 
 104   0.0000       0.396096        10.7783 
 105   0.0000       0.399362        10.8672 
 106   0.0000       0.410126        11.1601 
 107   0.0000       0.416002        11.3200 
 108   0.0000       0.418691        11.3932 
 109   0.0000       0.431907        11.7528 
 110   0.0000       0.439313        11.9543 
 111   0.0000       0.443113        12.0577 
 112   0.0000       0.446274        12.1437 
 113   0.0000       0.451671        12.2906 
 114   0.0000       0.452625        12.3165 
 115   0.0000       0.459693        12.5089 
 116   0.0000       0.465235        12.6597 
 117   0.0000       0.470387        12.7999 
 118   0.0000       0.481047        13.0900 
 119   0.0000       0.486107        13.2276 
 120   0.0000       0.491690        13.3796 
 121   0.0000       0.492518        13.4021 
 122   0.0000       0.502140        13.6639 
 123   0.0000       0.506355        13.7786 
 124   0.0000       0.512539        13.9469 
 125   0.0000       0.526294        14.3212 
 126   0.0000       0.528537        14.3822 
 127   0.0000       0.532706        14.4957 
 128   0.0000       0.545533        14.8447 
 129   0.0000       0.558531        15.1984 
 130   0.0000       0.579806        15.7773 
 131   0.0000       0.587242        15.9797 
 132   0.0000       0.601974        16.3805 
 133   0.0000       0.609590        16.5878 
 134   0.0000       0.612236        16.6598 
 135   0.0000       0.616717        16.7817 
 136   0.0000       0.630463        17.1558 
 137   0.0000       0.640015        17.4157 
 138   0.0000       0.651100        17.7173 
 139   0.0000       0.656049        17.8520 
 140   0.0000       0.666569        18.1383 
 141   0.0000       0.674747        18.3608 
 142   0.0000       0.682802        18.5800 
 143   0.0000       0.686106        18.6699 
 144   0.0000       0.692326        18.8391 
 145   0.0000       0.708034        19.2666 
 146   0.0000       0.722194        19.6519 
 147   0.0000       0.729190        19.8423 
 148   0.0000       0.735815        20.0225 
 149   0.0000       0.739650        20.1269 
 150   0.0000       0.745514        20.2865 
 151   0.0000       0.753044        20.4914 
 152   0.0000       0.755441        20.5566 
 153   0.0000       0.761144        20.7118 
 154   0.0000       0.764254        20.7964 
 155   0.0000       0.774034        21.0625 
 156   0.0000       0.790261        21.5041 
 157   0.0000       0.807782        21.9809 
 158   0.0000       0.817616        22.2485 
 159   0.0000       0.831451        22.6249 
 160   0.0000       0.833543        22.6819 
 161   0.0000       0.845002        22.9937 
 162   0.0000       0.857485        23.3334 
 163   0.0000       0.865946        23.5636 
 164   0.0000       0.874843        23.8057 
 165   0.0000       0.882686        24.0191 
 166   0.0000       0.888644        24.1812 
 167   0.0000       0.893198        24.3052 
 168   0.0000       0.912139        24.8206 
 169   0.0000       0.919143        25.0111 
 170   0.0000       0.923693        25.1350 
 171   0.0000       0.933282        25.3959 
 172   0.0000       0.942596        25.6493 
 173   0.0000       0.959369        26.1058 
 174   0.0000       0.969411        26.3790 
 175   0.0000       0.985634        26.8205 
 176   0.0000       0.990919        26.9643 
 177   0.0000       1.004278        27.3278 
 178   0.0000       1.016937        27.6723 
 179   0.0000       1.029376        28.0107 
 180   0.0000       1.044820        28.4310 
 181   0.0000       1.048332        28.5266 
 182   0.0000       1.054211        28.6865 
 183   0.0000       1.073382        29.2082 
 184   0.0000       1.094045        29.7705 
 185   0.0000       1.107595        30.1392 
 186   0.0000       1.118109        30.4253 
 187   0.0000       1.123078        30.5605 
 188   0.0000       1.130900        30.7734 
 189   0.0000       1.157481        31.4967 
 190   0.0000       1.184664        32.2363 
 191   0.0000       1.188297        32.3352 
 192   0.0000       1.199784        32.6478 
 193   0.0000       1.203517        32.7494 
 194   0.0000       1.211821        32.9753 
 195   0.0000       1.226084        33.3634 
 196   0.0000       1.244244        33.8576 
 197   0.0000       1.246598        33.9216 
 198   0.0000       1.263202        34.3735 
 199   0.0000       1.273803        34.6620 
 200   0.0000       1.287813        35.0432 
 201   0.0000       1.312939        35.7269 
 202   0.0000       1.317563        35.8527 
 203   0.0000       1.329547        36.1788 
 204   0.0000       1.333361        36.2826 
 205   0.0000       1.337127        36.3851 
 206   0.0000       1.341433        36.5023 
 207   0.0000       1.361472        37.0475 
 208   0.0000       1.382686        37.6248 
 209   0.0000       1.402650        38.1681 
 210   0.0000       1.415558        38.5193 
 211   0.0000       1.428266        38.8651 
 212   0.0000       1.444245        39.2999 
 213   0.0000       1.466249        39.8987 
 214   0.0000       1.467803        39.9409 
 215   0.0000       1.487741        40.4835 
 216   0.0000       1.496009        40.7085 
 217   0.0000       1.501275        40.8518 
 218   0.0000       1.505291        40.9610 
 219   0.0000       1.525144        41.5013 
 220   0.0000       1.531386        41.6711 
 221   0.0000       1.535888        41.7936 
 222   0.0000       1.547727        42.1158 
 223   0.0000       1.552299        42.2402 
 224   0.0000       1.560035        42.4507 
 225   0.0000       1.563709        42.5507 
 226   0.0000       1.570505        42.7356 
 227   0.0000       1.572429        42.7880 
 228   0.0000       1.574396        42.8415 
 229   0.0000       1.584360        43.1126 
 230   0.0000       1.620112        44.0855 
 231   0.0000       1.628085        44.3024 
 232   0.0000       1.644002        44.7356 
 233   0.0000       1.655687        45.0535 
 234   0.0000       1.665244        45.3136 
 235   0.0000       1.671137        45.4739 
 236   0.0000       1.684551        45.8390 
 237   0.0000       1.693494        46.0823 
 238   0.0000       1.712806        46.6078 
 239   0.0000       1.715225        46.6736 
 240   0.0000       1.727424        47.0056 
 241   0.0000       1.732886        47.1542 
 242   0.0000       1.738314        47.3019 
 243   0.0000       1.761305        47.9275 
 244   0.0000       1.772376        48.2288 
 245   0.0000       1.777834        48.3773 
 246   0.0000       1.794470        48.8300 
 247   0.0000       1.812194        49.3123 
 248   0.0000       1.823679        49.6248 
 249   0.0000       1.854260        50.4570 
 250   0.0000       1.870584        50.9012 
 251   0.0000       1.876288        51.0564 
 252   0.0000       1.888882        51.3991 
 253   0.0000       1.891615        51.4735 
 254   0.0000       1.902123        51.7594 
 255   0.0000       1.913382        52.0658 
 256   0.0000       1.932246        52.5791 
 257   0.0000       1.937102        52.7112 
 258   0.0000       1.956365        53.2354 
 259   0.0000       1.961163        53.3660 
 260   0.0000       1.972808        53.6828 
 261   0.0000       1.979104        53.8542 
 262   0.0000       2.007249        54.6200 
 263   0.0000       2.024954        55.1018 
 264   0.0000       2.051346        55.8200 
 265   0.0000       2.061591        56.0987 
 266   0.0000       2.076431        56.5026 
 267   0.0000       2.081408        56.6380 
 268   0.0000       2.089446        56.8567 
 269   0.0000       2.093225        56.9596 
 270   0.0000       2.118944        57.6594 
 271   0.0000       2.129032        57.9339 
 272   0.0000       2.140895        58.2567 
 273   0.0000       2.160357        58.7863 
 274   0.0000       2.199243        59.8444 
 275   0.0000       2.214245        60.2527 
 276   0.0000       2.216531        60.3149 
 277   0.0000       2.226245        60.5792 
 278   0.0000       2.252582        61.2959 
 279   0.0000       2.259070        61.4724 
 280   0.0000       2.274363        61.8886 
 281   0.0000       2.278681        62.0060 
 282   0.0000       2.292896        62.3929 
 283   0.0000       2.301882        62.6374 
 284   0.0000       2.306858        62.7728 
 285   0.0000       2.314709        62.9864 
 286   0.0000       2.330918        63.4275 
 287   0.0000       2.339526        63.6617 
 288   0.0000       2.353663        64.0464 
 289   0.0000       2.379824        64.7583 
 290   0.0000       2.400730        65.3272 
 291   0.0000       2.424987        65.9873 
 292   0.0000       2.432740        66.1982 
 293   0.0000       2.461089        66.9696 
 294   0.0000       2.467558        67.1457 
 295   0.0000       2.474728        67.3408 
 296   0.0000       2.497500        67.9604 
 297   0.0000       2.509814        68.2955 
 298   0.0000       2.530998        68.8720 
 299   0.0000       2.549321        69.3706 
 300   0.0000       2.555954        69.5511 
 301   0.0000       2.574808        70.0641 
 302   0.0000       2.588700        70.4421 
 303   0.0000       2.593894        70.5834 
 304   0.0000       2.601535        70.7914 
 305   0.0000       2.614158        71.1349 
 306   0.0000       2.623365        71.3854 
 307   0.0000       2.633448        71.6598 
 308   0.0000       2.640609        71.8546 
 309   0.0000       2.662905        72.4613 
 310   0.0000       2.676819        72.8400 
 311   0.0000       2.691903        73.2504 
 312   0.0000       2.698807        73.4383 
 313   0.0000       2.708038        73.6895 
 314   0.0000       2.711183        73.7750 
 315   0.0000       2.713523        73.8387 
 316   0.0000       2.717076        73.9354 
 317   0.0000       2.728289        74.2405 
 318   0.0000       2.735384        74.4336 
 319   0.0000       2.741714        74.6058 
 320   0.0000       2.752133        74.8893 
 321   0.0000       2.769493        75.3617 
 322   0.0000       2.779373        75.6306 
 323   0.0000       2.788099        75.8680 
 324   0.0000       2.800455        76.2042 
 325   0.0000       2.815649        76.6177 
 326   0.0000       2.821604        76.7798 
 327   0.0000       2.830828        77.0307 
 328   0.0000       2.842031        77.3356 
 329   0.0000       2.845567        77.4318 
 330   0.0000       2.853171        77.6387 
 331   0.0000       2.863252        77.9130 
 332   0.0000       2.869694        78.0883 
 333   0.0000       2.876365        78.2699 
 334   0.0000       2.877965        78.3134 
 335   0.0000       2.880363        78.3787 
 336   0.0000       2.895523        78.7912 
 337   0.0000       2.909073        79.1599 
 338   0.0000       2.929068        79.7040 
 339   0.0000       2.931079        79.7587 
 340   0.0000       2.934757        79.8588 
 341   0.0000       2.957062        80.4657 
 342   0.0000       2.975187        80.9590 
 343   0.0000       2.978449        81.0477 
 344   0.0000       2.991508        81.4031 
 345   0.0000       2.999730        81.6268 
 346   0.0000       3.031965        82.5040 
 347   0.0000       3.038812        82.6903 
 348   0.0000       3.048185        82.9453 
 349   0.0000       3.056968        83.1843 
 350   0.0000       3.066529        83.4445 
 351   0.0000       3.079442        83.7959 
 352   0.0000       3.087366        84.0115 
 353   0.0000       3.092653        84.1554 
 354   0.0000       3.105654        84.5091 
 355   0.0000       3.113100        84.7118 
 356   0.0000       3.134342        85.2898 
 357   0.0000       3.144546        85.5675 
 358   0.0000       3.157961        85.9325 
 359   0.0000       3.167843        86.2014 
 360   0.0000       3.171993        86.3143 
 361   0.0000       3.174415        86.3802 
 362   0.0000       3.178849        86.5009 
 363   0.0000       3.181355        86.5691 
 364   0.0000       3.195530        86.9548 
 365   0.0000       3.202469        87.1436 
 366   0.0000       3.212120        87.4062 
 367   0.0000       3.215403        87.4956 
 368   0.0000       3.236989        88.0829 
 369   0.0000       3.247220        88.3614 
 370   0.0000       3.265386        88.8557 
 371   0.0000       3.272002        89.0357 
 372   0.0000       3.276524        89.1588 
 373   0.0000       3.288717        89.4905 
 374   0.0000       3.295831        89.6841 
 375   0.0000       3.302245        89.8587 
 376   0.0000       3.305724        89.9533 
 377   0.0000       3.313254        90.1582 
 378   0.0000       3.325669        90.4961 
 379   0.0000       3.352251        91.2194 
 380   0.0000       3.367355        91.6304 
 381   0.0000       3.368173        91.6526 
 382   0.0000       3.375553        91.8535 
 383   0.0000       3.384401        92.0942 
 384   0.0000       3.399943        92.5172 
 385   0.0000       3.407254        92.7161 
 386   0.0000       3.412980        92.8719 
 387   0.0000       3.423715        93.1640 
 388   0.0000       3.430000        93.3351 
 389   0.0000       3.432530        93.4039 
 390   0.0000       3.438454        93.5651 
 391   0.0000       3.445875        93.7670 
 392   0.0000       3.462218        94.2117 
 393   0.0000       3.472535        94.4925 
 394   0.0000       3.473907        94.5298 
 395   0.0000       3.480760        94.7163 
 396   0.0000       3.495038        95.1048 
 397   0.0000       3.498357        95.1951 
 398   0.0000       3.508296        95.4656 
 399   0.0000       3.518652        95.7474 
 400   0.0000       3.526950        95.9732 
 401   0.0000       3.536490        96.2328 
 402   0.0000       3.537240        96.2532 
 403   0.0000       3.548575        96.5616 
 404   0.0000       3.563128        96.9577 
 405   0.0000       3.573336        97.2354 
 406   0.0000       3.580978        97.4434 
 407   0.0000       3.586788        97.6015 
 408   0.0000       3.612120        98.2908 
 409   0.0000       3.616735        98.4164 
 410   0.0000       3.624379        98.6244 
 411   0.0000       3.634221        98.8922 
 412   0.0000       3.647724        99.2596 
 413   0.0000       3.662187        99.6532 
 414   0.0000       3.688848       100.3787 
 415   0.0000       3.711235       100.9878 
 416   0.0000       3.742660       101.8429 
 417   0.0000       3.782887       102.9376 
 418   0.0000       3.795671       103.2855 
 419   0.0000       3.796868       103.3180 
 420   0.0000       3.824355       104.0660 
 421   0.0000       3.844654       104.6184 
 422   0.0000       3.861541       105.0779 
 423   0.0000       3.908414       106.3534 
 424   0.0000       3.923149       106.7543 
 425   0.0000       3.947161       107.4077 
 426   0.0000       3.954948       107.6196 
 427   0.0000       3.974644       108.1556 
 428   0.0000       4.021086       109.4193 
 429   0.0000       4.028905       109.6321 
 430   0.0000       4.048646       110.1693 
 431   0.0000       4.057504       110.4103 
 432   0.0000       4.064922       110.6122 
 433   0.0000       4.067231       110.6750 
 434   0.0000       4.100205       111.5722 
 435   0.0000       4.139462       112.6405 
 436   0.0000       4.150480       112.9403 
 437   0.0000       4.162353       113.2634 
 438   0.0000       4.178519       113.7033 
 439   0.0000       4.184123       113.8558 
 440   0.0000       4.203125       114.3728 
 441   0.0000       4.207289       114.4861 
 442   0.0000       4.226741       115.0155 
 443   0.0000       4.239194       115.3543 
 444   0.0000       4.248850       115.6171 
 445   0.0000       4.253088       115.7324 
 446   0.0000       4.262607       115.9914 
 447   0.0000       4.274000       116.3014 
 448   0.0000       4.290113       116.7399 
 449   0.0000       4.291538       116.7787 
 450   0.0000       4.298030       116.9553 
 451   0.0000       4.309544       117.2687 
 452   0.0000       4.324116       117.6652 
 453   0.0000       4.337356       118.0255 
 454   0.0000       4.362024       118.6967 
 455   0.0000       4.411875       120.0532 
 456   0.0000       4.427652       120.4825 
 457   0.0000       4.452670       121.1633 
 458   0.0000       4.506026       122.6152 
 459   0.0000       4.536707       123.4501 
 460   0.0000       4.538333       123.4943 
 461   0.0000       4.596842       125.0864 
 462   0.0000       4.621141       125.7476 
 463   0.0000       4.639285       126.2414 
 464   0.0000       4.647842       126.4742 
 465   0.0000       4.652131       126.5909 
 466   0.0000       4.684835       127.4809 
 467   0.0000       4.704455       128.0147 
 468   0.0000       4.713473       128.2601 
 469   0.0000       4.760910       129.5509 
 470   0.0000       4.771984       129.8523 
 471   0.0000       4.830984       131.4578 
 472   0.0000       4.879522       132.7785 
 473   0.0000       4.924791       134.0104 
 474   0.0000       4.949779       134.6903 
 475   0.0000       4.957393       134.8975 
 476   0.0000       4.974461       135.3620 
 477   0.0000       4.984597       135.6378 
 478   0.0000       4.993839       135.8893 
 479   0.0000       5.014454       136.4502 
 480   0.0000       5.053752       137.5196 
 481   0.0000       5.159071       140.3855 
 482   0.0000       5.222453       142.1102 
 483   0.0000       5.260535       143.1464 
 484   0.0000       5.280477       143.6891 
 485   0.0000       5.317659       144.7009 
 486   0.0000       5.333534       145.1328 
 487   0.0000       5.375104       146.2640 
 488   0.0000       5.404712       147.0697 
 489   0.0000       5.474781       148.9764 
 490   0.0000       5.518077       150.1545 
 491   0.0000       5.529420       150.4632 
 492   0.0000       5.561959       151.3486 
 493   0.0000       5.606466       152.5597 
 494   0.0000       5.620746       152.9483 
 495   0.0000       5.646350       153.6450 
 496   0.0000       5.784194       157.3959 
 497   0.0000       5.800832       157.8487 
 498   0.0000       5.870107       159.7337 
 499   0.0000       5.926321       161.2634 
 500   0.0000       6.031805       164.1337 
 501   0.0000       6.090606       165.7338 
 502   0.0000       6.384348       173.7269 
 503   0.0000       6.399069       174.1275 
 504   0.0000       6.462810       175.8620 
 505   0.0000       6.557384       178.4355 
 506   0.0000       6.658725       181.1931 
 507   0.0000       6.670036       181.5009 
 508   0.0000       6.678527       181.7320 
 509   0.0000       6.811924       185.3619 
 510   0.0000       6.881242       187.2481 
 511   0.0000       6.882320       187.2774 
 512   0.0000       7.126544       193.9231 
 513   0.0000       7.133022       194.0994 
 514   0.0000       7.199604       195.9112 
 515   0.0000       7.441034       202.4808 
 516   0.0000      22.142006       602.5146 
 517   0.0000      22.469658       611.4305 
 518   0.0000      22.501097       612.2860 
 519   0.0000      22.748347       619.0140 
 520   0.0000      22.787358       620.0755 
 521   0.0000      22.804315       620.5370 
 522   0.0000      22.864570       622.1766 
 523   0.0000      22.882305       622.6592 
 524   0.0000      22.900012       623.1410 
 525   0.0000      23.044356       627.0688 
 526   0.0000      23.162171       630.2747 
 527   0.0000      23.448596       638.0687 
 528   0.0000      23.610341       642.4700 
 529   0.0000      44.084295      1199.5947 
 530   0.0000      44.320658      1206.0264 

                    ********************************
                    * MULLIKEN POPULATION ANALYSIS *
                    ********************************

-----------------------
MULLIKEN ATOMIC CHARGES
-----------------------
   0 C :    0.106830
   1 C :   -0.240580
   2 C :   -0.237936
   3 H :    0.130999
   4 H :    0.130701
   5 C :   -0.315290
   6 C :   -0.316881
   7 H :    0.096871
   8 H :    0.097281
   9 C :    0.270209
  10 O :   -0.659576
  11 C :    0.155185
  12 C :   -0.219169
  13 C :   -0.259934
  14 C :   -0.261110
  15 C :   -0.297311
  16 C :    0.322541
  17 H :    0.140638
  18 H :    0.144025
  19 H :    0.130295
  20 H :    0.155658
  21 O :   -0.268707
  22 C :   -0.250678
  23 H :    0.143376
  24 H :    0.143712
  25 H :    0.158851
Sum of atomic charges:   -1.0000000

--------------------------------
MULLIKEN REDUCED ORBITAL CHARGES
--------------------------------
  0 C s       :     3.190558  s :     3.190558
      pz      :     0.683482  p :     2.556000
      px      :     1.002820
      py      :     0.869698
      dz2     :     0.032366  d :     0.136842
      dxz     :     0.026517
      dyz     :     0.038799
      dx2y2   :     0.019012
      dxy     :     0.020148
      f0      :     0.001278  f :     0.009769
      f+1     :     0.001225
      f-1     :     0.003022
      f+2     :     0.001006
      f-2     :     0.001078
      f+3     :     0.000975
      f-3     :     0.001184
  1 C s       :     3.207831  s :     3.207831
      pz      :     0.972595  p :     2.923577
      px      :     0.956619
      py      :     0.994363
      dz2     :     0.019681  d :     0.101900
      dxz     :     0.025680
      dyz     :     0.036566
      dx2y2   :     0.011014
      dxy     :     0.008960
      f0      :     0.000859  f :     0.007271
      f+1     :     0.001517
      f-1     :     0.002008
      f+2     :     0.000731
      f-2     :     0.000599
      f+3     :     0.000663
      f-3     :     0.000894
  2 C s       :     3.206780  s :     3.206780
      pz      :     0.966354  p :     2.922063
      px      :     0.965650
      py      :     0.990059
      dz2     :     0.020386  d :     0.101822
      dxz     :     0.026562
      dyz     :     0.035267
      dx2y2   :     0.008207
      dxy     :     0.011401
      f0      :     0.000899  f :     0.007271
      f+1     :     0.001406
      f-1     :     0.002103
      f+2     :     0.000632
      f-2     :     0.000726
      f+3     :     0.000813
      f-3     :     0.000692
  3 H s       :     0.846823  s :     0.846823
      pz      :     0.006333  p :     0.022177
      px      :     0.005296
      py      :     0.010549
  4 H s       :     0.847114  s :     0.847114
      pz      :     0.006055  p :     0.022185
      px      :     0.005817
      py      :     0.010313
  5 C s       :     3.256769  s :     3.256769
      pz      :     0.926285  p :     2.971262
      px      :     1.086012
      py      :     0.958965
      dz2     :     0.016787  d :     0.080220
      dxz     :     0.018569
      dyz     :     0.029544
      dx2y2   :     0.007301
      dxy     :     0.008020
      f0      :     0.001025  f :     0.007038
      f+1     :     0.001390
      f-1     :     0.002045
      f+2     :     0.000642
      f-2     :     0.000644
      f+3     :     0.000693
      f-3     :     0.000599
  6 C s       :     3.258030  s :     3.258030
      pz      :     0.927578  p :     2.971601
      px      :     1.084369
      py      :     0.959654
      dz2     :     0.016478  d :     0.080212
      dxz     :     0.018031
      dyz     :     0.030073
      dx2y2   :     0.008466
      dxy     :     0.007163
[...]
     15      -0.011560  -0.014351  -0.001175   0.000183  -0.000461  -0.000086
     16       0.027927   0.034960   0.002765  -0.000479   0.001062   0.000227
     17       0.018066   0.021675   0.001997  -0.000262   0.000732   0.000088
     18      -0.009090   0.007913   0.000281  -0.000651   0.000166   0.000085
     19       0.033662  -0.029049  -0.001068   0.002443  -0.000616  -0.000267
     20      -0.022632   0.018756   0.000757  -0.001875   0.000370   0.000142
     21       0.130944   0.163281   0.012932  -0.002238   0.004857   0.001001
     22      -0.321790  -0.401428  -0.031963   0.005548  -0.012131  -0.002484
     23      -0.185377  -0.229693  -0.018511   0.003252  -0.007111  -0.001530
     24       0.107568  -0.092823  -0.003390   0.007699  -0.001900  -0.000765
     25      -0.386522   0.332699   0.012342  -0.028116   0.007046   0.002917
     26       0.234272  -0.200368  -0.007491   0.017178  -0.004413  -0.001815
     27       0.000833  -0.000300   0.000026   0.000092   0.000001  -0.000017
     28      -0.002269  -0.000272  -0.000113  -0.000140  -0.000048   0.000003
     29      -0.000261   0.003706   0.000241  -0.000220   0.000228   0.000128
     30      -0.000094   0.000093   0.000001  -0.000012   0.000011   0.000007
     31       0.000196   0.000037   0.000012   0.000012   0.000005   0.000002
     32       0.000080  -0.001040  -0.000056   0.000073  -0.000113  -0.000081
     33      -0.000031   0.000075  -0.000272  -0.000153  -0.000514   0.000083
     34       0.000839   0.000059  -0.000612  -0.001865  -0.001705   0.001005
     35       0.000102  -0.000758   0.001515  -0.001892   0.001886   0.001034
     36      -0.000681  -0.001149   0.007873   0.001401   0.007421   0.000399
     37      -0.005237  -0.007974   0.050409   0.009922   0.051134   0.002543
     38      -0.003354  -0.004454   0.028036   0.006614   0.033520   0.001301
     39      -0.001764   0.001841  -0.002301   0.019077  -0.001274  -0.005418
     40      -0.006857   0.007215  -0.008663   0.070770  -0.004961  -0.018915
     41       0.003659  -0.003351   0.003764  -0.035478   0.001855   0.012486
     42       0.000448   0.000658  -0.013023  -0.000695   0.013722  -0.000003
     43       0.001790   0.002634  -0.051987  -0.002890   0.053311   0.000265
     44      -0.000711  -0.001131   0.026139   0.001298  -0.031122   0.000375
     45       0.000191  -0.000178   0.000634  -0.002682   0.000351  -0.009367
     46       0.001005  -0.000993   0.004046  -0.017842   0.002736  -0.072076
     47       0.000305  -0.000318   0.001563  -0.007775   0.001917  -0.042630
     48      -0.000007   0.000004  -0.000001  -0.000071  -0.000180   0.000770
     49       0.000009  -0.000033   0.001256  -0.000121  -0.002396   0.002846
     50      -0.000037  -0.000129   0.001822  -0.000059  -0.002535  -0.002323
     51       0.009084   0.013711  -0.086495  -0.017588  -0.086645  -0.003941
     52       0.059489   0.090256  -0.583913  -0.118044  -0.588149  -0.026945
     53       0.036094   0.053954  -0.351126  -0.072463  -0.358003  -0.015991
     54       0.021117  -0.022023   0.026121  -0.219161   0.014068   0.057604
     55       0.077485  -0.081548   0.098545  -0.817478   0.053637   0.214186
     56      -0.039818   0.041332  -0.049811   0.419936  -0.026670  -0.112522
     57      -0.005296  -0.007905   0.152555   0.008662  -0.154507   0.000016
     58      -0.021052  -0.031562   0.599581   0.033783  -0.605833  -0.000339
     59       0.011146   0.016997  -0.323694  -0.018303   0.331187  -0.000730
     60      -0.001570   0.001532  -0.006101   0.027632  -0.004293   0.107022
     61      -0.012207   0.012397  -0.046045   0.208984  -0.033476   0.821871
     62      -0.006958   0.007243  -0.026191   0.121929  -0.020567   0.490887
     63      -0.000009  -0.000004  -0.000013   0.000043   0.000008  -0.000081
     64      -0.000012   0.000002  -0.000097  -0.000026   0.000280  -0.000397
     65       0.000000   0.000066   0.000018  -0.000205   0.000398   0.000090
     66       0.000078  -0.000062   0.000118  -0.000356  -0.000017  -0.000598
     67       0.000214  -0.000165   0.000149  -0.000890  -0.000152  -0.001995
     68      -0.000349   0.000170  -0.000606   0.001485   0.000077   0.001965
     69       0.001058  -0.000818   0.000489  -0.005354  -0.000230  -0.013637
     70      -0.000921   0.000756  -0.000002   0.004331   0.000266   0.011688
     71       0.000377  -0.000322   0.000355  -0.002158  -0.000164  -0.006495
     72      -0.001332   0.001215  -0.000687   0.007085   0.000156   0.018161
     73      -0.000508   0.000491   0.000128   0.002393   0.000096   0.006558
     74       0.000074  -0.000108   0.000280  -0.000748  -0.000042  -0.002871
     75      -0.000672   0.000321  -0.000979   0.002897  -0.000066   0.004143
     76      -0.001206   0.000603  -0.001984   0.005568   0.000138   0.009085
     77       0.003791  -0.001765   0.005227  -0.016006   0.000795  -0.021525


-----------
IR SPECTRUM
-----------

 Mode   freq       eps      Int      T**2         TX        TY        TZ
       cm**-1   L/(mol*cm) km/mol    a.u.
----------------------------------------------------------------------------
  6:     48.98   0.000117    0.59  0.000747  (-0.026397 -0.006180  0.003516)
  7:     64.48   0.000618    3.12  0.002990  (-0.042542 -0.003605 -0.034166)
  8:     83.72   0.000836    4.22  0.003115  (-0.045430 -0.031130 -0.009084)
  9:    104.09   0.001240    6.27  0.003717  ( 0.054762 -0.025482 -0.008307)
 10:    155.87   0.000148    0.75  0.000297  ( 0.011538  0.009175 -0.008922)
 11:    222.61   0.000954    4.82  0.001337  (-0.023588 -0.015804  0.023047)
 12:    239.10   0.001440    7.28  0.001879  ( 0.007561 -0.003303  0.042559)
 13:    268.27   0.000895    4.52  0.001041  (-0.024318 -0.010332 -0.018523)
 14:    280.41   0.000608    3.07  0.000677  (-0.020683  0.011422  0.010894)
 15:    389.81   0.000499    2.52  0.000399  ( 0.011424 -0.016395 -0.000098)
 16:    402.93   0.000099    0.50  0.000077  (-0.002082  0.008076  0.002676)
 17:    430.03   0.000053    0.27  0.000038  ( 0.001267 -0.000297  0.006034)
 18:    434.76   0.000923    4.67  0.000663  (-0.003527 -0.000615  0.025491)
 19:    467.20   0.001650    8.34  0.001102  ( 0.014974 -0.014978 -0.025570)
 20:    485.19   0.004034   20.38  0.002594  ( 0.014653 -0.015258  0.046333)
 21:    526.02   0.011110   56.14  0.006591  (-0.079073 -0.014503  0.011321)
 22:    553.39   0.017701   89.46  0.009982  ( 0.000975  0.015741 -0.098657)
 23:    553.98   0.003313   16.74  0.001866  ( 0.010069 -0.026377 -0.032694)
 24:    642.63   0.000385    1.95  0.000187  ( 0.009794  0.002362  0.009252)
 25:    651.92   0.000330    1.67  0.000158  (-0.001389  0.009318  0.008322)
 26:    682.93   0.000226    1.14  0.000103  ( 0.000067 -0.009904 -0.002322)
 27:    739.21   0.001496    7.56  0.000632  ( 0.024144  0.006746  0.001808)
 28:    762.97   0.001029    5.20  0.000421  ( 0.019756 -0.005232  0.001833)
 29:    812.34   0.001721    8.70  0.000661  ( 0.005441  0.001715 -0.025070)
 30:    821.68   0.008287   41.88  0.003147  ( 0.008131  0.011044 -0.054397)
 31:    828.52   0.001578    7.98  0.000594  ( 0.024260 -0.002425  0.000106)
 32:    847.83   0.040543  204.89  0.014923  ( 0.120980  0.007195  0.015321)
 33:    853.48   0.000671    3.39  0.000245  (-0.012978 -0.003992  0.007800)
 34:    863.59   0.003254   16.45  0.001176  ( 0.000829  0.034260 -0.001250)
 35:    955.41   0.000062    0.31  0.000020  (-0.003456 -0.002780  0.000690)
 36:    967.30   0.000208    1.05  0.000067  ( 0.003324  0.006513 -0.003695)
 37:    969.18   0.000161    0.81  0.000052  ( 0.001753  0.005941  0.003664)
 38:    976.11   0.000018    0.09  0.000006  (-0.000516 -0.002245  0.000724)
 39:    996.22   0.004397   22.22  0.001377  (-0.003856 -0.002010  0.036858)
 40:   1023.85   0.000159    0.80  0.000048  (-0.000613  0.000494  0.006907)
 41:   1048.75   0.001292    6.53  0.000384  (-0.001176 -0.015613 -0.011800)
 42:   1086.52   0.024285  122.73  0.006975  (-0.001882 -0.054620 -0.063151)
 43:   1112.06   0.004112   20.78  0.001154  (-0.012548  0.031566  0.000170)
 44:   1132.04   0.004841   24.47  0.001335  ( 0.006460  0.034454 -0.010285)
 45:   1171.62   0.000210    1.06  0.000056  ( 0.007301 -0.001363 -0.000899)
 46:   1174.71   0.034190  172.78  0.009083  ( 0.008869 -0.002088 -0.094866)
 47:   1196.75   0.000337    1.70  0.000088  (-0.001982 -0.008893  0.002222)
 48:   1204.19   0.003692   18.66  0.000957  (-0.000299 -0.018983 -0.024421)
 49:   1272.45   0.002567   12.97  0.000630  (-0.006466  0.024217  0.001176)
 50:   1288.08   0.111806  565.02  0.027087  (-0.011987  0.009785  0.163853)
 51:   1304.28   0.027980  141.40  0.006695  ( 0.012426 -0.050571 -0.063109)
 52:   1320.34   0.003329   16.82  0.000787  (-0.000355  0.012146 -0.025281)
 53:   1332.76   0.001335    6.75  0.000313  ( 0.005927 -0.006710 -0.015249)
 54:   1353.02   0.008921   45.08  0.002058  ( 0.003813  0.008018  0.044484)
 55:   1405.96   0.079303  400.76  0.017602  (-0.013571 -0.003895  0.131919)
 56:   1447.38   0.002105   10.64  0.000454  ( 0.002527 -0.020244 -0.006141)
 57:   1467.56   0.009668   48.86  0.002056  (-0.004274 -0.002422  0.045074)
 58:   1470.08   0.003995   20.19  0.000848  (-0.007199  0.027016 -0.008146)
 59:   1471.51   0.002995   15.14  0.000635  ( 0.024408 -0.005176 -0.003565)
 60:   1486.47   0.013404   67.74  0.002814  ( 0.006571 -0.003129 -0.052546)
 61:   1532.80   0.295442  1493.04  0.060149  ( 0.024200 -0.002718 -0.244042)
 62:   1560.37   0.009176   46.37  0.001835  ( 0.011686 -0.040885  0.005188)
 63:   1567.38   0.003677   18.58  0.000732  (-0.003191 -0.004135  0.026547)
 64:   1629.21   0.002695   13.62  0.000516  (-0.005803 -0.006838  0.020873)
 65:   1645.71   0.116068  586.56  0.022009  ( 0.015070  0.001894 -0.147575)
 66:   1672.13   0.017409   87.98  0.003249  (-0.004984  0.004572  0.056597)
 67:   3028.88   0.016408   82.92  0.001691  ( 0.001511  0.028268  0.029818)
 68:   3095.67   0.009608   48.55  0.000969  ( 0.030512 -0.004995  0.003549)
 69:   3152.23   0.010184   51.47  0.001008  (-0.001855 -0.007345  0.030836)
 70:   3153.23   0.007156   36.17  0.000708  (-0.003883  0.006862  0.025418)
 71:   3159.45   0.004943   24.98  0.000488  (-0.003829 -0.007558  0.020408)
 72:   3170.64   0.015647   79.07  0.001540  (-0.014178  0.036559 -0.001542)
 73:   3174.57   0.000667    3.37  0.000066  (-0.001997  0.003755  0.006891)
 74:   3188.41   0.003690   18.65  0.000361  (-0.002059  0.003241  0.018611)
 75:   3192.35   0.003217   16.26  0.000314  ( 0.003169  0.013909 -0.010533)
 76:   3203.93   0.002580   13.04  0.000251  ( 0.003088  0.015216 -0.003196)
 77:   3222.62   0.001663    8.40  0.000161  (-0.000369 -0.007443 -0.010272)

* The epsilon (eps) is given for a Dirac delta lineshape.
** The dipole moment derivative (T) already includes vibrational overlap.

The first frequency considered to be a vibration is 6
The total number of vibrations considered is 72


--------------------------
THERMOCHEMISTRY AT 298.15K
--------------------------

Temperature         ... 298.15 K
Pressure            ... 1.00 atm
Total Mass          ... 199.23 AMU

Throughout the following assumptions are being made:
  (1) The electronic state is orbitally nondegenerate
  (2) There are no thermally accessible electronically excited states
  (3) Hindered rotations indicated by low frequency modes are not
      treated as such but are treated as vibrations and this may
      cause some error
  (4) All equations used are the standard statistical mechanics
      equations for an ideal gas
  (5) All vibrations are strictly harmonic

freq.      48.98  E(vib)   ...       0.53 
freq.      64.48  E(vib)   ...       0.51 
freq.      83.72  E(vib)   ...       0.48 
freq.     104.09  E(vib)   ...       0.46 
freq.     155.87  E(vib)   ...       0.40 
freq.     222.61  E(vib)   ...       0.33 
freq.     239.10  E(vib)   ...       0.32 
freq.     268.27  E(vib)   ...       0.29 
freq.     280.41  E(vib)   ...       0.28 
freq.     389.81  E(vib)   ...       0.20 
freq.     402.93  E(vib)   ...       0.19 
freq.     430.03  E(vib)   ...       0.18 
freq.     434.76  E(vib)   ...       0.17 
freq.     467.20  E(vib)   ...       0.16 
freq.     485.19  E(vib)   ...       0.15 
freq.     526.02  E(vib)   ...       0.13 
freq.     553.39  E(vib)   ...       0.12 
freq.     553.98  E(vib)   ...       0.12 
freq.     642.63  E(vib)   ...       0.09 
freq.     651.92  E(vib)   ...       0.08 
freq.     682.93  E(vib)   ...       0.08 
freq.     739.21  E(vib)   ...       0.06 
freq.     762.97  E(vib)   ...       0.06 
freq.     812.34  E(vib)   ...       0.05 
freq.     821.68  E(vib)   ...       0.05 
freq.     828.52  E(vib)   ...       0.04 
freq.     847.83  E(vib)   ...       0.04 
freq.     853.48  E(vib)   ...       0.04 
freq.     863.59  E(vib)   ...       0.04 
freq.     955.41  E(vib)   ...       0.03 
freq.     967.30  E(vib)   ...       0.03 
freq.     969.18  E(vib)   ...       0.03 
freq.     976.11  E(vib)   ...       0.03 
freq.     996.22  E(vib)   ...       0.02 
freq.    1023.85  E(vib)   ...       0.02 
freq.    1048.75  E(vib)   ...       0.02 
freq.    1086.52  E(vib)   ...       0.02 
freq.    1112.06  E(vib)   ...       0.01 
freq.    1132.04  E(vib)   ...       0.01 
freq.    1171.62  E(vib)   ...       0.01 
freq.    1174.71  E(vib)   ...       0.01 
freq.    1196.75  E(vib)   ...       0.01 
freq.    1204.19  E(vib)   ...       0.01 
freq.    1272.45  E(vib)   ...       0.01 
freq.    1288.08  E(vib)   ...       0.01 
freq.    1304.28  E(vib)   ...       0.01 
freq.    1320.34  E(vib)   ...       0.01 
freq.    1332.76  E(vib)   ...       0.01 
freq.    1353.02  E(vib)   ...       0.01 
freq.    1405.96  E(vib)   ...       0.00 
freq.    1447.38  E(vib)   ...       0.00 
freq.    1467.56  E(vib)   ...       0.00 
freq.    1470.08  E(vib)   ...       0.00 
freq.    1471.51  E(vib)   ...       0.00 
freq.    1486.47  E(vib)   ...       0.00 
freq.    1532.80  E(vib)   ...       0.00 
freq.    1560.37  E(vib)   ...       0.00 
freq.    1567.38  E(vib)   ...       0.00 
freq.    1629.21  E(vib)   ...       0.00 
freq.    1645.71  E(vib)   ...       0.00 
freq.    1672.13  E(vib)   ...       0.00 
freq.    3028.88  E(vib)   ...       0.00 
freq.    3095.67  E(vib)   ...       0.00 
freq.    3152.23  E(vib)   ...       0.00 
freq.    3153.23  E(vib)   ...       0.00 
freq.    3159.45  E(vib)   ...       0.00 
freq.    3170.64  E(vib)   ...       0.00 
freq.    3174.57  E(vib)   ...       0.00 
freq.    3188.41  E(vib)   ...       0.00 
freq.    3192.35  E(vib)   ...       0.00 
freq.    3203.93  E(vib)   ...       0.00 
freq.    3222.62  E(vib)   ...       0.00 

------------
INNER ENERGY
------------

The inner energy is: U= E(el) + E(ZPE) + E(vib) + E(rot) + E(trans)
    E(el)   - is the total energy from the electronic structure calculation
              = E(kin-el) + E(nuc-el) + E(el-el) + E(nuc-nuc)
    E(ZPE)  - the the zero temperature vibrational energy from the frequency calculation
    E(vib)  - the the finite temperature correction to E(ZPE) due to population
              of excited vibrational states
    E(rot)  - is the rotational thermal energy
    E(trans)- is the translational thermal energy

Summary of contributions to the inner energy U:
Electronic energy                ...   -652.09103235 Eh
Zero point energy                ...      0.20549553 Eh     128.95 kcal/mol
Thermal vibrational correction   ...      0.00947232 Eh       5.94 kcal/mol
Thermal rotational correction    ...      0.00141627 Eh       0.89 kcal/mol
Thermal translational correction ...      0.00141627 Eh       0.89 kcal/mol
-----------------------------------------------------------------------
Total thermal energy                   -651.87323195 Eh


Summary of corrections to the electronic energy:
(perhaps to be used in another calculation)
Total thermal correction                  0.01230486 Eh       7.72 kcal/mol
Non-thermal (ZPE) correction              0.20549553 Eh     128.95 kcal/mol
-----------------------------------------------------------------------
Total correction                          0.21780039 Eh     136.67 kcal/mol


--------
ENTHALPY
--------

The enthalpy is H = U + kB*T
                kB is Boltzmann's constant
Total free energy                 ...   -651.87323195 Eh 
Thermal Enthalpy correction       ...      0.00094421 Eh       0.59 kcal/mol
-----------------------------------------------------------------------
Total Enthalpy                    ...   -651.87228774 Eh


Note: Only C1 symmetry has been detected, increase convergence thresholds 
      if your molecule has a higher symmetry. Symmetry factor of 1.0 is   
      used for the rotational entropy correction. 
 

Note: Rotational entropy computed according to Herzberg 
Infrared and Raman Spectra, Chapter V,1, Van Nostrand Reinhold, 1945 
Point Group:  C1, Symmetry Number:   1  
Rotational constants in cm-1:     0.087803     0.007977     0.007396 

Vibrational entropy computed according to the QRRHO of S. Grimme
Chem.Eur.J. 2012 18 9955


-------
ENTROPY
-------

The entropy contributions are T*S = T*(S(el)+S(vib)+S(rot)+S(trans))
     S(el)   - electronic entropy
     S(vib)  - vibrational entropy
     S(rot)  - rotational entropy
     S(trans)- translational entropy
The entropies will be listed as multiplied by the temperature to get
units of energy

Electronic entropy                ...      0.00000000 Eh      0.00 kcal/mol
Vibrational entropy               ...      0.01602209 Eh     10.05 kcal/mol
Rotational entropy                ...      0.01525649 Eh      9.57 kcal/mol
Translational entropy             ...      0.01984746 Eh     12.45 kcal/mol
-----------------------------------------------------------------------
Final entropy term                ...      0.05112603 Eh     32.08 kcal/mol

In case the symmetry of your molecule has not been determined correctly
or in case you have a reason to use a different symmetry number we print 
out the resulting rotational entropy values for sn=1,12 :
 --------------------------------------------------------
|  sn= 1 | S(rot)=       0.01525649 Eh      9.57 kcal/mol|
|  sn= 2 | S(rot)=       0.01460203 Eh      9.16 kcal/mol|
|  sn= 3 | S(rot)=       0.01421920 Eh      8.92 kcal/mol|
|  sn= 4 | S(rot)=       0.01394758 Eh      8.75 kcal/mol|
|  sn= 5 | S(rot)=       0.01373689 Eh      8.62 kcal/mol|
|  sn= 6 | S(rot)=       0.01356474 Eh      8.51 kcal/mol|
|  sn= 7 | S(rot)=       0.01341920 Eh      8.42 kcal/mol|
|  sn= 8 | S(rot)=       0.01329312 Eh      8.34 kcal/mol|
|  sn= 9 | S(rot)=       0.01318191 Eh      8.27 kcal/mol|
|  sn=10 | S(rot)=       0.01308243 Eh      8.21 kcal/mol|
|  sn=11 | S(rot)=       0.01299244 Eh      8.15 kcal/mol|
|  sn=12 | S(rot)=       0.01291029 Eh      8.10 kcal/mol|
 --------------------------------------------------------


-------------------
GIBBS FREE ENERGY
-------------------

The Gibbs free energy is G = H - T*S

Total enthalpy                    ...   -651.87228774 Eh 
Total entropy correction          ...     -0.05112603 Eh    -32.08 kcal/mol
-----------------------------------------------------------------------
Final Gibbs free energy         ...   -651.92341378 Eh

For completeness - the Gibbs free energy minus the electronic energy
G-E(el)                           ...      0.16761857 Eh    105.18 kcal/mol


Timings for individual modules:

Sum of individual times         ...      719.660 sec (=  11.994 min)
GTO integral calculation        ...        5.424 sec (=   0.090 min)   0.8 %
SCF iterations                  ...      115.021 sec (=   1.917 min)  16.0 %
SCF Gradient evaluation         ...       22.805 sec (=   0.380 min)   3.2 %
Geometry relaxation             ...        0.246 sec (=   0.004 min)   0.0 %
Analytical frequency calculation...      576.164 sec (=   9.603 min)  80.1 %
                             ****ORCA TERMINATED NORMALLY****
TOTAL RUN TIME: 0 days 0 hours 12 minutes 8 seconds 732 msec
