
                                 *****************
                                 * O   R   C   A *
                                 *****************

                                            #,                                       
                                            ###                                      
                                            ####                                     
                                            #####                                    
                                            ######                                   
                                           ########,                                 
                                     ,,################,,,,,                         
                               ,,#################################,,                 
                          ,,##########################################,,             
                       ,#########################################, ''#####,          
                    ,#############################################,,   '####,        
                  ,##################################################,,,,####,       
                ,###########''''           ''''###############################       
              ,#####''   ,,,,##########,,,,          '''####'''          '####       
            ,##' ,,,,###########################,,,                        '##       
           ' ,,###''''                  '''############,,,                           
         ,,##''                                '''############,,,,        ,,,,,,###''
      ,#''                                            '''#######################'''  
     '                                                          ''''####''''         
             ,#######,   #######,   ,#######,      ##                                
            ,#'     '#,  ##    ##  ,#'     '#,    #''#        ######   ,####,        
            ##       ##  ##   ,#'  ##            #'  '#       #        #'  '#        
            ##       ##  #######   ##           ,######,      #####,   #    #        
            '#,     ,#'  ##    ##  '#,     ,#' ,#      #,         ##   #,  ,#        
             '#######'   ##     ##  '#######'  #'      '#     #####' # '####'        



                  #######################################################
                  #                        -***-                        #
                  #          Department of theory and spectroscopy      #
                  #    Directorship and core code : Frank Neese         #
                  #        Max Planck Institute fuer Kohlenforschung    #
                  #                Kaiser Wilhelm Platz 1               #
                  #                 D-45470 Muelheim/Ruhr               #
                  #                      Germany                        #
                  #                                                     #
                  #                  All rights reserved                #
                  #                        -***-                        #
                  #######################################################


                         Program Version 5.0.4 -  RELEASE  -


 With contributions from (in alphabetic order):
   Daniel Aravena         : Magnetic Suceptibility
   Michael Atanasov       : Ab Initio Ligand Field Theory (pilot matlab implementation)
   Alexander A. Auer      : GIAO ZORA, VPT2 properties, NMR spectrum
   Ute Becker             : Parallelization
   Giovanni Bistoni       : ED, misc. LED, open-shell LED, HFLD
   Martin Brehm           : Molecular dynamics
   Dmytro Bykov           : SCF Hessian
   Vijay G. Chilkuri      : MRCI spin determinant printing, contributions to CSF-ICE
   Dipayan Datta          : RHF DLPNO-CCSD density
   Achintya Kumar Dutta   : EOM-CC, STEOM-CC
   Dmitry Ganyushin       : Spin-Orbit,Spin-Spin,Magnetic field MRCI
   Miquel Garcia          : C-PCM and meta-GGA Hessian, CC/C-PCM, Gaussian charge scheme
   Yang Guo               : DLPNO-NEVPT2, F12-NEVPT2, CIM, IAO-localization
   Andreas Hansen         : Spin unrestricted coupled pair/coupled cluster methods
   Benjamin Helmich-Paris : MC-RPA, TRAH-SCF, COSX integrals
   Lee Huntington         : MR-EOM, pCC
   Robert Izsak           : Overlap fitted RIJCOSX, COSX-SCS-MP3, EOM
   Marcus Kettner         : VPT2
   Christian Kollmar      : KDIIS, OOCD, Brueckner-CCSD(T), CCSD density, CASPT2, CASPT2-K
   Simone Kossmann        : Meta GGA functionals, TD-DFT gradient, OOMP2, MP2 Hessian
   Martin Krupicka        : Initial AUTO-CI
   Lucas Lang             : DCDCAS
   Marvin Lechner         : AUTO-CI (C++ implementation), FIC-MRCC
   Dagmar Lenk            : GEPOL surface, SMD
   Dimitrios Liakos       : Extrapolation schemes; Compound Job, initial MDCI parallelization
   Dimitrios Manganas     : Further ROCIS development; embedding schemes
   Dimitrios Pantazis     : SARC Basis sets
   Anastasios Papadopoulos: AUTO-CI, single reference methods and gradients
   Taras Petrenko         : DFT Hessian,TD-DFT gradient, ASA, ECA, R-Raman, ABS, FL, XAS/XES, NRVS
   Peter Pinski           : DLPNO-MP2, DLPNO-MP2 Gradient
   Christoph Reimann      : Effective Core Potentials
   Marius Retegan         : Local ZFS, SOC
   Christoph Riplinger    : Optimizer, TS searches, QM/MM, DLPNO-CCSD(T), (RO)-DLPNO pert. Triples
   Tobias Risthaus        : Range-separated hybrids, TD-DFT gradient, RPA, STAB
   Michael Roemelt        : Original ROCIS implementation
   Masaaki Saitow         : Open-shell DLPNO-CCSD energy and density
   Barbara Sandhoefer     : DKH picture change effects
   Avijit Sen             : IP-ROCIS
   Kantharuban Sivalingam : CASSCF convergence, NEVPT2, FIC-MRCI
   Bernardo de Souza      : ESD, SOC TD-DFT
   Georgi Stoychev        : AutoAux, RI-MP2 NMR, DLPNO-MP2 response
   Willem Van den Heuvel  : Paramagnetic NMR
   Boris Wezisla          : Elementary symmetry handling
   Frank Wennmohs         : Technical directorship


 We gratefully acknowledge several colleagues who have allowed us to
 interface, adapt or use parts of their codes:
   Stefan Grimme, W. Hujo, H. Kruse, P. Pracht,  : VdW corrections, initial TS optimization,
                  C. Bannwarth, S. Ehlert          DFT functionals, gCP, sTDA/sTD-DF
   Ed Valeev, F. Pavosevic, A. Kumar             : LibInt (2-el integral package), F12 methods
   Garnet Chan, S. Sharma, J. Yang, R. Olivares  : DMRG
   Ulf Ekstrom                                   : XCFun DFT Library
   Mihaly Kallay                                 : mrcc  (arbitrary order and MRCC methods)
   Jiri Pittner, Ondrej Demel                    : Mk-CCSD
   Frank Weinhold                                : gennbo (NPA and NBO analysis)
   Christopher J. Cramer and Donald G. Truhlar   : smd solvation model
   Lars Goerigk                                  : TD-DFT with DH, B97 family of functionals
   V. Asgeirsson, H. Jonsson                     : NEB implementation
   FAccTs GmbH                                   : IRC, NEB, NEB-TS, DLPNO-Multilevel, CI-OPT
                                                   MM, QMMM, 2- and 3-layer-ONIOM, Crystal-QMMM,
                                                   LR-CPCM, SF, NACMEs, symmetry and pop. for TD-DFT,
                                                   nearIR, NL-DFT gradient (VV10), updates on ESD,
                                                   ML-optimized integration grids
   S Lehtola, MJT Oliveira, MAL Marques          : LibXC Library
   Liviu Ungur et al                             : ANISO software


 Your calculation uses the libint2 library for the computation of 2-el integrals
 For citations please refer to: http://libint.valeyev.net

 Your ORCA version has been built with support for libXC version: 5.1.0
 For citations please refer to: https://tddft.org/programs/libxc/

 This ORCA versions uses:
   CBLAS   interface :  Fast vector & matrix operations
   LAPACKE interface :  Fast linear algebra routines
   SCALAPACK package :  Parallel linear algebra routines
   Shared memory     :  Shared parallel matrices
   BLAS/LAPACK       :  OpenBLAS 0.3.15  USE64BITINT DYNAMIC_ARCH NO_AFFINITY Haswell SINGLE_THREADED
        Core in use  :  Haswell
   Copyright (c) 2011-2014, The OpenBLAS Project


Your calculation utilizes the atom-pairwise dispersion correction
with the Becke-Johnson damping scheme (D3BJ)
Cite in your paper:
S.Grimme, S.Ehrlich, L.Goerigk, J Comput Chem, (2011), 32, 1456–1465 
S.Grimme, J.Antony, S.Ehrlich and H.Krieg, J.Chem.Phys., 132, (2010), 154104 
   

================================================================================

----- Orbital basis set information -----
Your calculation utilizes the basis: def2-TZVP
   F. Weigend and R. Ahlrichs, Phys. Chem. Chem. Phys. 7, 3297 (2005).

----- AuxJ basis set information -----
Your calculation utilizes the auxiliary basis: def2/J
   F. Weigend, Phys. Chem. Chem. Phys. 8, 1057 (2006).

================================================================================
                                        WARNINGS
                       Please study these warnings very carefully!
================================================================================


WARNING: Geometry Optimization
  ===> : Switching off AutoStart
         For restart on a previous wavefunction, please use MOREAD

INFO   : the flag for use of the SHARK integral package has been found!

================================================================================
                                       INPUT FILE
================================================================================
NAME = CCH-PhenOH/CCH-PhenOH.inp
|  1> %pal nprocs 24 end
|  2> %maxcore 3500
|  3> ! PBE0 D3BJ def2-TZVP TightSCF OPT FREQ TightOpt
|  4> ! CPCM(dmso)
|  5> %scf
|  6> MaxIter 800
|  7> end
|  8> %geom
|  9> MaxIter 800
| 10> MaxStep 0.2
| 11> end
| 12> *xyz 0 1
| 13> 
| 14> C      -0.00000000     -0.54789700     -1.63243500
| 15> C      -0.00000000      0.68123200     -0.96635600
| 16> C      -0.00000000     -1.72233100     -0.87133300
| 17> H       0.00000000      1.60016100     -1.54056900
| 18> H      -0.00000000     -2.68247100     -1.37372700
| 19> C       0.00000000      0.73682600      0.41416300
| 20> C       0.00000000     -1.67232600      0.50839400
| 21> H       0.00000000      1.69484100      0.92403900
| 22> H       0.00000000     -2.58316000      1.09559200
| 23> C       0.00000000     -0.44037900      1.15808800
| 24> O      -0.00000000     -0.44124600      2.50781900
| 25> H      -0.00000000      0.46584700      2.83649800
| 26> C      -0.00000000     -0.60110700     -3.05426000
| 27> C       0.00000000     -0.64249800     -4.25874300
| 28> H       0.00000000     -0.67880500     -5.32511600
| 29> *
| 30> 
| 31>                          ****END OF INPUT****
================================================================================

                       *****************************
                       * Geometry Optimization Run *
                       *****************************

Geometry optimization settings:
Update method            Update   .... BFGS
Choice of coordinates    CoordSys .... Z-matrix Internals
Initial Hessian          InHess   .... Almoef's Model

Convergence Tolerances:
Energy Change            TolE     ....  1.0000e-06 Eh
Max. Gradient            TolMAXG  ....  1.0000e-04 Eh/bohr
RMS Gradient             TolRMSG  ....  3.0000e-05 Eh/bohr
Max. Displacement        TolMAXD  ....  1.0000e-03 bohr
RMS Displacement         TolRMSD  ....  6.0000e-04 bohr
Strict Convergence                ....  False
------------------------------------------------------------------------------
                        ORCA OPTIMIZATION COORDINATE SETUP
------------------------------------------------------------------------------

The optimization will be done in new redundant internal coordinates
Making redundant internal coordinates   ...  (new redundants) done
Evaluating the initial hessian          ...  (Almloef) done
Evaluating the coordinates              ...  done
Calculating the B-matrix                .... done
Calculating the G-matrix                .... done
Diagonalizing the G-matrix              .... done
Small eigenvalue found = 2.839e-02
The first mode is                       ....   25
The number of degrees of freedom        ....   39

    -----------------------------------------------------------------
                    Redundant Internal Coordinates


    -----------------------------------------------------------------
         Definition                    Initial Value    Approx d2E/dq
    -----------------------------------------------------------------
      1. B(C   1,C   0)                  1.3980         0.606689   
      2. B(C   2,C   0)                  1.3995         0.603390   
      3. B(H   3,C   1)                  1.0836         0.368690   
      4. B(H   4,C   2)                  1.0836         0.368617   
      5. B(C   5,C   1)                  1.3816         0.644287   
      6. B(C   6,C   2)                  1.3806         0.646671   
      7. B(H   7,C   5)                  1.0852         0.366440   
      8. B(H   8,C   6)                  1.0837         0.368522   
      9. B(C   9,C   6)                  1.3928         0.618481   
     10. B(C   9,C   5)                  1.3926         0.618938   
     11. B(O  10,C   9)                  1.3497         0.648816   
     12. B(H  11,O  10)                  0.9648         0.510860   
     13. B(C  12,C   0)                  1.4228         0.553829   
     14. B(C  13,C  12)                  1.2052         1.231926   
     15. B(H  14,C  13)                  1.0670         0.391862   
     16. A(C   1,C   0,C  12)          120.5970         0.423715   
     17. A(C   2,C   0,C  12)          120.8024         0.423302   
     18. A(C   1,C   0,C   2)          118.6006         0.430271   
     19. A(C   0,C   1,H   3)          119.5461         0.353021   
     20. A(H   3,C   1,C   5)          119.6940         0.356639   
     21. A(C   0,C   1,C   5)          120.7598         0.435375   
     22. A(H   4,C   2,C   6)          119.6965         0.356850   
     23. A(C   0,C   2,C   6)          120.8700         0.435237   
     24. A(C   0,C   2,H   4)          119.4336         0.352683   
     25. A(H   7,C   5,C   9)          119.6866         0.353851   
     26. A(C   1,C   5,C   9)          119.9844         0.436945   
     27. A(C   1,C   5,H   7)          120.3289         0.356268   
     28. A(H   8,C   6,C   9)          119.3850         0.354146   
     29. A(C   2,C   6,C   9)          119.8815         0.437178   
     30. A(C   2,C   6,H   8)          120.7335         0.356835   
     31. A(C   5,C   9,O  10)          122.3273         0.434630   
     32. A(C   5,C   9,C   6)          119.9036         0.433741   
     33. A(C   6,C   9,O  10)          117.7691         0.434572   
     34. A(C   9,O  10,H  11)          109.8808         0.371889   
     35. L(C   0,C  12,C  13,C   1, 2) 180.0000         0.481917   
     36. L(C   0,C  12,C  13,C   1, 1) 179.8249         0.481917   
     37. L(C  12,C  13,H  14, 2)       180.0000         0.403235   
     38. L(C  12,C  13,H  14, 1)       179.9819         0.403235   
     39. D(C   5,C   1,C   0,C   2)      0.0000         0.025405   
     40. D(C   5,C   1,C   0,C  12)    180.0000         0.025405   
     41. D(H   3,C   1,C   0,C  12)      0.0000         0.025405   
     42. D(H   3,C   1,C   0,C   2)    180.0000         0.025405   
     43. D(C   6,C   2,C   0,C   1)      0.0000         0.025114   
     44. D(H   4,C   2,C   0,C   1)    180.0000         0.025114   
     45. D(H   4,C   2,C   0,C  12)      0.0000         0.025114   
     46. D(C   6,C   2,C   0,C  12)    180.0000         0.025114   
     47. D(C   9,C   5,C   1,H   3)    180.0000         0.028867   
     48. D(C   9,C   5,C   1,C   0)      0.0000         0.028867   
     49. D(H   7,C   5,C   1,H   3)      0.0000         0.028867   
     50. D(H   7,C   5,C   1,C   0)    180.0000         0.028867   
     51. D(C   9,C   6,C   2,C   0)      0.0000         0.029096   
     52. D(H   8,C   6,C   2,H   4)      0.0000         0.029096   
     53. D(H   8,C   6,C   2,C   0)    180.0000         0.029096   
     54. D(C   9,C   6,C   2,H   4)    180.0000         0.029096   
     55. D(O  10,C   9,C   6,H   8)      0.0000         0.026461   
     56. D(C   5,C   9,C   6,H   8)    180.0000         0.026461   
     57. D(C   5,C   9,C   6,C   2)      0.0000         0.026461   
     58. D(O  10,C   9,C   5,H   7)      0.0000         0.026503   
     59. D(O  10,C   9,C   5,C   1)    180.0000         0.026503   
     60. D(O  10,C   9,C   6,C   2)    180.0000         0.026461   
     61. D(C   6,C   9,C   5,H   7)    180.0000         0.026503   
     62. D(C   6,C   9,C   5,C   1)      0.0000         0.026503   
     63. D(H  11,O  10,C   9,C   6)    180.0000         0.031102   
     64. D(H  11,O  10,C   9,C   5)      0.0000         0.031102   
    -----------------------------------------------------------------

Number of atoms                         .... 15
Number of degrees of freedom            .... 64

         *************************************************************
         *                GEOMETRY OPTIMIZATION CYCLE   1            *
         *************************************************************
---------------------------------
CARTESIAN COORDINATES (ANGSTROEM)
---------------------------------
  C     -0.000000   -0.547897   -1.632435
  C     -0.000000    0.681232   -0.966356
  C     -0.000000   -1.722331   -0.871333
  H      0.000000    1.600161   -1.540569
  H     -0.000000   -2.682471   -1.373727
  C      0.000000    0.736826    0.414163
  C      0.000000   -1.672326    0.508394
  H      0.000000    1.694841    0.924039
  H      0.000000   -2.583160    1.095592
  C      0.000000   -0.440379    1.158088
  O     -0.000000   -0.441246    2.507819
  H     -0.000000    0.465847    2.836498
  C     -0.000000   -0.601107   -3.054260
  C      0.000000   -0.642498   -4.258743
  H      0.000000   -0.678805   -5.325116

----------------------------
CARTESIAN COORDINATES (A.U.)
----------------------------
  NO LB      ZA    FRAG     MASS         X           Y           Z
   0 C     6.0000    0    12.011   -0.000000   -1.035375   -3.084855
   1 C     6.0000    0    12.011   -0.000000    1.287342   -1.826148
   2 C     6.0000    0    12.011   -0.000000   -3.254734   -1.646581
   3 H     1.0000    0     1.008    0.000000    3.023866   -2.911254
   4 H     1.0000    0     1.008   -0.000000   -5.069136   -2.595968
   5 C     6.0000    0    12.011    0.000000    1.392399    0.782655
   6 C     6.0000    0    12.011    0.000000   -3.160238    0.960725
   7 H     1.0000    0     1.008    0.000000    3.202785    1.746181
   8 H     1.0000    0     1.008    0.000000   -4.881465    2.070369
   9 C     6.0000    0    12.011    0.000000   -0.832196    2.188469
  10 O     8.0000    0    15.999   -0.000000   -0.833834    4.739091
  11 H     1.0000    0     1.008   -0.000000    0.880323    5.360204
  12 C     6.0000    0    12.011   -0.000000   -1.135928   -5.771715
  13 C     6.0000    0    12.011    0.000000   -1.214145   -8.047858
  14 H     1.0000    0     1.008    0.000000   -1.282756  -10.063011

--------------------------------
INTERNAL COORDINATES (ANGSTROEM)
--------------------------------
 C      0   0   0     0.000000000000     0.00000000     0.00000000
 C      1   0   0     1.398005483853     0.00000000     0.00000000
 C      1   2   0     1.399489719419   118.60063162     0.00000000
 H      2   1   3     1.083582519428   119.54612277   180.00000085
 H      3   1   2     1.083636724570   119.43355146   180.00000000
 C      2   1   3     1.381637941791   120.75984395     0.00000000
 C      3   1   2     1.380632860160   120.86995623     0.00000000
 H      6   2   1     1.085249407095   120.32893533   180.00000000
 H      7   3   1     1.083706633162   120.73349057   180.00000000
 C      6   2   1     1.392564547032   119.98442623     0.00000000
 O     10   6   2     1.349731278459   122.32730592   180.00000000
 H     11  10   6     0.964804433909   109.88083687     0.00000000
 C      1   2   3     1.422820310062   120.59699002   180.00000000
 C     13   1   2     1.205193972840   179.82492283     0.00000000
 H     14  13   1     1.066990896577   179.98186217     0.00000000

---------------------------
INTERNAL COORDINATES (A.U.)
---------------------------
 C      0   0   0     0.000000000000     0.00000000     0.00000000
 C      1   0   0     2.641847498202     0.00000000     0.00000000
 C      1   2   0     2.644652296941   118.60063162     0.00000000
 H      2   1   3     2.047674205223   119.54612277   180.00000085
 H      3   1   2     2.047776638096   119.43355146   180.00000000
 C      2   1   3     2.610917326220   120.75984395     0.00000000
 C      3   1   2     2.609017997195   120.86995623     0.00000000
 H      6   2   1     2.050824166411   120.32893533   180.00000000
 H      7   3   1     2.047908746191   120.73349057   180.00000000
 C      6   2   1     2.631565617698   119.98442623     0.00000000
 O     10   6   2     2.550622470675   122.32730592   180.00000000
 H     11  10   6     1.823216152880   109.88083687     0.00000000
 C      1   2   3     2.688740723798   120.59699002   180.00000000
 C     13   1   2     2.277486546920   179.82492283     0.00000000
 H     14  13   1     2.016320581917   179.98186217     0.00000000

---------------------
BASIS SET INFORMATION
---------------------
There are 3 groups of distinct atoms

 Group   1 Type C   : 11s6p2d1f contracted to 5s3p2d1f pattern {62111/411/11/1}
 Group   2 Type H   : 5s1p contracted to 3s1p pattern {311/1}
 Group   3 Type O   : 11s6p2d1f contracted to 5s3p2d1f pattern {62111/411/11/1}

Atom   0C    basis set group =>   1
Atom   1C    basis set group =>   1
Atom   2C    basis set group =>   1
Atom   3H    basis set group =>   2
Atom   4H    basis set group =>   2
Atom   5C    basis set group =>   1
Atom   6C    basis set group =>   1
Atom   7H    basis set group =>   2
Atom   8H    basis set group =>   2
Atom   9C    basis set group =>   1
Atom  10O    basis set group =>   3
Atom  11H    basis set group =>   2
Atom  12C    basis set group =>   1
Atom  13C    basis set group =>   1
Atom  14H    basis set group =>   2
---------------------------------
AUXILIARY/J BASIS SET INFORMATION
---------------------------------
There are 3 groups of distinct atoms

 Group   1 Type C   : 12s5p4d2f1g contracted to 6s4p3d1f1g pattern {711111/2111/211/2/1}
 Group   2 Type H   : 5s2p1d contracted to 3s1p1d pattern {311/2/1}
 Group   3 Type O   : 12s5p4d2f1g contracted to 6s4p3d1f1g pattern {711111/2111/211/2/1}

Atom   0C    basis set group =>   1
Atom   1C    basis set group =>   1
Atom   2C    basis set group =>   1
Atom   3H    basis set group =>   2
Atom   4H    basis set group =>   2
Atom   5C    basis set group =>   1
Atom   6C    basis set group =>   1
Atom   7H    basis set group =>   2
Atom   8H    basis set group =>   2
Atom   9C    basis set group =>   1
Atom  10O    basis set group =>   3
Atom  11H    basis set group =>   2
Atom  12C    basis set group =>   1
Atom  13C    basis set group =>   1
Atom  14H    basis set group =>   2


           ************************************************************
           *        Program running with 24 parallel MPI-processes    *
           *              working on a common directory               *
           ************************************************************
------------------------------------------------------------------------------
                           ORCA GTO INTEGRAL CALCULATION
                           -- RI-GTO INTEGRALS CHOSEN --
------------------------------------------------------------------------------
------------------------------------------------------------------------------
                   ___                                                        
                  /   \      - P O W E R E D   B Y -                         
                 /     \                                                     
                 |  |  |   _    _      __       _____    __    __             
                 |  |  |  | |  | |    /  \     |  _  \  |  |  /  |          
                  \  \/   | |  | |   /    \    | | | |  |  | /  /          
                 / \  \   | |__| |  /  /\  \   | |_| |  |  |/  /          
                |  |  |   |  __  | /  /__\  \  |    /   |      \           
                |  |  |   | |  | | |   __   |  |    \   |  |\   \          
                \     /   | |  | | |  |  |  |  | |\  \  |  | \   \       
                 \___/    |_|  |_| |__|  |__|  |_| \__\ |__|  \__/        
                                                                              
                      - O R C A' S   B I G   F R I E N D -                    
                                      &                                       
                       - I N T E G R A L  F E E D E R -                       
                                                                              
 v1 FN, 2020, v2 2021                                                         
------------------------------------------------------------------------------


Reading SHARK input file CCH-PhenOH/CCH-PhenOH.SHARKINP.tmp ... ok
----------------------
SHARK INTEGRAL PACKAGE
----------------------

Number of atoms                             ...     15
Number of basis functions                   ...    315
Number of shells                            ...    123
Maximum angular momentum                    ...      3
Integral batch strategy                     ... SHARK/LIBINT Hybrid
RI-J (if used) integral strategy            ... SPLIT-RIJ (Revised 2003 algorithm where possible)
Printlevel                                  ...      1
Contraction scheme used                     ... SEGMENTED contraction
Coulomb Range Separation                    ... NOT USED
Exchange Range Separation                   ... NOT USED
Finite Nucleus Model                        ... NOT USED
Auxiliary Coulomb fitting basis             ... AVAILABLE
   # of basis functions in Aux-J            ...    507
   # of shells in Aux-J                     ...    165
   Maximum angular momentum in Aux-J        ...      4
Auxiliary J/K fitting basis                 ... NOT available
Auxiliary Correlation fitting basis         ... NOT available
Auxiliary 'external' fitting basis          ... NOT available
Integral threshold                          ...     2.500000e-11
Primitive cut-off                           ...     2.500000e-12
Primitive pair pre-selection threshold      ...     2.500000e-12

Calculating pre-screening integrals         ... done (  0.1 sec) Dimension = 123
Organizing shell pair data                  ... done (  0.1 sec)
Shell pair information
Total number of shell pairs                 ...      7626
Shell pairs after pre-screening             ...      6804
Total number of primitive shell pairs       ...     23652
Primitive shell pairs kept                  ...     15713
          la=0 lb=0:   1717 shell pairs
          la=1 lb=0:   1871 shell pairs
          la=1 lb=1:    529 shell pairs
          la=2 lb=0:   1012 shell pairs
          la=2 lb=1:    556 shell pairs
          la=2 lb=2:    158 shell pairs
          la=3 lb=0:    497 shell pairs
          la=3 lb=1:    274 shell pairs
          la=3 lb=2:    148 shell pairs
          la=3 lb=3:     42 shell pairs

Calculating one electron integrals          ... done (  0.0 sec)
Calculating RI/J V-Matrix + Cholesky decomp.... done (  0.1 sec)
Calculating Nuclear repulsion               ... done (  0.0 sec) ENN=    376.035822458308 Eh

SHARK setup successfully completed in   0.6 seconds

Maximum memory used throughout the entire GTOINT-calculation: 20.3 MB


           ************************************************************
           *        Program running with 24 parallel MPI-processes    *
           *              working on a common directory               *
           ************************************************************
-------------------------------------------------------------------------------
                                 ORCA SCF
-------------------------------------------------------------------------------

------------
SCF SETTINGS
------------
Hamiltonian:
 Density Functional     Method          .... DFT(GTOs)
 Exchange Functional    Exchange        .... PBE
   PBE kappa parameter   XKappa         ....  0.804000
   PBE mue parameter    XMuePBE         ....  0.219520
 Correlation Functional Correlation     .... PBE
   PBE beta parameter  CBetaPBE         ....  0.066725
 LDA part of GGA corr.  LDAOpt          .... PW91-LDA
 Gradients option       PostSCFGGA      .... off
 Hybrid DFT is turned on
   Fraction HF Exchange ScalHFX         ....  0.250000
   Scaling of DF-GGA-X  ScalDFX         ....  0.750000
   Scaling of DF-GGA-C  ScalDFC         ....  1.000000
   Scaling of DF-LDA-C  ScalLDAC        ....  1.000000
   Perturbative correction              ....  0.000000
   Density functional embedding theory  .... OFF
   NL short-range parameter             ....  6.900000
 RI-approximation to the Coulomb term is turned on
   Number of AuxJ basis functions       .... 507
   RIJ-COSX (HFX calculated with COS-X)).... on


General Settings:
 Integral files         IntName         .... CCH-PhenOH/CCH-PhenOH
 Hartree-Fock type      HFTyp           .... RHF
 Total Charge           Charge          ....    0
 Multiplicity           Mult            ....    1
 Number of Electrons    NEL             ....   62
 Basis Dimension        Dim             ....  315
 Nuclear Repulsion      ENuc            ....    376.0358224583 Eh

Convergence Acceleration:
 DIIS                   CNVDIIS         .... on
   Start iteration      DIISMaxIt       ....    12
   Startup error        DIISStart       ....  0.200000
   # of expansion vecs  DIISMaxEq       ....     5
   Bias factor          DIISBfac        ....   1.050
   Max. coefficient     DIISMaxC        ....  10.000
 Trust-Rad. Augm. Hess. CNVTRAH         .... auto
   Auto Start mean grad. ratio tolernc. ....  1.125000
   Auto Start start iteration           ....    20
   Auto Start num. interpolation iter.  ....    10
   Max. Number of Micro iterations      ....    16
   Max. Number of Macro iterations      .... Maxiter - #DIIS iter
   Number of Davidson start vectors     ....     2
   Converg. threshold I  (grad. norm)   ....   1.000e-05
   Converg. threshold II (energy diff.) ....   1.000e-08
   Grad. Scal. Fac. for Micro threshold ....   0.100
   Minimum threshold for Micro iter.    ....   0.010
   NR start threshold (gradient norm)   ....   0.001
   Initial trust radius                 ....   0.400
   Minimum AH scaling param. (alpha)    ....   1.000
   Maximum AH scaling param. (alpha)    .... 1000.000
   Orbital update algorithm             .... Taylor
   White noise on init. David. guess    .... on
   Maximum white noise                  ....   0.010
   Quad. conv. algorithm                .... NR
 SOSCF                  CNVSOSCF        .... on
   Start iteration      SOSCFMaxIt      ....   150
   Startup grad/error   SOSCFStart      ....  0.003300
 Level Shifting         CNVShift        .... on
   Level shift para.    LevelShift      ....    0.2500
   Turn off err/grad.   ShiftErr        ....    0.0010
 Zerner damping         CNVZerner       .... off
 Static damping         CNVDamp         .... on
   Fraction old density DampFac         ....    0.7000
   Max. Damping (<1)    DampMax         ....    0.9800
   Min. Damping (>=0)   DampMin         ....    0.0000
   Turn off err/grad.   DampErr         ....    0.1000
 Fernandez-Rico         CNVRico         .... off

SCF Procedure:
 Maximum # iterations   MaxIter         ....   800
 SCF integral mode      SCFMode         .... Direct
   Integral package                     .... SHARK and LIBINT hybrid scheme
 Reset frequency        DirectResetFreq ....    20
 Integral Threshold     Thresh          ....  2.500e-11 Eh
 Primitive CutOff       TCut            ....  2.500e-12 Eh

Convergence Tolerance:
 Convergence Check Mode ConvCheckMode   .... Total+1el-Energy
 Convergence forced     ConvForced      .... 0
 Energy Change          TolE            ....  1.000e-08 Eh
 1-El. energy change                    ....  1.000e-05 Eh
 Orbital Gradient       TolG            ....  1.000e-05
 Orbital Rotation angle TolX            ....  1.000e-05
 DIIS Error             TolErr          ....  5.000e-07


Diagonalization of the overlap matrix:
Smallest eigenvalue                        ... 8.111e-06
Time for diagonalization                   ...    0.032 sec
Threshold for overlap eigenvalues          ... 1.000e-08
Number of eigenvalues below threshold      ... 0
Time for construction of square roots      ...    0.023 sec
Total time needed                          ...    0.058 sec

Time for model grid setup =    0.129 sec

------------------------------
INITIAL GUESS: MODEL POTENTIAL
------------------------------
Loading Hartree-Fock densities                     ... done
Calculating cut-offs                               ... done
Initializing the effective Hamiltonian             ... done
Setting up the integral package (SHARK)            ... done
Starting the Coulomb interaction                   ... done (   0.1 sec)
Reading the grid                                   ... done
Mapping shells                                     ... done
Starting the XC term evaluation                    ... done (   0.0 sec)
  promolecular density results
     # of electrons  =     61.998177917
     EX              =    -50.805928209
     EC              =     -2.044112750
     EX+EC           =    -52.850040959
Transforming the Hamiltonian                       ... done (   0.0 sec)
Diagonalizing the Hamiltonian                      ... done (   0.0 sec)
Back transforming the eigenvectors                 ... done (   0.0 sec)
Now organizing SCF variables                       ... done
                      ------------------
                      INITIAL GUESS DONE (   0.4 sec)
                      ------------------
-------------------
DFT GRID GENERATION
-------------------

General Integration Accuracy     IntAcc      ... 4.388
Radial Grid Type                 RadialGrid  ... OptM3 with GC (2021)
Angular Grid (max. ang.)         AngularGrid ... 4 (Lebedev-302)
Angular grid pruning method      GridPruning ... 4 (adaptive)
Weight generation scheme         WeightScheme... Becke
Basis function cutoff            BFCut       ... 1.0000e-11
Integration weight cutoff        WCut        ... 1.0000e-14
Angular grids for H and He will be reduced by one unit
Partially contracted basis set               ... off
Rotationally invariant grid construction     ... off

Total number of grid points                  ...    73558
Total number of batches                      ...     1156
Average number of points per batch           ...       63
Average number of grid points per atom       ...     4904
Time for grid setup =    0.550 sec

--------------------
COSX GRID GENERATION
--------------------

GRIDX 1
-------
General Integration Accuracy     IntAcc      ... 3.816
Radial Grid Type                 RadialGrid  ... OptM3 with GC (2021)
Angular Grid (max. ang.)         AngularGrid ... 1 (Lebedev-50)
Angular grid pruning method      GridPruning ... 4 (adaptive)
Weight generation scheme         WeightScheme... Becke
Basis function cutoff            BFCut       ... 1.0000e-11
Integration weight cutoff        WCut        ... 1.0000e-14
Angular grids for H and He will be reduced by one unit
Partially contracted basis set               ... on
Rotationally invariant grid construction     ... off

Total number of grid points                  ...     9393
Total number of batches                      ...      154
Average number of points per batch           ...       60
Average number of grid points per atom       ...      626
UseSFitting                                  ... on

GRIDX 2
-------
General Integration Accuracy     IntAcc      ... 4.020
Radial Grid Type                 RadialGrid  ... OptM3 with GC (2021)
Angular Grid (max. ang.)         AngularGrid ... 2 (Lebedev-110)
Angular grid pruning method      GridPruning ... 4 (adaptive)
Weight generation scheme         WeightScheme... Becke
Basis function cutoff            BFCut       ... 1.0000e-11
Integration weight cutoff        WCut        ... 1.0000e-14
Angular grids for H and He will be reduced by one unit
Partially contracted basis set               ... on
Rotationally invariant grid construction     ... off

Total number of grid points                  ...    20823
Total number of batches                      ...      333
Average number of points per batch           ...       62
Average number of grid points per atom       ...     1388
UseSFitting                                  ... on

GRIDX 3
-------
General Integration Accuracy     IntAcc      ... 4.338
Radial Grid Type                 RadialGrid  ... OptM3 with GC (2021)
Angular Grid (max. ang.)         AngularGrid ... 3 (Lebedev-194)
Angular grid pruning method      GridPruning ... 4 (adaptive)
Weight generation scheme         WeightScheme... Becke
Basis function cutoff            BFCut       ... 1.0000e-11
Integration weight cutoff        WCut        ... 1.0000e-14
Angular grids for H and He will be reduced by one unit
Partially contracted basis set               ... on
Rotationally invariant grid construction     ... off

Total number of grid points                  ...    45899
Total number of batches                      ...      725
Average number of points per batch           ...       63
Average number of grid points per atom       ...     3060
UseSFitting                                  ... on

Time for X-Grid setup             =    0.583 sec


--------------------
CPCM SOLVATION MODEL
--------------------
CPCM parameters:
  Epsilon                                         ...      47.2000
  Refrac                                          ...       1.4790
  Rsolv                                           ...       1.3000
  Surface type                                    ... GAUSSIAN VDW
  Epsilon function type                           ...         CPCM
Radii:
 Radius for C  used is    3.8550 Bohr (=   2.0400 Ang.)
 Radius for H  used is    2.4944 Bohr (=   1.3200 Ang.)
 Radius for O  used is    3.4469 Bohr (=   1.8240 Ang.)
Calculating surface                               ...        done! (  0.0s)
GEPOL surface points                              ...          881
GEPOL Volume                                      ...    1056.5365
GEPOL Surface-area                                ...     597.9217
Calculating surface distance matrix               ...        done! (  0.0s)
Performing Cholesky decomposition & store         ...        done! (  0.1s)
Overall time for CPCM initialization              ...                 0.1s
--------------
SCF ITERATIONS
--------------
ITER       Energy         Delta-E        Max-DP      RMS-DP      [F,P]     Damp
               ***  Starting incremental Fock matrix formation  ***
  0   -383.1141386128   0.000000000000 0.06737171  0.00115958  0.2060067 0.7000
  1   -383.2034463931  -0.089307780306 0.07463594  0.00098664  0.0975271 0.7000
                               ***Turning on DIIS***
  2   -383.2456810436  -0.042234650516 0.11837177  0.00184925  0.0412155 0.0000
  3   -383.3075970523  -0.061916008708 0.06882253  0.00072938  0.0460918 0.0000
  4   -383.3209849453  -0.013387892951 0.01384160  0.00018824  0.0093110 0.0000
  5   -383.3215424352  -0.000557489910 0.00931136  0.00010192  0.0063392 0.0000
                      *** Initiating the SOSCF procedure ***
                           *** Shutting down DIIS ***
                      *** Re-Reading the Fockian *** 
                      *** Removing any level shift *** 
ITER      Energy       Delta-E        Grad      Rot      Max-DP    RMS-DP
  6   -383.32160103  -0.0000585900  0.000253  0.000253  0.002918  0.000052
               *** Restarting incremental Fock matrix formation ***
  7   -383.32158352   0.0000175072  0.000152  0.000530  0.002243  0.000033
  8   -383.32158290   0.0000006152  0.000199  0.000278  0.000505  0.000006
  9   -383.32158430  -0.0000013979  0.000026  0.000069  0.000268  0.000003
 10   -383.32158427   0.0000000308  0.000053  0.000054  0.000093  0.000001
 11   -383.32158431  -0.0000000449  0.000005  0.000012  0.000069  0.000001
 12   -383.32158431   0.0000000019  0.000008  0.000008  0.000063  0.000001
                  ***Gradient check signals convergence***
              ***Rediagonalizing the Fockian in SOSCF/NRSCF***

               *****************************************************
               *                     SUCCESS                       *
               *           SCF CONVERGED AFTER  13 CYCLES          *
               *****************************************************

Old exchange energy                            =    -12.956820832 Eh
New exchange energy                            =    -12.956828427 Eh
Exchange energy change after final integration =     -0.000007596 Eh
Total energy after final integration           =   -383.321591918 Eh
Final COS-X integration done in                =     1.557 sec

----------------
TOTAL SCF ENERGY
----------------

Total Energy       :         -383.32159192 Eh          -10430.71080 eV

Components:
Nuclear Repulsion  :          376.03582246 Eh           10232.45494 eV
Electronic Energy  :         -759.35741438 Eh          -20663.16574 eV
One Electron Energy:        -1263.58479480 Eh          -34383.89031 eV
Two Electron Energy:          504.22738042 Eh           13720.72457 eV
Max COSX asymmetry :            0.00000114 Eh               0.00003 eV
CPCM Dielectric    :           -0.01521251 Eh              -0.41395 eV

Virial components:
Potential Energy   :         -764.87299306 Eh          -20813.25227 eV
Kinetic Energy     :          381.55140114 Eh           10382.54146 eV
Virial Ratio       :            2.00463946


DFT components:
N(Alpha)           :       31.000036579045 electrons
N(Beta)            :       31.000036579045 electrons
N(Total)           :       62.000073158090 electrons
E(X)               :      -38.783319030369 Eh       
E(C)               :       -2.058080808379 Eh       
E(XC)              :      -40.841399838747 Eh       
DFET-embed. en.    :        0.000000000000 Eh       
CPCM Solvation Model Properties:
Surface-charge          :           -0.02231250
Charge-correction       :            0.00020571 Eh               0.00560 eV
Free-energy (cav+disp)  :  This term is not implemented in the current solvation scheme

---------------
SCF CONVERGENCE
---------------

  Last Energy change         ...   -9.2538e-09  Tolerance :   1.0000e-08
  Last MAX-Density change    ...    1.2212e-15  Tolerance :   1.0000e-07
  Last RMS-Density change    ...    1.8567e-17  Tolerance :   5.0000e-09
  Last Orbital Gradient      ...    5.2642e-07  Tolerance :   1.0000e-05
  Last Orbital Rotation      ...    1.1549e-06  Tolerance :   1.0000e-05

             **** THE GBW FILE WAS UPDATED (CCH-PhenOH/CCH-PhenOH.gbw) ****
             **** DENSITY CCH-PhenOH/CCH-PhenOH.scfp WAS UPDATED ****
             **** ENERGY FILE WAS UPDATED (CCH-PhenOH/CCH-PhenOH.en.tmp) ****
             **** THE GBW FILE WAS UPDATED (CCH-PhenOH/CCH-PhenOH.gbw) ****
             **** DENSITY CCH-PhenOH/CCH-PhenOH.scfp WAS UPDATED ****
----------------
ORBITAL ENERGIES
----------------

  NO   OCC          E(Eh)            E(eV) 
   0   2.0000     -19.244382      -523.6663 
   1   2.0000     -10.297898      -280.2200 
   2   2.0000     -10.253009      -278.9986 
   3   2.0000     -10.240610      -278.6612 
   4   2.0000     -10.240055      -278.6461 
   5   2.0000     -10.236007      -278.5359 
   6   2.0000     -10.231956      -278.4257 
   7   2.0000     -10.229916      -278.3702 
   8   2.0000     -10.222901      -278.1793 
   9   2.0000      -1.103829       -30.0367 
  10   2.0000      -0.898597       -24.4521 
  11   2.0000      -0.811504       -22.0821 
  12   2.0000      -0.785515       -21.3749 
  13   2.0000      -0.753326       -20.4990 
  14   2.0000      -0.662204       -18.0195 
  15   2.0000      -0.643452       -17.5092 
  16   2.0000      -0.573111       -15.5952 
  17   2.0000      -0.568976       -15.4826 
  18   2.0000      -0.521692       -14.1960 
  19   2.0000      -0.502728       -13.6799 
  20   2.0000      -0.461138       -12.5482 
  21   2.0000      -0.444719       -12.1014 
  22   2.0000      -0.443743       -12.0748 
  23   2.0000      -0.425958       -11.5909 
  24   2.0000      -0.401113       -10.9148 
  25   2.0000      -0.387619       -10.5477 
  26   2.0000      -0.361315        -9.8319 
  27   2.0000      -0.315993        -8.5986 
  28   2.0000      -0.300272        -8.1708 
  29   2.0000      -0.281670        -7.6646 
  30   2.0000      -0.236307        -6.4302 
  31   0.0000      -0.028448        -0.7741 
  32   0.0000      -0.017609        -0.4792 
  33   0.0000       0.040758         1.1091 
  34   0.0000       0.061152         1.6640 
  35   0.0000       0.070748         1.9252 
  36   0.0000       0.081469         2.2169 
  37   0.0000       0.094721         2.5775 
  38   0.0000       0.098642         2.6842 
  39   0.0000       0.112370         3.0578 
  40   0.0000       0.123616         3.3638 
  41   0.0000       0.137988         3.7548 
  42   0.0000       0.153498         4.1769 
  43   0.0000       0.159067         4.3284 
  44   0.0000       0.181824         4.9477 
  45   0.0000       0.195765         5.3270 
  46   0.0000       0.200223         5.4483 
  47   0.0000       0.219468         5.9720 
  48   0.0000       0.232492         6.3264 
  49   0.0000       0.237556         6.4642 
  50   0.0000       0.248661         6.7664 
  51   0.0000       0.250070         6.8048 
  52   0.0000       0.260127         7.0784 
  53   0.0000       0.266366         7.2482 
  54   0.0000       0.288538         7.8515 
  55   0.0000       0.308566         8.3965 
  56   0.0000       0.314974         8.5709 
  57   0.0000       0.329215         8.9584 
  58   0.0000       0.330404         8.9908 
  59   0.0000       0.344393         9.3714 
  60   0.0000       0.350154         9.5282 
  61   0.0000       0.364754         9.9255 
  62   0.0000       0.378401        10.2968 
  63   0.0000       0.383073        10.4239 
  64   0.0000       0.388294        10.5660 
  65   0.0000       0.391667        10.6578 
  66   0.0000       0.404363        11.0033 
  67   0.0000       0.422585        11.4991 
  68   0.0000       0.424307        11.5460 
  69   0.0000       0.430373        11.7110 
  70   0.0000       0.452464        12.3122 
  71   0.0000       0.471500        12.8302 
  72   0.0000       0.473211        12.8767 
  73   0.0000       0.485545        13.2123 
  74   0.0000       0.502956        13.6861 
  75   0.0000       0.509093        13.8531 
  76   0.0000       0.521011        14.1774 
  77   0.0000       0.546032        14.8583 
  78   0.0000       0.554689        15.0938 
  79   0.0000       0.566655        15.4195 
  80   0.0000       0.567382        15.4392 
  81   0.0000       0.573389        15.6027 
  82   0.0000       0.575697        15.6655 
  83   0.0000       0.642004        17.4698 
  84   0.0000       0.653975        17.7956 
  85   0.0000       0.659361        17.9421 
  86   0.0000       0.664953        18.0943 
  87   0.0000       0.674896        18.3648 
  88   0.0000       0.683132        18.5890 
  89   0.0000       0.691763        18.8238 
  90   0.0000       0.737573        20.0704 
  91   0.0000       0.739366        20.1192 
  92   0.0000       0.744802        20.2671 
  93   0.0000       0.772161        21.0116 
  94   0.0000       0.780371        21.2350 
  95   0.0000       0.786907        21.4128 
  96   0.0000       0.797209        21.6932 
  97   0.0000       0.840436        22.8694 
  98   0.0000       0.848134        23.0789 
  99   0.0000       0.859662        23.3926 
 100   0.0000       0.874901        23.8073 
 101   0.0000       0.885673        24.1004 
 102   0.0000       0.917960        24.9789 
 103   0.0000       0.934588        25.4314 
 104   0.0000       0.953334        25.9415 
 105   0.0000       0.966432        26.2980 
 106   0.0000       0.967155        26.3176 
 107   0.0000       0.995060        27.0770 
 108   0.0000       1.019128        27.7319 
 109   0.0000       1.027348        27.9556 
 110   0.0000       1.052288        28.6342 
 111   0.0000       1.068606        29.0782 
 112   0.0000       1.080456        29.4007 
 113   0.0000       1.124870        30.6093 
 114   0.0000       1.181207        32.1423 
 115   0.0000       1.190186        32.3866 
 116   0.0000       1.195891        32.5418 
 117   0.0000       1.208560        32.8866 
 118   0.0000       1.217231        33.1225 
 119   0.0000       1.231293        33.5052 
 120   0.0000       1.248576        33.9755 
 121   0.0000       1.286727        35.0136 
 122   0.0000       1.290498        35.1162 
 123   0.0000       1.326132        36.0859 
 124   0.0000       1.356346        36.9080 
 125   0.0000       1.356898        36.9231 
 126   0.0000       1.369948        37.2782 
 127   0.0000       1.394247        37.9394 
 128   0.0000       1.427426        38.8422 
 129   0.0000       1.449467        39.4420 
 130   0.0000       1.481477        40.3130 
 131   0.0000       1.489324        40.5266 
 132   0.0000       1.512545        41.1584 
 133   0.0000       1.520139        41.3651 
 134   0.0000       1.521563        41.4038 
 135   0.0000       1.559559        42.4377 
 136   0.0000       1.582019        43.0489 
 137   0.0000       1.593572        43.3633 
 138   0.0000       1.613387        43.9025 
 139   0.0000       1.628887        44.3243 
 140   0.0000       1.632197        44.4143 
 141   0.0000       1.641168        44.6585 
 142   0.0000       1.645435        44.7746 
 143   0.0000       1.679075        45.6900 
 144   0.0000       1.699656        46.2500 
 145   0.0000       1.715537        46.6821 
 146   0.0000       1.740571        47.3634 
 147   0.0000       1.751974        47.6736 
 148   0.0000       1.772650        48.2362 
 149   0.0000       1.797207        48.9045 
 150   0.0000       1.804029        49.0901 
 151   0.0000       1.832671        49.8695 
 152   0.0000       1.844793        50.1994 
 153   0.0000       1.882084        51.2141 
 154   0.0000       1.891719        51.4763 
 155   0.0000       1.912735        52.0482 
 156   0.0000       1.970798        53.6282 
 157   0.0000       1.983907        53.9849 
 158   0.0000       2.005687        54.5775 
 159   0.0000       2.018359        54.9223 
 160   0.0000       2.038232        55.4631 
 161   0.0000       2.053530        55.8794 
 162   0.0000       2.139427        58.2168 
 163   0.0000       2.146843        58.4186 
 164   0.0000       2.157042        58.6961 
 165   0.0000       2.179476        59.3065 
 166   0.0000       2.189717        59.5852 
 167   0.0000       2.242257        61.0149 
 168   0.0000       2.273697        61.8705 
 169   0.0000       2.297300        62.5127 
 170   0.0000       2.322323        63.1936 
 171   0.0000       2.331659        63.4477 
 172   0.0000       2.347169        63.8697 
 173   0.0000       2.398149        65.2570 
 174   0.0000       2.415387        65.7260 
 175   0.0000       2.436544        66.3017 
 176   0.0000       2.476987        67.4022 
 177   0.0000       2.481528        67.5258 
 178   0.0000       2.514114        68.4125 
 179   0.0000       2.520411        68.5839 
 180   0.0000       2.565767        69.8181 
 181   0.0000       2.570661        69.9512 
 182   0.0000       2.573080        70.0171 
 183   0.0000       2.589327        70.4592 
 184   0.0000       2.628321        71.5202 
 185   0.0000       2.637879        71.7803 
 186   0.0000       2.649155        72.0872 
 187   0.0000       2.667222        72.5788 
 188   0.0000       2.676241        72.8242 
 189   0.0000       2.693847        73.3033 
 190   0.0000       2.733107        74.3716 
 191   0.0000       2.735608        74.4397 
 192   0.0000       2.744254        74.6749 
 193   0.0000       2.749251        74.8109 
 194   0.0000       2.754861        74.9636 
 195   0.0000       2.784322        75.7653 
 196   0.0000       2.792818        75.9964 
 197   0.0000       2.809980        76.4634 
 198   0.0000       2.818810        76.7037 
 199   0.0000       2.849007        77.5254 
 200   0.0000       2.863441        77.9182 
 201   0.0000       2.880133        78.3724 
 202   0.0000       2.890602        78.6573 
 203   0.0000       2.904798        79.0436 
 204   0.0000       2.910998        79.2123 
 205   0.0000       2.925599        79.6096 
 206   0.0000       2.933118        79.8142 
 207   0.0000       2.933892        79.8353 
 208   0.0000       2.956232        80.4432 
 209   0.0000       2.969869        80.8142 
 210   0.0000       2.982196        81.1497 
 211   0.0000       3.005087        81.7726 
 212   0.0000       3.019763        82.1719 
 213   0.0000       3.044828        82.8540 
 214   0.0000       3.055036        83.1317 
 215   0.0000       3.079043        83.7850 
 216   0.0000       3.081699        83.8573 
 217   0.0000       3.105826        84.5138 
 218   0.0000       3.110007        84.6276 
 219   0.0000       3.122083        84.9562 
 220   0.0000       3.136222        85.3409 
 221   0.0000       3.141847        85.4940 
 222   0.0000       3.164527        86.1112 
 223   0.0000       3.192529        86.8731 
 224   0.0000       3.218449        87.5784 
 225   0.0000       3.233428        87.9861 
 226   0.0000       3.249909        88.4345 
 227   0.0000       3.260051        88.7105 
 228   0.0000       3.264232        88.8243 
 229   0.0000       3.310767        90.0905 
 230   0.0000       3.315038        90.2068 
 231   0.0000       3.319630        90.3317 
 232   0.0000       3.338694        90.8505 
 233   0.0000       3.370138        91.7061 
 234   0.0000       3.375844        91.8614 
 235   0.0000       3.395265        92.3898 
 236   0.0000       3.411196        92.8234 
 237   0.0000       3.420980        93.0896 
 238   0.0000       3.464558        94.2754 
 239   0.0000       3.468340        94.3783 
 240   0.0000       3.473637        94.5225 
 241   0.0000       3.485043        94.8329 
 242   0.0000       3.499037        95.2137 
 243   0.0000       3.508483        95.4707 
 244   0.0000       3.519866        95.7804 
 245   0.0000       3.575465        97.2933 
 246   0.0000       3.578812        97.3844 
 247   0.0000       3.622723        98.5793 
 248   0.0000       3.658636        99.5566 
 249   0.0000       3.676240       100.0356 
 250   0.0000       3.743805       101.8741 
 251   0.0000       3.753388       102.1349 
 252   0.0000       3.835120       104.3589 
 253   0.0000       3.907317       106.3235 
 254   0.0000       3.912208       106.4566 
 255   0.0000       3.940664       107.2309 
 256   0.0000       3.972862       108.1071 
 257   0.0000       3.981084       108.3308 
 258   0.0000       3.984415       108.4215 
 259   0.0000       4.046680       110.1158 
 260   0.0000       4.076728       110.9334 
 261   0.0000       4.089558       111.2825 
 262   0.0000       4.118514       112.0705 
 263   0.0000       4.195952       114.1777 
 264   0.0000       4.211256       114.5941 
 265   0.0000       4.213235       114.6479 
 266   0.0000       4.229854       115.1002 
 267   0.0000       4.240607       115.3928 
 268   0.0000       4.274174       116.3062 
 269   0.0000       4.320210       117.5589 
 270   0.0000       4.330946       117.8510 
 271   0.0000       4.356068       118.5346 
 272   0.0000       4.431151       120.5777 
 273   0.0000       4.527274       123.1934 
 274   0.0000       4.572811       124.4325 
 275   0.0000       4.593477       124.9949 
 276   0.0000       4.658120       126.7539 
 277   0.0000       4.662757       126.8801 
 278   0.0000       4.699675       127.8847 
 279   0.0000       4.752159       129.3128 
 280   0.0000       4.804885       130.7476 
 281   0.0000       4.866158       132.4149 
 282   0.0000       4.927577       134.0862 
 283   0.0000       4.949146       134.6731 
 284   0.0000       4.970838       135.2634 
 285   0.0000       5.059333       137.6715 
 286   0.0000       5.158927       140.3815 
 287   0.0000       5.176797       140.8678 
 288   0.0000       5.235484       142.4648 
 289   0.0000       5.267167       143.3269 
 290   0.0000       5.272162       143.4628 
 291   0.0000       5.482586       149.1888 
 292   0.0000       5.499824       149.6578 
 293   0.0000       5.500075       149.6646 
 294   0.0000       5.538517       150.7107 
 295   0.0000       5.673485       154.3834 
 296   0.0000       5.695363       154.9787 
 297   0.0000       5.822477       158.4376 
 298   0.0000       6.035878       164.2446 
 299   0.0000       6.359851       173.0603 
 300   0.0000       6.428376       174.9250 
 301   0.0000       6.432687       175.0423 
 302   0.0000       6.730512       183.1465 
 303   0.0000       6.819744       185.5747 
 304   0.0000       7.005724       190.6354 
 305   0.0000       7.304470       198.7647 
 306   0.0000      22.289423       606.5260 
 307   0.0000      22.658280       616.5631 
 308   0.0000      22.756956       619.2482 
 309   0.0000      22.799582       620.4082 
 310   0.0000      22.818142       620.9132 
 311   0.0000      23.075617       627.9195 
 312   0.0000      23.465382       638.5255 
 313   0.0000      23.845930       648.8808 
 314   0.0000      44.025544      1197.9959 

                    ********************************
                    * MULLIKEN POPULATION ANALYSIS *
                    ********************************

-----------------------
MULLIKEN ATOMIC CHARGES
-----------------------
   0 C :   -0.030250
   1 C :   -0.202978
   2 C :   -0.189449
   3 H :    0.159457
   4 H :    0.155744
   5 C :   -0.265665
   6 C :   -0.271659
   7 H :    0.162285
   8 H :    0.147908
   9 C :    0.305921
  10 O :   -0.422143
  11 H :    0.371334
  12 C :    0.046318
  13 C :   -0.188428
  14 H :    0.221605
Sum of atomic charges:    0.0000000

--------------------------------
MULLIKEN REDUCED ORBITAL CHARGES
--------------------------------
  0 C s       :     3.381945  s :     3.381945
      pz      :     0.672825  p :     2.492836
      px      :     1.002582
      py      :     0.817429
      dz2     :     0.036217  d :     0.146023
      dxz     :     0.023862
      dyz     :     0.046668
      dx2y2   :     0.016594
      dxy     :     0.022682
      f0      :     0.001364  f :     0.009447
      f+1     :     0.000864
      f-1     :     0.002959
      f+2     :     0.000860
      f-2     :     0.001068
      f+3     :     0.001511
      f-3     :     0.000821
  1 C s       :     3.219901  s :     3.219901
      pz      :     0.967750  p :     2.878630
      px      :     0.944235
      py      :     0.966645
      dz2     :     0.018832  d :     0.097079
      dxz     :     0.022371
      dyz     :     0.035773
      dx2y2   :     0.009463
      dxy     :     0.010639
      f0      :     0.000833  f :     0.007368
      f+1     :     0.001526
      f-1     :     0.002152
      f+2     :     0.000769
      f-2     :     0.000439
      f+3     :     0.000989
      f-3     :     0.000659
  2 C s       :     3.223707  s :     3.223707
      pz      :     0.946649  p :     2.861424
      px      :     0.944121
      py      :     0.970654
      dz2     :     0.021124  d :     0.097007
      dxz     :     0.023290
      dyz     :     0.033875
      dx2y2   :     0.009520
      dxy     :     0.009197
      f0      :     0.000881  f :     0.007312
      f+1     :     0.001499
      f-1     :     0.002114
      f+2     :     0.000727
      f-2     :     0.000568
      f+3     :     0.000858
      f-3     :     0.000665
  3 H s       :     0.818430  s :     0.818430
      pz      :     0.006483  p :     0.022113
      px      :     0.004489
      py      :     0.011141
  4 H s       :     0.822164  s :     0.822164
      pz      :     0.005759  p :     0.022091
      px      :     0.004488
      py      :     0.011844
  5 C s       :     3.245237  s :     3.245237
      pz      :     0.928813  p :     2.929300
      px      :     1.027913
      py      :     0.972573
      dz2     :     0.017912  d :     0.083925
      dxz     :     0.017550
      dyz     :     0.030462
      dx2y2   :     0.009400
      dxy     :     0.008600
      f0      :     0.000858  f :     0.007203
      f+1     :     0.001474
      f-1     :     0.002049
      f+2     :     0.000776
      f-2     :     0.000433
      f+3     :     0.000921
      f-3     :     0.000692
  6 C s       :     3.268921  s :     3.268921
      pz      :     0.932952  p :     2.911296
      px      :     1.018118
      py      :     0.960226
      dz2     :     0.016976  d :     0.083991
      dxz     :     0.017044
      dyz     :     0.031429
      dx2y2   :     0.008077
      dxy     :     0.010465
      f0      :     0.000813  f :     0.007451
      f+1     :     0.001467
      f-1     :     0.002216
      f+2     :     0.000821
      f-2     :     0.000394
      f+3     :     0.001051
      f-3     :     0.000688
  7 H s       :     0.815504  s :     0.815504
      pz      :     0.005564  p :     0.022211
      px      :     0.004966
      py      :     0.011682
  8 H s       :     0.829838  s :     0.829838
      pz      :     0.006493  p :     0.022254
      px      :     0.004908
      py      :     0.010853
  9 C s       :     2.979404  s :     2.979404
      pz      :     0.708862  p :     2.515364
      px      :     0.901114
      py      :     0.905388
      dz2     :     0.034791  d :     0.183463
      dxz     :     0.048359
      dyz     :     0.060136
      dx2y2   :     0.015489
      dxy     :     0.024687
      f0      :     0.002585  f :     0.015848
      f+1     :     0.003414
      f-1     :     0.005488
      f+2     :     0.000733
      f-2     :     0.001087
      f+3     :     0.001711
      f-3     :     0.000830
 10 O s       :     3.752489  s :     3.752489
      pz      :     1.342280  p :     4.635260
      px      :     1.809330
      py      :     1.483649
      dz2     :     0.011597  d :     0.032625
      dxz     :     0.005843
      dyz     :     0.007485
      dx2y2   :     0.006398
      dxy     :     0.001302
      f0      :     0.000541  f :     0.001768
      f+1     :     0.000318
      f-1     :     0.000265
      f+2     :     0.000231
      f-2     :     0.000021
      f+3     :     0.000053
      f-3     :     0.000339
 11 H s       :     0.583491  s :     0.583491
      pz      :     0.010992  p :     0.045175
      px      :     0.014761
      py      :     0.019423
 12 C s       :     3.244681  s :     3.244681
      pz      :     0.638897  p :     2.599510
      px      :     0.974750
      py      :     0.985864
      dz2     :     0.019082  d :     0.098958
      dxz     :     0.043714
      dyz     :     0.035287
      dx2y2   :     0.000540
      dxy     :     0.000335
      f0      :     0.001896  f :     0.010533
      f+1     :     0.004313
      f-1     :     0.004238
      f+2     :     0.000036
      f-2     :     0.000041
      f+3     :     0.000002
      f-3     :     0.000007
 13 C s       :     3.183066  s :     3.183066
      pz      :     0.990065  p :     2.990299
      px      :     1.014789
      py      :     0.985446
      dz2     :    -0.004282  d :     0.008391
      dxz     :     0.006686
      dyz     :     0.005968
      dx2y2   :     0.000007
      dxy     :     0.000012
      f0      :     0.001640  f :     0.006672
      f+1     :     0.002451
      f-1     :     0.002566
      f+2     :     0.000007
      f-2     :     0.000008
      f+3     :     0.000000
      f-3     :     0.000000
 14 H s       :     0.755550  s :     0.755550
      pz      :     0.014596  p :     0.022845
      px      :     0.004319
      py      :     0.003929


                     *******************************
                     * LOEWDIN POPULATION ANALYSIS *
                     *******************************

----------------------
LOEWDIN ATOMIC CHARGES
----------------------
   0 C :   -0.172256
   1 C :   -0.089329
   2 C :   -0.089159
   3 H :    0.162457
   4 H :    0.162293
   5 C :   -0.133036
   6 C :   -0.124067
   7 H :    0.161019
   8 H :    0.159450
   9 C :   -0.284394
  10 O :    0.093257
  11 H :    0.211117
  12 C :   -0.089862
  13 C :   -0.107322
  14 H :    0.139831

-------------------------------
LOEWDIN REDUCED ORBITAL CHARGES
-------------------------------
  0 C s       :     2.692981  s :     2.692981
      pz      :     0.967177  p :     2.891402
      px      :     0.886622
      py      :     1.037604
      dz2     :     0.148487  d :     0.529484
      dxz     :     0.069156
      dyz     :     0.163596
      dx2y2   :     0.071707
      dxy     :     0.076537
      f0      :     0.007812  f :     0.058389
      f+1     :     0.005214
      f-1     :     0.021729
      f+2     :     0.006435
      f-2     :     0.007516
      f+3     :     0.004120
      f-3     :     0.005563
  1 C s       :     2.756421  s :     2.756421
      pz      :     1.036740  p :     2.896136
      px      :     0.861524
      py      :     0.997872
      dz2     :     0.096435  d :     0.393495
      dxz     :     0.070443
      dyz     :     0.150780
      dx2y2   :     0.043379
      dxy     :     0.032457
      f0      :     0.007306  f :     0.043277
      f+1     :     0.006617
      f-1     :     0.014594
      f+2     :     0.004449
      f-2     :     0.002810
      f+3     :     0.003630
      f-3     :     0.003871
  2 C s       :     2.756499  s :     2.756499
      pz      :     1.040424  p :     2.896545
      px      :     0.861534
      py      :     0.994587
      dz2     :     0.103067  d :     0.392938
      dxz     :     0.074854
      dyz     :     0.143558
      dx2y2   :     0.044061
      dxy     :     0.027397
      f0      :     0.007516  f :     0.043177
      f+1     :     0.006201
      f-1     :     0.014578
      f+2     :     0.004475
      f-2     :     0.003765
      f+3     :     0.003007
      f-3     :     0.003635
  3 H s       :     0.777057  s :     0.777057
      pz      :     0.017823  p :     0.060485
      px      :     0.012988
      py      :     0.029675
  4 H s       :     0.777283  s :     0.777283
      pz      :     0.016051  p :     0.060423
      px      :     0.012967
      py      :     0.031405
  5 C s       :     2.760307  s :     2.760307
      pz      :     1.043308  p :     2.960165
      px      :     0.924829
      py      :     0.992028
      dz2     :     0.095039  d :     0.369858
      dxz     :     0.060532
      dyz     :     0.146282
      dx2y2   :     0.043111
      dxy     :     0.024894
      f0      :     0.007643  f :     0.042705
      f+1     :     0.005906
      f-1     :     0.014394
      f+2     :     0.004836
      f-2     :     0.003313
      f+3     :     0.002904
      f-3     :     0.003709
  6 C s       :     2.759386  s :     2.759386
      pz      :     1.041628  p :     2.955449
      px      :     0.917286
      py      :     0.996535
      dz2     :     0.088832  d :     0.366592
      dxz     :     0.055907
      dyz     :     0.150048
      dx2y2   :     0.042821
      dxy     :     0.028984
      f0      :     0.007497  f :     0.042640
      f+1     :     0.006120
      f-1     :     0.014290
      f+2     :     0.004811
      f-2     :     0.002503
      f+3     :     0.003452
      f-3     :     0.003968
  7 H s       :     0.777845  s :     0.777845
      pz      :     0.015696  p :     0.061136
      px      :     0.014299
      py      :     0.031141
  8 H s       :     0.779380  s :     0.779380
      pz      :     0.017892  p :     0.061170
      px      :     0.014128
      py      :     0.029150
  9 C s       :     2.715350  s :     2.715350
      pz      :     0.843912  p :     2.765579
      px      :     0.835027
      py      :     1.086640
      dz2     :     0.205859  d :     0.703427
      dxz     :     0.147488
      dyz     :     0.199665
      dx2y2   :     0.069664
      dxy     :     0.080751
      f0      :     0.019807  f :     0.100038
      f+1     :     0.020086
      f-1     :     0.035227
      f+2     :     0.006183
      f-2     :     0.007598
      f+3     :     0.005423
      f-3     :     0.005715
 10 O s       :     3.315121  s :     3.315121
      pz      :     1.382784  p :     4.514189
      px      :     1.692450
      py      :     1.438955
      dz2     :     0.024986  d :     0.072500
      dxz     :     0.014598
      dyz     :     0.023156
      dx2y2   :     0.009264
      dxy     :     0.000495
      f0      :     0.001454  f :     0.004933
      f+1     :     0.001037
      f-1     :     0.001478
      f+2     :     0.000400
      f-2     :     0.000010
      f+3     :     0.000001
      f-3     :     0.000552
 11 H s       :     0.636145  s :     0.636145
      pz      :     0.029836  p :     0.152738
      px      :     0.040964
      py      :     0.081938
 12 C s       :     2.792001  s :     2.792001
      pz      :     1.139904  p :     2.901292
      px      :     0.888093
      py      :     0.873295
      dz2     :     0.095441  d :     0.351084
      dxz     :     0.133366
      dyz     :     0.120170
      dx2y2   :     0.001437
      dxy     :     0.000670
      f0      :     0.020848  f :     0.045485
      f+1     :     0.012035
      f-1     :     0.012390
      f+2     :     0.000102
      f-2     :     0.000090
      f+3     :     0.000002
      f-3     :     0.000018
 13 C s       :     2.897235  s :     2.897235
      pz      :     1.130937  p :     3.041460
      px      :     0.966490
      py      :     0.944033
      dz2     :     0.061855  d :     0.132157
      dxz     :     0.035587
      dyz     :     0.034621
      dx2y2   :     0.000045
      dxy     :     0.000049
      f0      :     0.017719  f :     0.036471
      f+1     :     0.009192
      f-1     :     0.009504
      f+2     :     0.000028
      f-2     :     0.000028
      f+3     :     0.000000
      f-3     :     0.000000
 14 H s       :     0.788475  s :     0.788475
      pz      :     0.044679  p :     0.071694
      px      :     0.014054
      py      :     0.012961


                      *****************************
                      * MAYER POPULATION ANALYSIS *
                      *****************************

  NA   - Mulliken gross atomic population
  ZA   - Total nuclear charge
  QA   - Mulliken gross atomic charge
  VA   - Mayer's total valence
  BVA  - Mayer's bonded valence
  FA   - Mayer's free valence

  ATOM       NA         ZA         QA         VA         BVA        FA
  0 C      6.0302     6.0000    -0.0302     3.7258     3.7258     0.0000
  1 C      6.2030     6.0000    -0.2030     3.9003     3.9003     0.0000
  2 C      6.1894     6.0000    -0.1894     3.9286     3.9286    -0.0000
  3 H      0.8405     1.0000     0.1595     0.9702     0.9702     0.0000
  4 H      0.8443     1.0000     0.1557     0.9689     0.9689    -0.0000
  5 C      6.2657     6.0000    -0.2657     3.8854     3.8854    -0.0000
  6 C      6.2717     6.0000    -0.2717     3.9773     3.9773    -0.0000
  7 H      0.8377     1.0000     0.1623     0.9678     0.9678    -0.0000
  8 H      0.8521     1.0000     0.1479     0.9799     0.9799    -0.0000
  9 C      5.6941     6.0000     0.3059     3.9533     3.9533    -0.0000
 10 O      8.4221     8.0000    -0.4221     2.0860     2.0860    -0.0000
 11 H      0.6287     1.0000     0.3713     0.8750     0.8750    -0.0000
 12 C      5.9537     6.0000     0.0463     3.6856     3.6856     0.0000
 13 C      6.1884     6.0000    -0.1884     3.5944     3.5944     0.0000
 14 H      0.7784     1.0000     0.2216     0.9592     0.9592    -0.0000

  Mayer bond orders larger than 0.100000
B(  0-C ,  1-C ) :   1.3464 B(  0-C ,  2-C ) :   1.3402 B(  0-C , 12-C ) :   1.1324 
B(  0-C , 13-C ) :  -0.1634 B(  1-C ,  3-H ) :   0.9659 B(  1-C ,  5-C ) :   1.4284 
B(  2-C ,  4-H ) :   0.9807 B(  2-C ,  6-C ) :   1.4764 B(  5-C ,  7-H ) :   0.9600 
B(  5-C ,  9-C ) :   1.3385 B(  6-C ,  8-H ) :   0.9803 B(  6-C ,  9-C ) :   1.3514 
B(  9-C , 10-O ) :   1.1470 B( 10-O , 11-H ) :   0.8480 B( 12-C , 13-C ) :   2.6526 
B( 13-C , 14-H ) :   0.9715 

-------
TIMINGS
-------

Total SCF time: 0 days 0 hours 0 min 24 sec 

Total time                  ....      24.936 sec
Sum of individual times     ....      23.708 sec  ( 95.1%)

Fock matrix formation       ....      21.288 sec  ( 85.4%)
  Split-RI-J                ....       2.255 sec  ( 10.6% of F)
  Chain of spheres X        ....       9.735 sec  ( 45.7% of F)
  XC integration            ....       4.205 sec  ( 19.8% of F)
    Basis function eval.    ....       0.389 sec  (  9.2% of XC)
    Density eval.           ....       0.375 sec  (  8.9% of XC)
    XC-Functional eval.     ....       0.070 sec  (  1.7% of XC)
    XC-Potential eval.      ....       0.428 sec  ( 10.2% of XC)
Diagonalization             ....       0.349 sec  (  1.4%)
Density matrix formation    ....       0.029 sec  (  0.1%)
Population analysis         ....       0.075 sec  (  0.3%)
Initial guess               ....       0.230 sec  (  0.9%)
Orbital Transformation      ....       0.000 sec  (  0.0%)
Orbital Orthonormalization  ....       0.000 sec  (  0.0%)
DIIS solution               ....       0.215 sec  (  0.9%)
SOSCF solution              ....       0.260 sec  (  1.0%)
Grid generation             ....       1.262 sec  (  5.1%)

Maximum memory used throughout the entire SCF-calculation: 77.7 MB


-------------------------------------------------------------------------------
                          DFT DISPERSION CORRECTION                            
                                                                               
                              DFTD3 V3.1  Rev 1                                
                          USING Becke-Johnson damping                          
-------------------------------------------------------------------------------
The PBE0 functional is recognized
Active option DFTDOPT                   ...         4   

molecular C6(AA) [au] = 2981.346813 


            DFT-D V3
 parameters
 s6 scaling factor         :     1.0000 
 a1 scaling factor         :     0.4145 
 s8 scaling factor         :     1.2177 
 a2 scaling factor         :     4.8593 
 ad hoc parameters k1-k3   :    16.0000     1.3333    -4.0000 

 Edisp/kcal,au: -8.445640719424  -0.013458983757 
 E6   /kcal   :  -5.205182584 
 E8   /kcal   :  -3.240458135 
 % E8         :  38.368410909 

-------------------------   ----------------
Dispersion correction           -0.013458984
-------------------------   ----------------


-------------------------   --------------------
FINAL SINGLE POINT ENERGY      -383.335050901701
-------------------------   --------------------



           ************************************************************
           *        Program running with 24 parallel MPI-processes    *
           *              working on a common directory               *
           ************************************************************
------------------------------------------------------------------------------
                         ORCA SCF GRADIENT CALCULATION
------------------------------------------------------------------------------

 ... reading COSX grid (gridx3)
Gradient of the Kohn-Sham DFT energy:
Kohn-Sham wavefunction type      ... RKS
Hartree-Fock exchange scaling    ...    0.250
Number of operators              ...    1
Number of atoms                  ...   15
Basis set dimensions             ...  315
Integral neglect threshold       ... 2.5e-11
Integral primitive cutoff        ... 2.5e-12
SHARK Integral package           ... ON

Nuc. rep. gradient       (SHARK) ... done (  0.0 sec)
HCore & Overlap gradient (SHARK) ... done (  0.0 sec)
RI-J gradient            (SHARK) ... done (  0.4 sec)
COSX-gradient                    ... done (  2.1 sec)
Exchange-correlation gradient    ... done
Dispersion correction            ... done

------------------
CARTESIAN GRADIENT
------------------

   1   C   :    0.000000018   -0.000066925    0.000073241
   2   C   :    0.000000020   -0.000134258    0.000158280
   3   C   :    0.000000025    0.000214273    0.000002704
   4   H   :   -0.000000013    0.000035667   -0.000000247
   5   H   :   -0.000000005   -0.000055977   -0.000003380
   6   C   :   -0.000000030   -0.000123765   -0.000198121
   7   C   :   -0.000000008    0.000092227   -0.000017383
   8   H   :    0.000000006   -0.000010928    0.000081846
   9   H   :   -0.000000004   -0.000094300   -0.000055192
  10   C   :   -0.000000017   -0.000025306   -0.000072475
  11   O   :    0.000000014   -0.000035991   -0.000164303
  12   H   :   -0.000000000   -0.000022287    0.000084340
  13   C   :   -0.000000015    0.000061160    0.000073209
  14   C   :    0.000000007    0.000011236    0.000021186
  15   H   :    0.000000000    0.000044517   -0.000046405

Difference to translation invariance:
           :    0.0000000007   -0.0001106581   -0.0000626997

Difference to rotation invariance:
           :    0.0019874399   -0.0000000529    0.0000000579

Norm of the cartesian gradient     ...    0.0004909144
RMS gradient                       ...    0.0000731812
MAX gradient                       ...    0.0002142731

-------
TIMINGS
-------

Total SCF gradient time            ...        4.656 sec

One electron gradient       ....       0.042 sec  (  0.9%)
RI-J Coulomb gradient       ....       0.438 sec  (  9.4%)
COSX gradient               ....       2.119 sec  ( 45.5%)
XC gradient                 ....       0.818 sec  ( 17.6%)
CPCM gradient               ....       0.202 sec  (  4.3%)
   A-Matrix (El+Nuc)        ....       0.068 sec  (  1.5%)
   Potential                ....       0.134 sec  (  2.9%)

Maximum memory used throughout the entire SCFGRAD-calculation: 50.8 MB
------------------------------------------------------------------------------
                         ORCA GEOMETRY RELAXATION STEP
------------------------------------------------------------------------------

Reading the OPT-File                    .... done
Getting information on internals        .... done
Copying old internal coords+grads       .... done
Making the new internal coordinates     .... (new redundants).... done
Validating the new internal coordinates .... (new redundants).... done
Calculating the B-matrix                .... done
Calculating the G,G- and P matrices     .... done
Transforming gradient to internals      .... done
Projecting the internal gradient        .... done
Number of atoms                         ....  15
Number of internal coordinates          ....  64
Current Energy                          ....  -383.335050902 Eh
Current gradient norm                   ....     0.000490914 Eh/bohr
Maximum allowed component of the step   ....  0.200
Current trust radius                    ....  0.300
Evaluating the initial hessian          ....  (Almloef) done
Projecting the Hessian                  .... done
Forming the augmented Hessian           .... done
Diagonalizing the augmented Hessian     .... done
Last element of RFO vector              ....  0.999999667
Lowest eigenvalues of augmented Hessian:
 -0.000000330  0.025257357  0.025799051  0.026764894  0.026784726
[...]
      2      -0.383155   0.062101   0.005769   0.028183  -0.032958   0.175765
      3      -0.000000   0.000000   0.000000   0.000000   0.000000   0.000000
      4      -0.015232  -0.102544  -0.043095   0.099734  -0.040301  -0.126653
      5      -0.063940   0.057369   0.011175   0.162842   0.164186  -0.100324
      6       0.000000  -0.000000  -0.000000   0.000000  -0.000000   0.000000
      7       0.023286   0.068308  -0.028542   0.116907  -0.081566   0.077882
      8      -0.062638   0.093535   0.007833  -0.153468  -0.150213  -0.108350
      9       0.000001  -0.000000  -0.000001   0.000000  -0.000002   0.000000
     10       0.164241   0.171571  -0.321160  -0.150418  -0.282130   0.186009
     11       0.195629   0.527766  -0.422216  -0.235963  -0.182317   0.428357
     12       0.000000   0.000001   0.000001  -0.000000   0.000001  -0.000000
     13      -0.196842  -0.001894  -0.306168  -0.169584  -0.221828  -0.177896
     14       0.330219   0.258618   0.532765   0.404361   0.061671   0.399359
     15      -0.000000   0.000000   0.000000  -0.000000  -0.000000  -0.000000
     16       0.096281   0.004829  -0.058537   0.044232  -0.002323   0.113532
     17       0.092548  -0.099791   0.051039  -0.118793  -0.191038  -0.118113
     18      -0.000000   0.000000   0.000000  -0.000000   0.000000  -0.000000
     19      -0.078582  -0.048074  -0.070991   0.027046   0.046580  -0.092611
     20       0.083334  -0.097577  -0.073374   0.058360   0.235885  -0.069069
     21       0.000001  -0.000000  -0.000000  -0.000000   0.000001   0.000000
     22      -0.090122  -0.311375   0.138338   0.050836  -0.298380  -0.178622
     23       0.474528   0.455645  -0.339561  -0.145878   0.338209   0.475905
     24       0.000000  -0.000000  -0.000000   0.000000  -0.000000   0.000000
     25       0.185106   0.051028   0.168674   0.138485  -0.371035   0.148116
     26       0.514999   0.030551   0.308644   0.229403  -0.386873   0.338585
     27       0.000000  -0.000000  -0.000000   0.000000  -0.000000   0.000001
     28      -0.023369   0.066494   0.018659  -0.187164   0.103414   0.004638
     29      -0.020807  -0.367996  -0.026172  -0.024178  -0.014547   0.207488
     30      -0.000000  -0.000000  -0.000000  -0.000000  -0.000000  -0.000000
     31      -0.002212   0.013144   0.013467   0.052590  -0.051198  -0.011383
     32       0.011449   0.192456   0.009790  -0.014603   0.018440  -0.048688
     33      -0.000000  -0.000000  -0.000000  -0.000000  -0.000000  -0.000000
     34       0.031200  -0.022676  -0.027991  -0.209759   0.101841   0.036015
     35      -0.078667   0.291665   0.120899   0.659888  -0.374633  -0.164923
     36       0.000000  -0.000000   0.000000   0.000000   0.000000   0.000001
     37       0.002810   0.000517  -0.024098   0.005065  -0.027290  -0.003391
     38       0.050691  -0.009298  -0.000479  -0.001424   0.001297   0.000851
     39      -0.000000  -0.000000  -0.000000  -0.000000  -0.000000  -0.000000
     40       0.005213  -0.000453   0.002375  -0.002417   0.002011  -0.001116
     41       0.152878  -0.023519  -0.005081  -0.007801   0.007702  -0.042642
     42       0.000000   0.000000   0.000000  -0.000000   0.000000  -0.000000
     43       0.005960  -0.001139   0.022368  -0.010050   0.020541   0.001129
     44       0.181901  -0.029266  -0.006914  -0.009420   0.009208  -0.056372
                 36         37         38         39         40         41    
      0       0.000000   0.000000  -0.000001   0.000000   0.000000  -0.000000
      1       0.270070   0.055279   0.003800  -0.000201   0.001280   0.003194
      2      -0.061823   0.188884   0.103130  -0.000623  -0.001515   0.001875
      3      -0.000000  -0.000000  -0.000000   0.000000   0.000000  -0.000000
      4      -0.157432  -0.123015   0.002724   0.026185   0.000396  -0.068514
      5      -0.041024  -0.310684   0.007252  -0.013037   0.000279   0.044228
      6       0.000000  -0.000000  -0.000000   0.000000   0.000000   0.000000
      7      -0.195436   0.037502  -0.002073  -0.003066  -0.054750  -0.009427
      8       0.195235  -0.276230   0.007444  -0.001111  -0.026278  -0.005998
      9       0.000001  -0.000000  -0.000000   0.000000  -0.000000   0.000000
     10      -0.014946   0.258541  -0.002045  -0.300335  -0.000947   0.780697
     11       0.208323   0.288400   0.004866   0.184342   0.000232  -0.488236
     12      -0.000001  -0.000000  -0.000000  -0.000000  -0.000000  -0.000000
     13       0.092030  -0.226412   0.002507   0.033568   0.627019   0.111511
     14      -0.374863   0.207380   0.004787   0.017235   0.325249   0.059262
     15       0.000000   0.000000   0.000000  -0.000000  -0.000000   0.000000
     16       0.213862  -0.025116   0.001329  -0.072138   0.003413  -0.026850
     17      -0.119701   0.293322  -0.009177  -0.036848   0.002053  -0.017397
     18       0.000000   0.000000   0.000000  -0.000000  -0.000000   0.000000
     19       0.209031   0.130573  -0.002072   0.001776   0.051873  -0.007463
     20      -0.004623   0.306490  -0.009012  -0.000485  -0.030536   0.005542
     21      -0.000000   0.000000  -0.000000  -0.000000  -0.000000  -0.000000
     22       0.050619   0.260439  -0.002881   0.825341  -0.039466   0.302508
     23       0.226241  -0.227540  -0.002234   0.430410  -0.021011   0.161276
     24      -0.000000   0.000000  -0.000000   0.000000   0.000000   0.000000
     25       0.116724  -0.231310   0.003155  -0.018192  -0.592599   0.087150
     26      -0.204566  -0.255345  -0.002096   0.010620   0.374897  -0.056186
     27      -0.000000  -0.000000  -0.000000   0.000000   0.000000  -0.000000
     28      -0.415434  -0.097101   0.000156   0.002285  -0.001822   0.001940
     29       0.019923  -0.205976   0.007548  -0.002864  -0.001353  -0.001279
     30       0.000000   0.000000   0.000000  -0.000000  -0.000000   0.000000
     31       0.058550   0.018667   0.000178  -0.000307   0.000224  -0.000307
     32      -0.018564   0.013025  -0.003034   0.000259   0.000052   0.000243
     33       0.000000  -0.000000   0.000000  -0.000000  -0.000000   0.000000
     34      -0.139779  -0.060616  -0.003388   0.002453  -0.001148   0.001990
     35       0.466715   0.184507  -0.000695   0.007538   0.000641   0.002307
     36       0.000000  -0.000000  -0.000000   0.000000   0.000000  -0.000000
     37      -0.015273  -0.002734  -0.019178   0.000026  -0.000136  -0.000262
     38       0.001416  -0.004968  -0.548932   0.000006   0.000086  -0.000141
     39      -0.000000   0.000000   0.000001  -0.000000  -0.000000   0.000000
     40       0.002307  -0.000466   0.013217  -0.000014   0.000036   0.000035
     41       0.007470  -0.022050   0.383778   0.000055   0.000045  -0.000006
     42      -0.000000   0.000000  -0.000000  -0.000000  -0.000000   0.000000
     43       0.018267   0.001900   0.024819  -0.000006   0.000115   0.000115
     44       0.010056  -0.032229   0.734251  -0.000002   0.000976  -0.001896
                 42         43         44    
      0       0.000000   0.000000  -0.000000
      1       0.001762   0.000039  -0.000045
      2      -0.002327   0.001197  -0.000250
      3       0.000000   0.000000  -0.000000
      4       0.011371   0.000536   0.000130
      5      -0.006914   0.000321   0.000247
      6       0.000000   0.000000  -0.000000
      7      -0.053839  -0.000508   0.000082
      8      -0.030715   0.000359   0.000198
      9       0.000000   0.000000   0.000000
     10      -0.125775  -0.001649   0.000587
     11       0.078119   0.000896  -0.000859
     12      -0.000000   0.000000  -0.000000
     13       0.610690   0.001748  -0.000784
     14       0.321004   0.000777  -0.000289
     15      -0.000000  -0.000000  -0.000000
     16       0.005538   0.000144  -0.000595
     17       0.002999  -0.000248  -0.000940
     18       0.000000  -0.000000   0.000000
     19      -0.051828  -0.000163  -0.000738
     20       0.035497  -0.000231  -0.000708
     21      -0.000000   0.000000   0.000000
     22      -0.060003  -0.000728   0.003961
     23      -0.031471  -0.000623   0.003018
     24      -0.000000   0.000000  -0.000000
     25       0.589267   0.000665  -0.000287
     26      -0.377132  -0.000639  -0.000050
     27      -0.000000   0.000000   0.000000
     28       0.002324   0.000006   0.002147
     29       0.002550   0.000348   0.000709
     30      -0.000000  -0.000000   0.000000
     31      -0.000199   0.000122   0.057828
     32      -0.000357  -0.000180   0.022764
     33      -0.000000  -0.000000   0.000000
     34      -0.000658  -0.002009  -0.932820
     35      -0.002381  -0.000672  -0.354891
     36      -0.000000   0.000000   0.000000
     37      -0.000152  -0.001095   0.000004
     38       0.000208  -0.031752   0.000289
     39      -0.000000  -0.000000   0.000000
     40       0.000015   0.003893  -0.000024
     41      -0.000029   0.113556  -0.000368
     42      -0.000000   0.000000  -0.000000
     43       0.000187  -0.033956   0.000041
     44       0.002413  -0.992427   0.001560


-----------
IR SPECTRUM
-----------

 Mode   freq       eps      Int      T**2         TX        TY        TZ
       cm**-1   L/(mol*cm) km/mol    a.u.
----------------------------------------------------------------------------
  6:    104.30   0.000221    1.12  0.000661  ( 0.025713 -0.000002 -0.000000)
  7:    150.60   0.000416    2.10  0.000862  ( 0.000000  0.026093 -0.013458)
  8:    259.21   0.000606    3.06  0.000729  (-0.027001  0.000001 -0.000002)
  9:    386.61   0.035705  180.44  0.028820  (-0.169766 -0.000000 -0.000000)
 10:    407.49   0.003180   16.07  0.002435  (-0.000000 -0.017455 -0.046159)
 11:    420.76   0.000581    2.94  0.000431  (-0.020755  0.000002 -0.000001)
 12:    424.15   0.000707    3.57  0.000520  (-0.000001 -0.001558  0.022760)
 13:    471.00   0.002980   15.06  0.001974  ( 0.044431 -0.000001  0.000001)
 14:    541.70   0.001881    9.51  0.001084  ( 0.000000  0.030482 -0.012433)
 15:    557.12   0.003428   17.32  0.001920  (-0.043819 -0.000001  0.000000)
 16:    634.20   0.016288   82.31  0.008015  ( 0.089525  0.000001 -0.000000)
 17:    659.59   0.001444    7.30  0.000683  (-0.000000  0.024044 -0.010248)
 18:    702.06   0.012735   64.36  0.005661  ( 0.000000  0.075236 -0.000425)
 19:    721.88   0.006292   31.80  0.002720  (-0.000000 -0.000176 -0.052151)
 20:    746.67   0.000061    0.31  0.000025  (-0.005043 -0.000000 -0.000004)
 21:    830.76   0.000771    3.90  0.000290  ( 0.017021 -0.000001  0.000001)
 22:    859.62   0.021267  107.48  0.007721  ( 0.087867 -0.000000 -0.000002)
 23:    861.16   0.002934   14.82  0.001063  (-0.000004 -0.001983 -0.032544)
 24:    968.83   0.000162    0.82  0.000052  ( 0.007230 -0.000001  0.000001)
 25:    978.94   0.000021    0.11  0.000007  (-0.002596 -0.000002 -0.000001)
 26:   1032.43   0.000387    1.96  0.000117  ( 0.000000 -0.002231 -0.010588)
 27:   1125.37   0.004724   23.87  0.001310  (-0.000000 -0.032859 -0.015174)
 28:   1186.31   0.020090  101.53  0.005285  (-0.000000 -0.004938 -0.072529)
 29:   1199.35   0.046364  234.31  0.012064  (-0.000000  0.008755 -0.109486)
 30:   1237.71   0.000258    1.30  0.000065  ( 0.000000 -0.001677 -0.007884)
 31:   1313.24   0.049410  249.70  0.011741  ( 0.000000 -0.007062 -0.108127)
 32:   1327.31   0.000463    2.34  0.000109  ( 0.000000 -0.010387  0.000983)
 33:   1382.13   0.007634   38.58  0.001724  (-0.000000  0.003371  0.041379)
 34:   1472.11   0.005097   25.76  0.001081  ( 0.000000 -0.002461 -0.032780)
 35:   1549.19   0.046739  236.20  0.009415  ( 0.000000  0.003208  0.096978)
 36:   1639.80   0.006197   31.32  0.001179  (-0.000000 -0.018731  0.028784)
 37:   1669.74   0.039513  199.68  0.007385  ( 0.000000 -0.008869 -0.085476)
 38:   2208.13   0.017711   89.51  0.002503  (-0.000000 -0.002337 -0.049976)
 39:   3191.42   0.001800    9.10  0.000176  ( 0.000000 -0.001157 -0.013215)
 40:   3203.15   0.000862    4.36  0.000084  ( 0.000000 -0.002713 -0.008755)
 41:   3212.70   0.000589    2.98  0.000057  (-0.000000 -0.007552  0.000394)
 42:   3217.25   0.000502    2.54  0.000049  ( 0.000000 -0.005466  0.004343)
 43:   3449.91   0.045646  230.68  0.004129  (-0.000000 -0.002523 -0.064207)
 44:   3814.65   0.046641  235.71  0.003816  ( 0.000000 -0.039091 -0.047827)

* The epsilon (eps) is given for a Dirac delta lineshape.
** The dipole moment derivative (T) already includes vibrational overlap.

The first frequency considered to be a vibration is 6
The total number of vibrations considered is 39


--------------------------
THERMOCHEMISTRY AT 298.15K
--------------------------

Temperature         ... 298.15 K
Pressure            ... 1.00 atm
Total Mass          ... 118.13 AMU

Throughout the following assumptions are being made:
  (1) The electronic state is orbitally nondegenerate
  (2) There are no thermally accessible electronically excited states
  (3) Hindered rotations indicated by low frequency modes are not
      treated as such but are treated as vibrations and this may
      cause some error
  (4) All equations used are the standard statistical mechanics
      equations for an ideal gas
  (5) All vibrations are strictly harmonic

freq.     104.30  E(vib)   ...       0.46 
freq.     150.60  E(vib)   ...       0.40 
freq.     259.21  E(vib)   ...       0.30 
freq.     386.61  E(vib)   ...       0.20 
freq.     407.49  E(vib)   ...       0.19 
freq.     420.76  E(vib)   ...       0.18 
freq.     424.15  E(vib)   ...       0.18 
freq.     471.00  E(vib)   ...       0.15 
freq.     541.70  E(vib)   ...       0.12 
freq.     557.12  E(vib)   ...       0.12 
freq.     634.20  E(vib)   ...       0.09 
freq.     659.59  E(vib)   ...       0.08 
freq.     702.06  E(vib)   ...       0.07 
freq.     721.88  E(vib)   ...       0.07 
freq.     746.67  E(vib)   ...       0.06 
freq.     830.76  E(vib)   ...       0.04 
freq.     859.62  E(vib)   ...       0.04 
freq.     861.16  E(vib)   ...       0.04 
freq.     968.83  E(vib)   ...       0.03 
freq.     978.94  E(vib)   ...       0.03 
freq.    1032.43  E(vib)   ...       0.02 
freq.    1125.37  E(vib)   ...       0.01 
freq.    1186.31  E(vib)   ...       0.01 
freq.    1199.35  E(vib)   ...       0.01 
freq.    1237.71  E(vib)   ...       0.01 
freq.    1313.24  E(vib)   ...       0.01 
freq.    1327.31  E(vib)   ...       0.01 
freq.    1382.13  E(vib)   ...       0.01 
freq.    1472.11  E(vib)   ...       0.00 
freq.    1549.19  E(vib)   ...       0.00 
freq.    1639.80  E(vib)   ...       0.00 
freq.    1669.74  E(vib)   ...       0.00 
freq.    2208.13  E(vib)   ...       0.00 
freq.    3191.42  E(vib)   ...       0.00 
freq.    3203.15  E(vib)   ...       0.00 
freq.    3212.70  E(vib)   ...       0.00 
freq.    3217.25  E(vib)   ...       0.00 
freq.    3449.91  E(vib)   ...       0.00 
freq.    3814.65  E(vib)   ...       0.00 

------------
INNER ENERGY
------------

The inner energy is: U= E(el) + E(ZPE) + E(vib) + E(rot) + E(trans)
    E(el)   - is the total energy from the electronic structure calculation
              = E(kin-el) + E(nuc-el) + E(el-el) + E(nuc-nuc)
    E(ZPE)  - the the zero temperature vibrational energy from the frequency calculation
    E(vib)  - the the finite temperature correction to E(ZPE) due to population
              of excited vibrational states
    E(rot)  - is the rotational thermal energy
    E(trans)- is the translational thermal energy

Summary of contributions to the inner energy U:
Electronic energy                ...   -383.33505110 Eh
Zero point energy                ...      0.11417846 Eh      71.65 kcal/mol
Thermal vibrational correction   ...      0.00467800 Eh       2.94 kcal/mol
Thermal rotational correction    ...      0.00141627 Eh       0.89 kcal/mol
Thermal translational correction ...      0.00141627 Eh       0.89 kcal/mol
-----------------------------------------------------------------------
Total thermal energy                   -383.21336209 Eh


Summary of corrections to the electronic energy:
(perhaps to be used in another calculation)
Total thermal correction                  0.00751055 Eh       4.71 kcal/mol
Non-thermal (ZPE) correction              0.11417846 Eh      71.65 kcal/mol
-----------------------------------------------------------------------
Total correction                          0.12168900 Eh      76.36 kcal/mol


--------
ENTHALPY
--------

The enthalpy is H = U + kB*T
                kB is Boltzmann's constant
Total free energy                 ...   -383.21336209 Eh 
Thermal Enthalpy correction       ...      0.00094421 Eh       0.59 kcal/mol
-----------------------------------------------------------------------
Total Enthalpy                    ...   -383.21241788 Eh


Note: Rotational entropy computed according to Herzberg 
Infrared and Raman Spectra, Chapter V,1, Van Nostrand Reinhold, 1945 
Point Group:  Cs, Symmetry Number:   1  
Rotational constants in cm-1:     0.189577     0.033124     0.028197 

Vibrational entropy computed according to the QRRHO of S. Grimme
Chem.Eur.J. 2012 18 9955


-------
ENTROPY
-------

The entropy contributions are T*S = T*(S(el)+S(vib)+S(rot)+S(trans))
     S(el)   - electronic entropy
     S(vib)  - vibrational entropy
     S(rot)  - rotational entropy
     S(trans)- translational entropy
The entropies will be listed as multiplied by the temperature to get
units of energy

Electronic entropy                ...      0.00000000 Eh      0.00 kcal/mol
Vibrational entropy               ...      0.00743457 Eh      4.67 kcal/mol
Rotational entropy                ...      0.01358920 Eh      8.53 kcal/mol
Translational entropy             ...      0.01910727 Eh     11.99 kcal/mol
-----------------------------------------------------------------------
Final entropy term                ...      0.04013104 Eh     25.18 kcal/mol

In case the symmetry of your molecule has not been determined correctly
or in case you have a reason to use a different symmetry number we print 
out the resulting rotational entropy values for sn=1,12 :
 --------------------------------------------------------
|  sn= 1 | S(rot)=       0.01358920 Eh      8.53 kcal/mol|
|  sn= 2 | S(rot)=       0.01293474 Eh      8.12 kcal/mol|
|  sn= 3 | S(rot)=       0.01255191 Eh      7.88 kcal/mol|
|  sn= 4 | S(rot)=       0.01228029 Eh      7.71 kcal/mol|
|  sn= 5 | S(rot)=       0.01206960 Eh      7.57 kcal/mol|
|  sn= 6 | S(rot)=       0.01189746 Eh      7.47 kcal/mol|
|  sn= 7 | S(rot)=       0.01175191 Eh      7.37 kcal/mol|
|  sn= 8 | S(rot)=       0.01162583 Eh      7.30 kcal/mol|
|  sn= 9 | S(rot)=       0.01151462 Eh      7.23 kcal/mol|
|  sn=10 | S(rot)=       0.01141514 Eh      7.16 kcal/mol|
|  sn=11 | S(rot)=       0.01132515 Eh      7.11 kcal/mol|
|  sn=12 | S(rot)=       0.01124300 Eh      7.06 kcal/mol|
 --------------------------------------------------------


-------------------
GIBBS FREE ENERGY
-------------------

The Gibbs free energy is G = H - T*S

Total enthalpy                    ...   -383.21241788 Eh 
Total entropy correction          ...     -0.04013104 Eh    -25.18 kcal/mol
-----------------------------------------------------------------------
Final Gibbs free energy         ...   -383.25254893 Eh

For completeness - the Gibbs free energy minus the electronic energy
G-E(el)                           ...      0.08250217 Eh     51.77 kcal/mol


Timings for individual modules:

Sum of individual times         ...      213.921 sec (=   3.565 min)
GTO integral calculation        ...        2.823 sec (=   0.047 min)   1.3 %
SCF iterations                  ...       40.194 sec (=   0.670 min)  18.8 %
SCF Gradient evaluation         ...        5.390 sec (=   0.090 min)   2.5 %
Geometry relaxation             ...        0.134 sec (=   0.002 min)   0.1 %
Analytical frequency calculation...      165.380 sec (=   2.756 min)  77.3 %
                             ****ORCA TERMINATED NORMALLY****
TOTAL RUN TIME: 0 days 0 hours 3 minutes 37 seconds 328 msec
