
                                 *****************
                                 * O   R   C   A *
                                 *****************

                                            #,                                       
                                            ###                                      
                                            ####                                     
                                            #####                                    
                                            ######                                   
                                           ########,                                 
                                     ,,################,,,,,                         
                               ,,#################################,,                 
                          ,,##########################################,,             
                       ,#########################################, ''#####,          
                    ,#############################################,,   '####,        
                  ,##################################################,,,,####,       
                ,###########''''           ''''###############################       
              ,#####''   ,,,,##########,,,,          '''####'''          '####       
            ,##' ,,,,###########################,,,                        '##       
           ' ,,###''''                  '''############,,,                           
         ,,##''                                '''############,,,,        ,,,,,,###''
      ,#''                                            '''#######################'''  
     '                                                          ''''####''''         
             ,#######,   #######,   ,#######,      ##                                
            ,#'     '#,  ##    ##  ,#'     '#,    #''#        ######   ,####,        
            ##       ##  ##   ,#'  ##            #'  '#       #        #'  '#        
            ##       ##  #######   ##           ,######,      #####,   #    #        
            '#,     ,#'  ##    ##  '#,     ,#' ,#      #,         ##   #,  ,#        
             '#######'   ##     ##  '#######'  #'      '#     #####' # '####'        



                  #######################################################
                  #                        -***-                        #
                  #          Department of theory and spectroscopy      #
                  #    Directorship and core code : Frank Neese         #
                  #        Max Planck Institute fuer Kohlenforschung    #
                  #                Kaiser Wilhelm Platz 1               #
                  #                 D-45470 Muelheim/Ruhr               #
                  #                      Germany                        #
                  #                                                     #
                  #                  All rights reserved                #
                  #                        -***-                        #
                  #######################################################


                         Program Version 5.0.4 -  RELEASE  -


 With contributions from (in alphabetic order):
   Daniel Aravena         : Magnetic Suceptibility
   Michael Atanasov       : Ab Initio Ligand Field Theory (pilot matlab implementation)
   Alexander A. Auer      : GIAO ZORA, VPT2 properties, NMR spectrum
   Ute Becker             : Parallelization
   Giovanni Bistoni       : ED, misc. LED, open-shell LED, HFLD
   Martin Brehm           : Molecular dynamics
   Dmytro Bykov           : SCF Hessian
   Vijay G. Chilkuri      : MRCI spin determinant printing, contributions to CSF-ICE
   Dipayan Datta          : RHF DLPNO-CCSD density
   Achintya Kumar Dutta   : EOM-CC, STEOM-CC
   Dmitry Ganyushin       : Spin-Orbit,Spin-Spin,Magnetic field MRCI
   Miquel Garcia          : C-PCM and meta-GGA Hessian, CC/C-PCM, Gaussian charge scheme
   Yang Guo               : DLPNO-NEVPT2, F12-NEVPT2, CIM, IAO-localization
   Andreas Hansen         : Spin unrestricted coupled pair/coupled cluster methods
   Benjamin Helmich-Paris : MC-RPA, TRAH-SCF, COSX integrals
   Lee Huntington         : MR-EOM, pCC
   Robert Izsak           : Overlap fitted RIJCOSX, COSX-SCS-MP3, EOM
   Marcus Kettner         : VPT2
   Christian Kollmar      : KDIIS, OOCD, Brueckner-CCSD(T), CCSD density, CASPT2, CASPT2-K
   Simone Kossmann        : Meta GGA functionals, TD-DFT gradient, OOMP2, MP2 Hessian
   Martin Krupicka        : Initial AUTO-CI
   Lucas Lang             : DCDCAS
   Marvin Lechner         : AUTO-CI (C++ implementation), FIC-MRCC
   Dagmar Lenk            : GEPOL surface, SMD
   Dimitrios Liakos       : Extrapolation schemes; Compound Job, initial MDCI parallelization
   Dimitrios Manganas     : Further ROCIS development; embedding schemes
   Dimitrios Pantazis     : SARC Basis sets
   Anastasios Papadopoulos: AUTO-CI, single reference methods and gradients
   Taras Petrenko         : DFT Hessian,TD-DFT gradient, ASA, ECA, R-Raman, ABS, FL, XAS/XES, NRVS
   Peter Pinski           : DLPNO-MP2, DLPNO-MP2 Gradient
   Christoph Reimann      : Effective Core Potentials
   Marius Retegan         : Local ZFS, SOC
   Christoph Riplinger    : Optimizer, TS searches, QM/MM, DLPNO-CCSD(T), (RO)-DLPNO pert. Triples
   Tobias Risthaus        : Range-separated hybrids, TD-DFT gradient, RPA, STAB
   Michael Roemelt        : Original ROCIS implementation
   Masaaki Saitow         : Open-shell DLPNO-CCSD energy and density
   Barbara Sandhoefer     : DKH picture change effects
   Avijit Sen             : IP-ROCIS
   Kantharuban Sivalingam : CASSCF convergence, NEVPT2, FIC-MRCI
   Bernardo de Souza      : ESD, SOC TD-DFT
   Georgi Stoychev        : AutoAux, RI-MP2 NMR, DLPNO-MP2 response
   Willem Van den Heuvel  : Paramagnetic NMR
   Boris Wezisla          : Elementary symmetry handling
   Frank Wennmohs         : Technical directorship


 We gratefully acknowledge several colleagues who have allowed us to
 interface, adapt or use parts of their codes:
   Stefan Grimme, W. Hujo, H. Kruse, P. Pracht,  : VdW corrections, initial TS optimization,
                  C. Bannwarth, S. Ehlert          DFT functionals, gCP, sTDA/sTD-DF
   Ed Valeev, F. Pavosevic, A. Kumar             : LibInt (2-el integral package), F12 methods
   Garnet Chan, S. Sharma, J. Yang, R. Olivares  : DMRG
   Ulf Ekstrom                                   : XCFun DFT Library
   Mihaly Kallay                                 : mrcc  (arbitrary order and MRCC methods)
   Jiri Pittner, Ondrej Demel                    : Mk-CCSD
   Frank Weinhold                                : gennbo (NPA and NBO analysis)
   Christopher J. Cramer and Donald G. Truhlar   : smd solvation model
   Lars Goerigk                                  : TD-DFT with DH, B97 family of functionals
   V. Asgeirsson, H. Jonsson                     : NEB implementation
   FAccTs GmbH                                   : IRC, NEB, NEB-TS, DLPNO-Multilevel, CI-OPT
                                                   MM, QMMM, 2- and 3-layer-ONIOM, Crystal-QMMM,
                                                   LR-CPCM, SF, NACMEs, symmetry and pop. for TD-DFT,
                                                   nearIR, NL-DFT gradient (VV10), updates on ESD,
                                                   ML-optimized integration grids
   S Lehtola, MJT Oliveira, MAL Marques          : LibXC Library
   Liviu Ungur et al                             : ANISO software


 Your calculation uses the libint2 library for the computation of 2-el integrals
 For citations please refer to: http://libint.valeyev.net

 Your ORCA version has been built with support for libXC version: 5.1.0
 For citations please refer to: https://tddft.org/programs/libxc/

 This ORCA versions uses:
   CBLAS   interface :  Fast vector & matrix operations
   LAPACKE interface :  Fast linear algebra routines
   SCALAPACK package :  Parallel linear algebra routines
   Shared memory     :  Shared parallel matrices
   BLAS/LAPACK       :  OpenBLAS 0.3.15  USE64BITINT DYNAMIC_ARCH NO_AFFINITY Haswell SINGLE_THREADED
        Core in use  :  Haswell
   Copyright (c) 2011-2014, The OpenBLAS Project


Your calculation utilizes the atom-pairwise dispersion correction
with the Becke-Johnson damping scheme (D3BJ)
Cite in your paper:
S.Grimme, S.Ehrlich, L.Goerigk, J Comput Chem, (2011), 32, 1456–1465 
S.Grimme, J.Antony, S.Ehrlich and H.Krieg, J.Chem.Phys., 132, (2010), 154104 
   

================================================================================

----- Orbital basis set information -----
Your calculation utilizes the basis: def2-TZVP
   F. Weigend and R. Ahlrichs, Phys. Chem. Chem. Phys. 7, 3297 (2005).

----- AuxJ basis set information -----
Your calculation utilizes the auxiliary basis: def2/J
   F. Weigend, Phys. Chem. Chem. Phys. 8, 1057 (2006).

================================================================================
                                        WARNINGS
                       Please study these warnings very carefully!
================================================================================


WARNING: Geometry Optimization
  ===> : Switching off AutoStart
         For restart on a previous wavefunction, please use MOREAD

INFO   : the flag for use of the SHARK integral package has been found!

================================================================================
                                       INPUT FILE
================================================================================
NAME = CCH-PhenO/CCH-PhenO.inp
|  1> %pal nprocs 24 end
|  2> %maxcore 3500
|  3> ! PBE0 D3BJ def2-TZVP TightSCF OPT FREQ TightOpt
|  4> ! CPCM(dmso)
|  5> %scf
|  6> MaxIter 800
|  7> end
|  8> %geom
|  9> MaxIter 800
| 10> MaxStep 0.2
| 11> end
| 12> *xyz -1 1
| 13> 
| 14> C      -0.00000100     -0.55260600     -1.65345800
| 15> C      -0.00000100      0.67358000     -0.96539700
| 16> C      -0.00000100     -1.72764100     -0.88130600
| 17> H      -0.00000100      1.59566000     -1.53926300
| 18> H      -0.00000100     -2.68767500     -1.38909000
| 19> C       0.00000100      0.72659700      0.40872000
| 20> C       0.00000100     -1.68459900      0.49323100
| 21> H       0.00000000      1.68824900      0.91407600
| 22> H       0.00000100     -2.60911400      1.06373100
| 23> C       0.00000100     -0.45197300      1.22384200
| 24> O      -0.00000000     -0.40737800      2.49289300
| 25> C      -0.00000000     -0.60159600     -3.06880200
| 26> C       0.00000000     -0.64223400     -4.27805800
| 27> H       0.00000100     -0.67807100     -5.34366100
| 28> *
| 29> 
| 30>                          ****END OF INPUT****
================================================================================

                       *****************************
                       * Geometry Optimization Run *
                       *****************************

Geometry optimization settings:
Update method            Update   .... BFGS
Choice of coordinates    CoordSys .... Z-matrix Internals
Initial Hessian          InHess   .... Almoef's Model

Convergence Tolerances:
Energy Change            TolE     ....  1.0000e-06 Eh
Max. Gradient            TolMAXG  ....  1.0000e-04 Eh/bohr
RMS Gradient             TolRMSG  ....  3.0000e-05 Eh/bohr
Max. Displacement        TolMAXD  ....  1.0000e-03 bohr
RMS Displacement         TolRMSD  ....  6.0000e-04 bohr
Strict Convergence                ....  False
------------------------------------------------------------------------------
                        ORCA OPTIMIZATION COORDINATE SETUP
------------------------------------------------------------------------------

The optimization will be done in new redundant internal coordinates
Making redundant internal coordinates   ...  (new redundants) done
Evaluating the initial hessian          ...  (Almloef) done
Evaluating the coordinates              ...  done
Calculating the B-matrix                .... done
Calculating the G-matrix                .... done
Diagonalizing the G-matrix              .... done
The first mode is                       ....   24
The number of degrees of freedom        ....   36

    -----------------------------------------------------------------
                    Redundant Internal Coordinates


    -----------------------------------------------------------------
         Definition                    Initial Value    Approx d2E/dq
    -----------------------------------------------------------------
      1. B(C   1,C   0)                  1.4060         0.589035   
      2. B(C   2,C   0)                  1.4060         0.589061   
      3. B(H   3,C   1)                  1.0861         0.365333   
      4. B(H   4,C   2)                  1.0861         0.365360   
      5. B(C   5,C   1)                  1.3751         0.659854   
      6. B(C   6,C   2)                  1.3752         0.659681   
      7. B(H   7,C   5)                  1.0864         0.364959   
      8. B(H   8,C   6)                  1.0864         0.364935   
      9. B(C   9,C   6)                  1.4329         0.533726   
     10. B(C   9,C   5)                  1.4330         0.533526   
     11. B(O  10,C   9)                  1.2698         0.870146   
     12. B(C  11,C   0)                  1.4162         0.567481   
     13. B(C  12,C  11)                  1.2099         1.210640   
     14. B(H  13,C  12)                  1.0662         0.392994   
     15. A(C   2,C   0,C  11)          121.3277         0.423326   
     16. A(C   1,C   0,C   2)          117.3914         0.426159   
     17. A(C   1,C   0,C  11)          121.2809         0.423323   
     18. A(H   3,C   1,C   5)          119.6870         0.357532   
     19. A(C   0,C   1,C   5)          121.5080         0.434931   
     20. A(C   0,C   1,H   3)          118.8050         0.350720   
     21. A(H   4,C   2,C   6)          119.6690         0.357521   
     22. A(C   0,C   2,C   6)          121.5166         0.434914   
     23. A(C   0,C   2,H   4)          118.8145         0.350727   
     24. A(H   7,C   5,C   9)          117.6092         0.344862   
     25. A(C   1,C   5,C   9)          122.4590         0.427268   
     26. A(C   1,C   5,H   7)          119.9318         0.357470   
     27. A(H   8,C   6,C   9)          117.6657         0.344880   
     28. A(C   2,C   6,C   9)          122.4499         0.427276   
     29. A(C   2,C   6,H   8)          119.8844         0.357450   
     30. A(C   5,C   9,O  10)          122.6559         0.446162   
     31. A(C   5,C   9,C   6)          114.6751         0.411410   
     32. A(C   6,C   9,O  10)          122.6689         0.446192   
     33. L(C   0,C  11,C  12,C   1, 2) 180.0001         0.482533   
     34. L(C   0,C  11,C  12,C   1, 1) 179.9423         0.482533   
     35. L(C  11,C  12,H  13, 2)       180.0001         0.402203   
     36. L(C  11,C  12,H  13, 1)       180.0014         0.402203   
     37. D(C   5,C   1,C   0,C   2)      0.0001         0.023873   
     38. D(C   5,C   1,C   0,C  11)   -179.9999         0.023873   
     39. D(H   3,C   1,C   0,C  11)      0.0000         0.023873   
     40. D(H   3,C   1,C   0,C   2)    180.0000         0.023873   
     41. D(C   6,C   2,C   0,C   1)     -0.0001         0.023875   
     42. D(H   4,C   2,C   0,C   1)    180.0000         0.023875   
     43. D(H   4,C   2,C   0,C  11)     -0.0000         0.023875   
     44. D(C   6,C   2,C   0,C  11)    179.9999         0.023875   
     45. D(C   9,C   5,C   1,H   3)    180.0000         0.030382   
     46. D(C   9,C   5,C   1,C   0)     -0.0001         0.030382   
     47. D(H   7,C   5,C   1,H   3)      0.0002         0.030382   
     48. D(H   7,C   5,C   1,C   0)   -179.9999         0.030382   
     49. D(C   9,C   6,C   2,C   0)      0.0001         0.030364   
     50. D(H   8,C   6,C   2,H   4)     -0.0001         0.030364   
     51. D(H   8,C   6,C   2,C   0)   -180.0000         0.030364   
     52. D(C   9,C   6,C   2,H   4)   -180.0000         0.030364   
     53. D(O  10,C   9,C   6,H   8)     -0.0001         0.019451   
     54. D(C   5,C   9,C   6,H   8)    180.0000         0.019451   
     55. D(C   5,C   9,C   6,C   2)     -0.0001         0.019451   
     56. D(O  10,C   9,C   5,H   7)     -0.0000         0.019436   
     57. D(O  10,C   9,C   5,C   1)   -179.9998         0.019436   
     58. D(O  10,C   9,C   6,C   2)    179.9998         0.019451   
     59. D(C   6,C   9,C   5,H   7)    179.9999         0.019436   
     60. D(C   6,C   9,C   5,C   1)      0.0001         0.019436   
    -----------------------------------------------------------------

Number of atoms                         .... 14
Number of degrees of freedom            .... 60

         *************************************************************
         *                GEOMETRY OPTIMIZATION CYCLE   1            *
         *************************************************************
---------------------------------
CARTESIAN COORDINATES (ANGSTROEM)
---------------------------------
  C     -0.000001   -0.552606   -1.653458
  C     -0.000001    0.673580   -0.965397
  C     -0.000001   -1.727641   -0.881306
  H     -0.000001    1.595660   -1.539263
  H     -0.000001   -2.687675   -1.389090
  C      0.000001    0.726597    0.408720
  C      0.000001   -1.684599    0.493231
  H      0.000000    1.688249    0.914076
  H      0.000001   -2.609114    1.063731
  C      0.000001   -0.451973    1.223842
  O     -0.000000   -0.407378    2.492893
  C     -0.000000   -0.601596   -3.068802
  C      0.000000   -0.642234   -4.278058
  H      0.000001   -0.678071   -5.343661

----------------------------
CARTESIAN COORDINATES (A.U.)
----------------------------
  NO LB      ZA    FRAG     MASS         X           Y           Z
   0 C     6.0000    0    12.011   -0.000002   -1.044274   -3.124583
   1 C     6.0000    0    12.011   -0.000002    1.272882   -1.824336
   2 C     6.0000    0    12.011   -0.000002   -3.264768   -1.665427
   3 H     1.0000    0     1.008   -0.000002    3.015360   -2.908786
   4 H     1.0000    0     1.008   -0.000002   -5.078970   -2.625000
   5 C     6.0000    0    12.011    0.000002    1.373069    0.772369
   6 C     6.0000    0    12.011    0.000002   -3.183431    0.932072
   7 H     1.0000    0     1.008    0.000000    3.190328    1.727353
   8 H     1.0000    0     1.008    0.000002   -4.930511    2.010160
   9 C     6.0000    0    12.011    0.000002   -0.854105    2.312726
  10 O     8.0000    0    15.999   -0.000000   -0.769833    4.710885
  11 C     6.0000    0    12.011   -0.000000   -1.136852   -5.799195
  12 C     6.0000    0    12.011    0.000000   -1.213646   -8.084358
  13 H     1.0000    0     1.008    0.000002   -1.281368  -10.098056

--------------------------------
INTERNAL COORDINATES (ANGSTROEM)
--------------------------------
 C      0   0   0     0.000000000000     0.00000000     0.00000000
 C      1   0   0     1.406044112507     0.00000000     0.00000000
 C      1   2   0     1.406031991929   117.39135107     0.00000000
 H      2   1   3     1.086072609155   118.80501467   180.00000085
 H      3   1   2     1.086052425904   118.81445094   180.00000000
 C      2   1   3     1.375139386383   121.50801394     0.00000000
 C      3   1   2     1.375210739537   121.51659544     0.00000000
 H      6   2   1     1.086351350089   119.93181765   180.00005775
 H      7   3   1     1.086369290446   119.88435479   180.00000331
 C      7   3   1     1.432884953231   122.44994054     0.00000000
 O     10   7   3     1.269834302036   122.66894736   179.99984765
 C      1   2   3     1.416191603716   121.28090563   180.00004734
 C     12   1   2     1.209938643312   179.94232979   359.95978046
 H     13  12   1     1.066205441826   179.99857186   177.88376407

---------------------------
INTERNAL COORDINATES (A.U.)
---------------------------
 C      0   0   0     0.000000000000     0.00000000     0.00000000
 C      1   0   0     2.657038304852     0.00000000     0.00000000
 C      1   2   0     2.657015400278   117.39135107     0.00000000
 H      2   1   3     2.052379792856   118.80501467   180.00000085
 H      3   1   2     2.052341652039   118.81445094   180.00000000
 C      2   1   3     2.598636836233   121.50801394     0.00000000
 C      3   1   2     2.598771674152   121.51659544     0.00000000
 H      6   2   1     2.052906536885   119.93181765   180.00005775
 H      7   3   1     2.052940439246   119.88435479   180.00000331
 C      7   3   1     2.707760143024   122.44994054     0.00000000
 O     10   7   3     2.399639066307   122.66894736   179.99984765
 C      1   2   3     2.676214284183   121.28090563   180.00004734
 C     12   1   2     2.286452674708   179.94232979   359.95978046
 H     13  12   1     2.014836287547   179.99857186   177.88376407

---------------------
BASIS SET INFORMATION
---------------------
There are 3 groups of distinct atoms

 Group   1 Type C   : 11s6p2d1f contracted to 5s3p2d1f pattern {62111/411/11/1}
 Group   2 Type H   : 5s1p contracted to 3s1p pattern {311/1}
 Group   3 Type O   : 11s6p2d1f contracted to 5s3p2d1f pattern {62111/411/11/1}

Atom   0C    basis set group =>   1
Atom   1C    basis set group =>   1
Atom   2C    basis set group =>   1
Atom   3H    basis set group =>   2
Atom   4H    basis set group =>   2
Atom   5C    basis set group =>   1
Atom   6C    basis set group =>   1
Atom   7H    basis set group =>   2
Atom   8H    basis set group =>   2
Atom   9C    basis set group =>   1
Atom  10O    basis set group =>   3
Atom  11C    basis set group =>   1
Atom  12C    basis set group =>   1
Atom  13H    basis set group =>   2
---------------------------------
AUXILIARY/J BASIS SET INFORMATION
---------------------------------
There are 3 groups of distinct atoms

 Group   1 Type C   : 12s5p4d2f1g contracted to 6s4p3d1f1g pattern {711111/2111/211/2/1}
 Group   2 Type H   : 5s2p1d contracted to 3s1p1d pattern {311/2/1}
 Group   3 Type O   : 12s5p4d2f1g contracted to 6s4p3d1f1g pattern {711111/2111/211/2/1}

Atom   0C    basis set group =>   1
Atom   1C    basis set group =>   1
Atom   2C    basis set group =>   1
Atom   3H    basis set group =>   2
Atom   4H    basis set group =>   2
Atom   5C    basis set group =>   1
Atom   6C    basis set group =>   1
Atom   7H    basis set group =>   2
Atom   8H    basis set group =>   2
Atom   9C    basis set group =>   1
Atom  10O    basis set group =>   3
Atom  11C    basis set group =>   1
Atom  12C    basis set group =>   1
Atom  13H    basis set group =>   2


           ************************************************************
           *        Program running with 24 parallel MPI-processes    *
           *              working on a common directory               *
           ************************************************************
------------------------------------------------------------------------------
                           ORCA GTO INTEGRAL CALCULATION
                           -- RI-GTO INTEGRALS CHOSEN --
------------------------------------------------------------------------------
------------------------------------------------------------------------------
                   ___                                                        
                  /   \      - P O W E R E D   B Y -                         
                 /     \                                                     
                 |  |  |   _    _      __       _____    __    __             
                 |  |  |  | |  | |    /  \     |  _  \  |  |  /  |          
                  \  \/   | |  | |   /    \    | | | |  |  | /  /          
                 / \  \   | |__| |  /  /\  \   | |_| |  |  |/  /          
                |  |  |   |  __  | /  /__\  \  |    /   |      \           
                |  |  |   | |  | | |   __   |  |    \   |  |\   \          
                \     /   | |  | | |  |  |  |  | |\  \  |  | \   \       
                 \___/    |_|  |_| |__|  |__|  |_| \__\ |__|  \__/        
                                                                              
                      - O R C A' S   B I G   F R I E N D -                    
                                      &                                       
                       - I N T E G R A L  F E E D E R -                       
                                                                              
 v1 FN, 2020, v2 2021                                                         
------------------------------------------------------------------------------


Reading SHARK input file CCH-PhenO/CCH-PhenO.SHARKINP.tmp ... ok
----------------------
SHARK INTEGRAL PACKAGE
----------------------

Number of atoms                             ...     14
Number of basis functions                   ...    309
Number of shells                            ...    119
Maximum angular momentum                    ...      3
Integral batch strategy                     ... SHARK/LIBINT Hybrid
RI-J (if used) integral strategy            ... SPLIT-RIJ (Revised 2003 algorithm where possible)
Printlevel                                  ...      1
Contraction scheme used                     ... SEGMENTED contraction
Coulomb Range Separation                    ... NOT USED
Exchange Range Separation                   ... NOT USED
Finite Nucleus Model                        ... NOT USED
Auxiliary Coulomb fitting basis             ... AVAILABLE
   # of basis functions in Aux-J            ...    496
   # of shells in Aux-J                     ...    160
   Maximum angular momentum in Aux-J        ...      4
Auxiliary J/K fitting basis                 ... NOT available
Auxiliary Correlation fitting basis         ... NOT available
Auxiliary 'external' fitting basis          ... NOT available
Integral threshold                          ...     2.500000e-11
Primitive cut-off                           ...     2.500000e-12
Primitive pair pre-selection threshold      ...     2.500000e-12

Calculating pre-screening integrals         ... done (  0.1 sec) Dimension = 119
Organizing shell pair data                  ... done (  0.1 sec)
Shell pair information
Total number of shell pairs                 ...      7140
Shell pairs after pre-screening             ...      6394
Total number of primitive shell pairs       ...     22368
Primitive shell pairs kept                  ...     14905
          la=0 lb=0:   1559 shell pairs
          la=1 lb=0:   1738 shell pairs
          la=1 lb=1:    501 shell pairs
          la=2 lb=0:    964 shell pairs
          la=2 lb=1:    542 shell pairs
          la=2 lb=2:    158 shell pairs
          la=3 lb=0:    475 shell pairs
          la=3 lb=1:    267 shell pairs
          la=3 lb=2:    148 shell pairs
          la=3 lb=3:     42 shell pairs

Calculating one electron integrals          ... done (  0.0 sec)
Calculating RI/J V-Matrix + Cholesky decomp.... done (  0.1 sec)
Calculating Nuclear repulsion               ... done (  0.0 sec) ENN=    363.229658738981 Eh

SHARK setup successfully completed in   0.5 seconds

Maximum memory used throughout the entire GTOINT-calculation: 19.9 MB


           ************************************************************
           *        Program running with 24 parallel MPI-processes    *
           *              working on a common directory               *
           ************************************************************
-------------------------------------------------------------------------------
                                 ORCA SCF
-------------------------------------------------------------------------------

------------
SCF SETTINGS
------------
Hamiltonian:
 Density Functional     Method          .... DFT(GTOs)
 Exchange Functional    Exchange        .... PBE
   PBE kappa parameter   XKappa         ....  0.804000
   PBE mue parameter    XMuePBE         ....  0.219520
 Correlation Functional Correlation     .... PBE
   PBE beta parameter  CBetaPBE         ....  0.066725
 LDA part of GGA corr.  LDAOpt          .... PW91-LDA
 Gradients option       PostSCFGGA      .... off
 Hybrid DFT is turned on
   Fraction HF Exchange ScalHFX         ....  0.250000
   Scaling of DF-GGA-X  ScalDFX         ....  0.750000
   Scaling of DF-GGA-C  ScalDFC         ....  1.000000
   Scaling of DF-LDA-C  ScalLDAC        ....  1.000000
   Perturbative correction              ....  0.000000
   Density functional embedding theory  .... OFF
   NL short-range parameter             ....  6.900000
 RI-approximation to the Coulomb term is turned on
   Number of AuxJ basis functions       .... 496
   RIJ-COSX (HFX calculated with COS-X)).... on


General Settings:
 Integral files         IntName         .... CCH-PhenO/CCH-PhenO
 Hartree-Fock type      HFTyp           .... RHF
 Total Charge           Charge          ....   -1
 Multiplicity           Mult            ....    1
 Number of Electrons    NEL             ....   62
 Basis Dimension        Dim             ....  309
 Nuclear Repulsion      ENuc            ....    363.2296587390 Eh

Convergence Acceleration:
 DIIS                   CNVDIIS         .... on
   Start iteration      DIISMaxIt       ....    12
   Startup error        DIISStart       ....  0.200000
   # of expansion vecs  DIISMaxEq       ....     5
   Bias factor          DIISBfac        ....   1.050
   Max. coefficient     DIISMaxC        ....  10.000
 Trust-Rad. Augm. Hess. CNVTRAH         .... auto
   Auto Start mean grad. ratio tolernc. ....  1.125000
   Auto Start start iteration           ....    20
   Auto Start num. interpolation iter.  ....    10
   Max. Number of Micro iterations      ....    16
   Max. Number of Macro iterations      .... Maxiter - #DIIS iter
   Number of Davidson start vectors     ....     2
   Converg. threshold I  (grad. norm)   ....   1.000e-05
   Converg. threshold II (energy diff.) ....   1.000e-08
   Grad. Scal. Fac. for Micro threshold ....   0.100
   Minimum threshold for Micro iter.    ....   0.010
   NR start threshold (gradient norm)   ....   0.001
   Initial trust radius                 ....   0.400
   Minimum AH scaling param. (alpha)    ....   1.000
   Maximum AH scaling param. (alpha)    .... 1000.000
   Orbital update algorithm             .... Taylor
   White noise on init. David. guess    .... on
   Maximum white noise                  ....   0.010
   Quad. conv. algorithm                .... NR
 SOSCF                  CNVSOSCF        .... on
   Start iteration      SOSCFMaxIt      ....   150
   Startup grad/error   SOSCFStart      ....  0.003300
 Level Shifting         CNVShift        .... on
   Level shift para.    LevelShift      ....    0.2500
   Turn off err/grad.   ShiftErr        ....    0.0010
 Zerner damping         CNVZerner       .... off
 Static damping         CNVDamp         .... on
   Fraction old density DampFac         ....    0.7000
   Max. Damping (<1)    DampMax         ....    0.9800
   Min. Damping (>=0)   DampMin         ....    0.0000
   Turn off err/grad.   DampErr         ....    0.1000
 Fernandez-Rico         CNVRico         .... off

SCF Procedure:
 Maximum # iterations   MaxIter         ....   800
 SCF integral mode      SCFMode         .... Direct
   Integral package                     .... SHARK and LIBINT hybrid scheme
 Reset frequency        DirectResetFreq ....    20
 Integral Threshold     Thresh          ....  2.500e-11 Eh
 Primitive CutOff       TCut            ....  2.500e-12 Eh

Convergence Tolerance:
 Convergence Check Mode ConvCheckMode   .... Total+1el-Energy
 Convergence forced     ConvForced      .... 0
 Energy Change          TolE            ....  1.000e-08 Eh
 1-El. energy change                    ....  1.000e-05 Eh
 Orbital Gradient       TolG            ....  1.000e-05
 Orbital Rotation angle TolX            ....  1.000e-05
 DIIS Error             TolErr          ....  5.000e-07


Diagonalization of the overlap matrix:
Smallest eigenvalue                        ... 9.373e-06
Time for diagonalization                   ...    0.022 sec
Threshold for overlap eigenvalues          ... 1.000e-08
Number of eigenvalues below threshold      ... 0
Time for construction of square roots      ...    0.021 sec
Total time needed                          ...    0.046 sec

Time for model grid setup =    0.109 sec

------------------------------
INITIAL GUESS: MODEL POTENTIAL
------------------------------
Loading Hartree-Fock densities                     ... done
Calculating cut-offs                               ... done
Initializing the effective Hamiltonian             ... done
Setting up the integral package (SHARK)            ... done
Starting the Coulomb interaction                   ... done (   0.1 sec)
Reading the grid                                   ... done
Mapping shells                                     ... done
Starting the XC term evaluation                    ... done (   0.0 sec)
  promolecular density results
     # of electrons  =     61.000078587
     EX              =    -50.446137044
     EC              =     -2.005749273
     EX+EC           =    -52.451886317
Transforming the Hamiltonian                       ... done (   0.0 sec)
Diagonalizing the Hamiltonian                      ... done (   0.0 sec)
Back transforming the eigenvectors                 ... done (   0.0 sec)
Now organizing SCF variables                       ... done
                      ------------------
                      INITIAL GUESS DONE (   0.3 sec)
                      ------------------
-------------------
DFT GRID GENERATION
-------------------

General Integration Accuracy     IntAcc      ... 4.388
Radial Grid Type                 RadialGrid  ... OptM3 with GC (2021)
Angular Grid (max. ang.)         AngularGrid ... 4 (Lebedev-302)
Angular grid pruning method      GridPruning ... 4 (adaptive)
Weight generation scheme         WeightScheme... Becke
Basis function cutoff            BFCut       ... 1.0000e-11
Integration weight cutoff        WCut        ... 1.0000e-14
Angular grids for H and He will be reduced by one unit
Partially contracted basis set               ... off
Rotationally invariant grid construction     ... off

Total number of grid points                  ...    70385
Total number of batches                      ...     1108
Average number of points per batch           ...       63
Average number of grid points per atom       ...     5028
Time for grid setup =    0.381 sec

--------------------
COSX GRID GENERATION
--------------------

GRIDX 1
-------
General Integration Accuracy     IntAcc      ... 3.816
Radial Grid Type                 RadialGrid  ... OptM3 with GC (2021)
Angular Grid (max. ang.)         AngularGrid ... 1 (Lebedev-50)
Angular grid pruning method      GridPruning ... 4 (adaptive)
Weight generation scheme         WeightScheme... Becke
Basis function cutoff            BFCut       ... 1.0000e-11
Integration weight cutoff        WCut        ... 1.0000e-14
Angular grids for H and He will be reduced by one unit
Partially contracted basis set               ... on
Rotationally invariant grid construction     ... off

Total number of grid points                  ...     8969
Total number of batches                      ...      146
Average number of points per batch           ...       61
Average number of grid points per atom       ...      641
UseSFitting                                  ... on

GRIDX 2
-------
General Integration Accuracy     IntAcc      ... 4.020
Radial Grid Type                 RadialGrid  ... OptM3 with GC (2021)
Angular Grid (max. ang.)         AngularGrid ... 2 (Lebedev-110)
Angular grid pruning method      GridPruning ... 4 (adaptive)
Weight generation scheme         WeightScheme... Becke
Basis function cutoff            BFCut       ... 1.0000e-11
Integration weight cutoff        WCut        ... 1.0000e-14
Angular grids for H and He will be reduced by one unit
Partially contracted basis set               ... on
Rotationally invariant grid construction     ... off

Total number of grid points                  ...    20094
Total number of batches                      ...      322
Average number of points per batch           ...       62
Average number of grid points per atom       ...     1435
UseSFitting                                  ... on

GRIDX 3
-------
General Integration Accuracy     IntAcc      ... 4.338
Radial Grid Type                 RadialGrid  ... OptM3 with GC (2021)
Angular Grid (max. ang.)         AngularGrid ... 3 (Lebedev-194)
Angular grid pruning method      GridPruning ... 4 (adaptive)
Weight generation scheme         WeightScheme... Becke
Basis function cutoff            BFCut       ... 1.0000e-11
Integration weight cutoff        WCut        ... 1.0000e-14
Angular grids for H and He will be reduced by one unit
Partially contracted basis set               ... on
Rotationally invariant grid construction     ... off

Total number of grid points                  ...    44345
Total number of batches                      ...      699
Average number of points per batch           ...       63
Average number of grid points per atom       ...     3168
UseSFitting                                  ... on

Time for X-Grid setup             =    0.550 sec


--------------------
CPCM SOLVATION MODEL
--------------------
CPCM parameters:
  Epsilon                                         ...      47.2000
  Refrac                                          ...       1.4790
  Rsolv                                           ...       1.3000
  Surface type                                    ... GAUSSIAN VDW
  Epsilon function type                           ...         CPCM
Radii:
 Radius for C  used is    3.8550 Bohr (=   2.0400 Ang.)
 Radius for H  used is    2.4944 Bohr (=   1.3200 Ang.)
 Radius for O  used is    3.4469 Bohr (=   1.8240 Ang.)
Calculating surface                               ...        done! (  0.0s)
GEPOL surface points                              ...          830
GEPOL Volume                                      ...    1045.7601
GEPOL Surface-area                                ...     591.4205
Calculating surface distance matrix               ...        done! (  0.0s)
Performing Cholesky decomposition & store         ...        done! (  0.1s)
Overall time for CPCM initialization              ...                 0.1s
--------------
SCF ITERATIONS
--------------
ITER       Energy         Delta-E        Max-DP      RMS-DP      [F,P]     Damp
               ***  Starting incremental Fock matrix formation  ***
  0   -382.5446971493   0.000000000000 0.39895826  0.00462512  0.3276865 0.7000
  1   -382.6767254046  -0.132028255299 0.37888958  0.00428878  0.1406612 0.7000
                               ***Turning on DIIS***
  2   -382.7347437167  -0.058018312106 0.38630510  0.00499328  0.0447713 0.0000
  3   -382.8223454999  -0.087601783157 0.39696268  0.00430959  0.0815040 0.0000
  4   -382.8412787287  -0.018933228799 0.06833787  0.00076214  0.0171178 0.0000
  5   -382.8423435920  -0.001064863303 0.03812592  0.00043280  0.0098529 0.0000
                      *** Initiating the SOSCF procedure ***
                           *** Shutting down DIIS ***
                      *** Re-Reading the Fockian *** 
                      *** Removing any level shift *** 
ITER      Energy       Delta-E        Grad      Rot      Max-DP    RMS-DP
  6   -382.84246369  -0.0001200941  0.000423  0.000423  0.020300  0.000241
               *** Restarting incremental Fock matrix formation ***
  7   -382.84245642   0.0000072632  0.000297  0.001600  0.005780  0.000077
  8   -382.84245450   0.0000019186  0.000414  0.000862  0.004034  0.000045
  9   -382.84245813  -0.0000036284  0.000031  0.000088  0.000280  0.000004
 10   -382.84245809   0.0000000459  0.000052  0.000056  0.000359  0.000005
 11   -382.84245817  -0.0000000880  0.000006  0.000020  0.000157  0.000003
 12   -382.84245817   0.0000000004  0.000009  0.000010  0.000218  0.000003
                  ***Gradient check signals convergence***
              ***Rediagonalizing the Fockian in SOSCF/NRSCF***

               *****************************************************
               *                     SUCCESS                       *
               *           SCF CONVERGED AFTER  13 CYCLES          *
               *****************************************************

Old exchange energy                            =    -12.918529271 Eh
New exchange energy                            =    -12.918518840 Eh
Exchange energy change after final integration =      0.000010431 Eh
Total energy after final integration           =   -382.842447752 Eh
Final COS-X integration done in                =     1.448 sec

----------------
TOTAL SCF ENERGY
----------------

Total Energy       :         -382.84244775 Eh          -10417.67263 eV

Components:
Nuclear Repulsion  :          363.22965874 Eh            9883.98151 eV
Electronic Energy  :         -746.07210649 Eh          -20301.65413 eV
One Electron Energy:        -1249.07251611 Eh          -33988.99113 eV
Two Electron Energy:          503.00040962 Eh           13687.33700 eV
Max COSX asymmetry :            0.00000129 Eh               0.00004 eV
CPCM Dielectric    :           -0.09438427 Eh              -2.56833 eV

Virial components:
Potential Energy   :         -763.91996443 Eh          -20787.31904 eV
Kinetic Energy     :          381.07751668 Eh           10369.64641 eV
Virial Ratio       :            2.00463142


DFT components:
N(Alpha)           :       31.000036028211 electrons
N(Beta)            :       31.000036028211 electrons
N(Total)           :       62.000072056421 electrons
E(X)               :      -38.684417580407 Eh       
E(C)               :       -2.054904763734 Eh       
E(XC)              :      -40.739322344141 Eh       
DFET-embed. en.    :        0.000000000000 Eh       
CPCM Solvation Model Properties:
Surface-charge          :            0.96942599
Charge-correction       :           -0.00396445 Eh              -0.10788 eV
Free-energy (cav+disp)  :  This term is not implemented in the current solvation scheme

---------------
SCF CONVERGENCE
---------------

  Last Energy change         ...   -8.4372e-09  Tolerance :   1.0000e-08
  Last MAX-Density change    ...    1.2750e-15  Tolerance :   1.0000e-07
  Last RMS-Density change    ...    1.8545e-17  Tolerance :   5.0000e-09
  Last Orbital Gradient      ...    4.7990e-07  Tolerance :   1.0000e-05
  Last Orbital Rotation      ...    2.1407e-06  Tolerance :   1.0000e-05

             **** THE GBW FILE WAS UPDATED (CCH-PhenO/CCH-PhenO.gbw) ****
             **** DENSITY CCH-PhenO/CCH-PhenO.scfp WAS UPDATED ****
             **** ENERGY FILE WAS UPDATED (CCH-PhenO/CCH-PhenO.en.tmp) ****
             **** THE GBW FILE WAS UPDATED (CCH-PhenO/CCH-PhenO.gbw) ****
             **** DENSITY CCH-PhenO/CCH-PhenO.scfp WAS UPDATED ****
----------------
ORBITAL ENERGIES
----------------

  NO   OCC          E(Eh)            E(eV) 
   0   2.0000     -19.121219      -520.3148 
   1   2.0000     -10.251993      -278.9709 
   2   2.0000     -10.223311      -278.1904 
   3   2.0000     -10.219739      -278.0932 
   4   2.0000     -10.215754      -277.9848 
   5   2.0000     -10.215705      -277.9835 
   6   2.0000     -10.204803      -277.6868 
   7   2.0000     -10.193297      -277.3737 
   8   2.0000     -10.193282      -277.3733 
   9   2.0000      -0.989077       -26.9141 
  10   2.0000      -0.861028       -23.4298 
  11   2.0000      -0.778475       -21.1834 
  12   2.0000      -0.753013       -20.4905 
  13   2.0000      -0.716254       -19.4903 
  14   2.0000      -0.607619       -16.5341 
  15   2.0000      -0.601490       -16.3674 
  16   2.0000      -0.547641       -14.9021 
  17   2.0000      -0.505447       -13.7539 
  18   2.0000      -0.464697       -12.6451 
  19   2.0000      -0.450987       -12.2720 
  20   2.0000      -0.413742       -11.2585 
  21   2.0000      -0.413616       -11.2551 
  22   2.0000      -0.395184       -10.7535 
  23   2.0000      -0.366630        -9.9765 
  24   2.0000      -0.347149        -9.4464 
  25   2.0000      -0.346822        -9.4375 
  26   2.0000      -0.284362        -7.7379 
  27   2.0000      -0.281521        -7.6606 
  28   2.0000      -0.256835        -6.9888 
  29   2.0000      -0.226283        -6.1575 
  30   2.0000      -0.181738        -4.9453 
  31   0.0000       0.003808         0.1036 
  32   0.0000       0.009633         0.2621 
  33   0.0000       0.051988         1.4147 
  34   0.0000       0.080622         2.1938 
  35   0.0000       0.097346         2.6489 
  36   0.0000       0.103464         2.8154 
  37   0.0000       0.104714         2.8494 
  38   0.0000       0.110710         3.0126 
  39   0.0000       0.128810         3.5051 
  40   0.0000       0.145788         3.9671 
  41   0.0000       0.147896         4.0244 
  42   0.0000       0.177896         4.8408 
  43   0.0000       0.180450         4.9103 
  44   0.0000       0.203863         5.5474 
  45   0.0000       0.210248         5.7211 
  46   0.0000       0.222188         6.0460 
  47   0.0000       0.241748         6.5783 
  48   0.0000       0.249352         6.7852 
  49   0.0000       0.255102         6.9417 
  50   0.0000       0.259656         7.0656 
  51   0.0000       0.266424         7.2498 
  52   0.0000       0.291074         7.9205 
  53   0.0000       0.304466         8.2849 
  54   0.0000       0.320688         8.7264 
  55   0.0000       0.341892         9.3034 
  56   0.0000       0.342776         9.3274 
  57   0.0000       0.358074         9.7437 
  58   0.0000       0.362017         9.8510 
  59   0.0000       0.365730         9.9520 
  60   0.0000       0.375333        10.2133 
  61   0.0000       0.397916        10.8278 
  62   0.0000       0.398150        10.8342 
  63   0.0000       0.404765        11.0142 
  64   0.0000       0.412589        11.2271 
  65   0.0000       0.428528        11.6608 
  66   0.0000       0.431302        11.7363 
  67   0.0000       0.432647        11.7729 
  68   0.0000       0.448215        12.1966 
  69   0.0000       0.466614        12.6972 
  70   0.0000       0.489248        13.3131 
  71   0.0000       0.491397        13.3716 
  72   0.0000       0.507653        13.8140 
  73   0.0000       0.511933        13.9304 
  74   0.0000       0.527363        14.3503 
  75   0.0000       0.555741        15.1225 
  76   0.0000       0.562181        15.2977 
  77   0.0000       0.565227        15.3806 
  78   0.0000       0.583322        15.8730 
  79   0.0000       0.585624        15.9356 
  80   0.0000       0.611596        16.6424 
  81   0.0000       0.621596        16.9145 
  82   0.0000       0.672708        18.3053 
  83   0.0000       0.675845        18.3907 
  84   0.0000       0.678635        18.4666 
  85   0.0000       0.679613        18.4932 
  86   0.0000       0.700553        19.0630 
  87   0.0000       0.708741        19.2858 
  88   0.0000       0.753762        20.5109 
  89   0.0000       0.759934        20.6789 
  90   0.0000       0.763632        20.7795 
  91   0.0000       0.796321        21.6690 
  92   0.0000       0.801678        21.8148 
  93   0.0000       0.819660        22.3041 
  94   0.0000       0.821863        22.3640 
  95   0.0000       0.854427        23.2502 
  96   0.0000       0.870716        23.6934 
  97   0.0000       0.884822        24.0772 
  98   0.0000       0.897431        24.4204 
  99   0.0000       0.915694        24.9173 
 100   0.0000       0.932957        25.3870 
 101   0.0000       0.947617        25.7860 
 102   0.0000       0.971444        26.4343 
 103   0.0000       0.975860        26.5545 
 104   0.0000       0.985077        26.8053 
 105   0.0000       1.005829        27.3700 
 106   0.0000       1.027609        27.9627 
 107   0.0000       1.038217        28.2513 
 108   0.0000       1.081030        29.4163 
 109   0.0000       1.082047        29.4440 
 110   0.0000       1.103604        30.0306 
 111   0.0000       1.166558        31.7436 
 112   0.0000       1.194918        32.5154 
 113   0.0000       1.229073        33.4448 
 114   0.0000       1.233057        33.5532 
 115   0.0000       1.241667        33.7875 
 116   0.0000       1.251501        34.0551 
 117   0.0000       1.258575        34.2476 
 118   0.0000       1.273662        34.6581 
 119   0.0000       1.306954        35.5640 
 120   0.0000       1.314107        35.7587 
 121   0.0000       1.327479        36.1225 
 122   0.0000       1.370453        37.2919 
 123   0.0000       1.396960        38.0132 
 124   0.0000       1.437060        39.1044 
 125   0.0000       1.438441        39.1420 
 126   0.0000       1.462841        39.8059 
 127   0.0000       1.481798        40.3218 
 128   0.0000       1.506904        41.0050 
 129   0.0000       1.511550        41.1314 
 130   0.0000       1.519787        41.3555 
 131   0.0000       1.552355        42.2417 
 132   0.0000       1.567660        42.6582 
 133   0.0000       1.579426        42.9784 
 134   0.0000       1.603319        43.6285 
 135   0.0000       1.609914        43.8080 
 136   0.0000       1.629309        44.3358 
 137   0.0000       1.631300        44.3899 
 138   0.0000       1.650821        44.9211 
 139   0.0000       1.670055        45.4445 
 140   0.0000       1.694042        46.0972 
 141   0.0000       1.698691        46.2237 
 142   0.0000       1.717715        46.7414 
 143   0.0000       1.744578        47.4724 
 144   0.0000       1.776406        48.3385 
 145   0.0000       1.784620        48.5620 
 146   0.0000       1.829599        49.7859 
 147   0.0000       1.870558        50.9005 
 148   0.0000       1.872786        50.9611 
 149   0.0000       1.878645        51.1205 
 150   0.0000       1.914124        52.0860 
 151   0.0000       1.938118        52.7389 
 152   0.0000       1.965397        53.4812 
 153   0.0000       1.979877        53.8752 
 154   0.0000       2.002870        54.5009 
 155   0.0000       2.031508        55.2801 
 156   0.0000       2.047058        55.7033 
 157   0.0000       2.071371        56.3649 
 158   0.0000       2.138093        58.1805 
 159   0.0000       2.168683        59.0129 
 160   0.0000       2.180465        59.3335 
 161   0.0000       2.226572        60.5881 
 162   0.0000       2.272940        61.8498 
 163   0.0000       2.275752        61.9264 
 164   0.0000       2.276208        61.9388 
 165   0.0000       2.311947        62.9113 
 166   0.0000       2.325703        63.2856 
 167   0.0000       2.358971        64.1909 
 168   0.0000       2.428691        66.0881 
 169   0.0000       2.430248        66.1304 
 170   0.0000       2.456352        66.8407 
 171   0.0000       2.482078        67.5408 
 172   0.0000       2.497255        67.9538 
 173   0.0000       2.531523        68.8862 
 174   0.0000       2.537921        69.0603 
 175   0.0000       2.551808        69.4382 
 176   0.0000       2.592192        70.5371 
 177   0.0000       2.595687        70.6322 
 178   0.0000       2.620309        71.3022 
 179   0.0000       2.647956        72.0545 
 180   0.0000       2.664018        72.4916 
 181   0.0000       2.665481        72.5314 
 182   0.0000       2.683957        73.0342 
 183   0.0000       2.696828        73.3844 
 184   0.0000       2.700927        73.4959 
 185   0.0000       2.723304        74.1049 
 186   0.0000       2.753872        74.9367 
 187   0.0000       2.770521        75.3897 
 188   0.0000       2.785336        75.7928 
 189   0.0000       2.792235        75.9806 
 190   0.0000       2.804163        76.3052 
 191   0.0000       2.829032        76.9819 
 192   0.0000       2.839511        77.2670 
 193   0.0000       2.845244        77.4230 
 194   0.0000       2.875256        78.2397 
 195   0.0000       2.878982        78.3411 
 196   0.0000       2.884399        78.4885 
 197   0.0000       2.903019        78.9952 
 198   0.0000       2.915896        79.3456 
 199   0.0000       2.928591        79.6910 
 200   0.0000       2.934167        79.8427 
 201   0.0000       2.952043        80.3292 
 202   0.0000       2.968321        80.7721 
 203   0.0000       2.989901        81.3593 
 204   0.0000       2.991237        81.3957 
 205   0.0000       3.023558        82.2752 
 206   0.0000       3.029288        82.4311 
 207   0.0000       3.067748        83.4777 
 208   0.0000       3.071434        83.5780 
 209   0.0000       3.078461        83.7692 
 210   0.0000       3.093896        84.1892 
 211   0.0000       3.103335        84.4460 
 212   0.0000       3.119826        84.8948 
 213   0.0000       3.145441        85.5918 
 214   0.0000       3.157759        85.9270 
 215   0.0000       3.158180        85.9384 
 216   0.0000       3.172625        86.3315 
 217   0.0000       3.191528        86.8459 
 218   0.0000       3.199317        87.0579 
 219   0.0000       3.235080        88.0310 
 220   0.0000       3.264228        88.8242 
 221   0.0000       3.265148        88.8492 
 222   0.0000       3.284493        89.3756 
 223   0.0000       3.284932        89.3875 
 224   0.0000       3.330815        90.6361 
 225   0.0000       3.341414        90.9245 
 226   0.0000       3.348779        91.1249 
 227   0.0000       3.369486        91.6884 
 228   0.0000       3.391896        92.2982 
 229   0.0000       3.416985        92.9809 
 230   0.0000       3.423889        93.1688 
 231   0.0000       3.430773        93.3561 
 232   0.0000       3.455187        94.0204 
 233   0.0000       3.474662        94.5504 
 234   0.0000       3.489289        94.9484 
 235   0.0000       3.499601        95.2290 
 236   0.0000       3.503367        95.3315 
 237   0.0000       3.517653        95.7202 
 238   0.0000       3.530019        96.0567 
 239   0.0000       3.578685        97.3810 
 240   0.0000       3.585070        97.5547 
 241   0.0000       3.592309        97.7517 
 242   0.0000       3.652632        99.3932 
 243   0.0000       3.656647        99.5024 
 244   0.0000       3.727792       101.4384 
 245   0.0000       3.778595       102.8208 
 246   0.0000       3.827138       104.1417 
 247   0.0000       3.873040       105.3908 
 248   0.0000       3.904059       106.2349 
 249   0.0000       3.922365       106.7330 
 250   0.0000       3.961946       107.8100 
 251   0.0000       3.975132       108.1689 
 252   0.0000       4.002175       108.9047 
 253   0.0000       4.057800       110.4184 
 254   0.0000       4.064704       110.6062 
 255   0.0000       4.085614       111.1752 
 256   0.0000       4.136076       112.5483 
 257   0.0000       4.150576       112.9429 
 258   0.0000       4.174190       113.5855 
 259   0.0000       4.213788       114.6630 
 260   0.0000       4.220808       114.8540 
 261   0.0000       4.242574       115.4463 
 262   0.0000       4.277955       116.4091 
 263   0.0000       4.309466       117.2665 
 264   0.0000       4.331852       117.8757 
 265   0.0000       4.341331       118.1336 
 266   0.0000       4.450276       121.0982 
 267   0.0000       4.564589       124.2088 
 268   0.0000       4.579560       124.6162 
 269   0.0000       4.598463       125.1305 
 270   0.0000       4.658841       126.7735 
 271   0.0000       4.669474       127.0629 
 272   0.0000       4.706154       128.0609 
 273   0.0000       4.713839       128.2701 
 274   0.0000       4.800959       130.6407 
 275   0.0000       4.840216       131.7090 
 276   0.0000       4.913699       133.7086 
 277   0.0000       4.964198       135.0827 
 278   0.0000       4.989076       135.7596 
 279   0.0000       5.063729       137.7911 
 280   0.0000       5.141779       139.9149 
 281   0.0000       5.188232       141.1790 
 282   0.0000       5.230309       142.3240 
 283   0.0000       5.258369       143.0875 
 284   0.0000       5.273658       143.5035 
 285   0.0000       5.321976       144.8183 
 286   0.0000       5.495742       149.5467 
 287   0.0000       5.549186       151.0010 
 288   0.0000       5.606208       152.5527 
 289   0.0000       5.681546       154.6027 
 290   0.0000       5.698373       155.0606 
 291   0.0000       5.806547       158.0042 
 292   0.0000       6.093885       165.8231 
 293   0.0000       6.403645       174.2520 
 294   0.0000       6.456176       175.6815 
 295   0.0000       6.660543       181.2426 
 296   0.0000       6.673449       181.5938 
 297   0.0000       6.875662       187.0963 
 298   0.0000       7.127009       193.9358 
 299   0.0000       7.127239       193.9420 
 300   0.0000      22.338310       607.8563 
 301   0.0000      22.669600       616.8712 
 302   0.0000      22.721556       618.2850 
 303   0.0000      22.847195       621.7038 
 304   0.0000      22.854323       621.8977 
 305   0.0000      23.147408       629.8730 
 306   0.0000      23.553021       640.9103 
 307   0.0000      23.865127       649.4031 
 308   0.0000      44.077279      1199.4037 

                    ********************************
                    * MULLIKEN POPULATION ANALYSIS *
                    ********************************

-----------------------
MULLIKEN ATOMIC CHARGES
-----------------------
   0 C :   -0.057200
   1 C :   -0.216700
   2 C :   -0.216386
   3 H :    0.136189
   4 H :    0.136266
   5 C :   -0.329973
   6 C :   -0.330240
   7 H :    0.102934
   8 H :    0.102945
   9 C :    0.308201
  10 O :   -0.633654
  11 C :    0.054510
  12 C :   -0.270905
  13 H :    0.214012
Sum of atomic charges:   -1.0000000

--------------------------------
MULLIKEN REDUCED ORBITAL CHARGES
--------------------------------
  0 C s       :     3.366754  s :     3.366754
      pz      :     0.655140  p :     2.538060
      px      :     1.071324
      py      :     0.811596
      dz2     :     0.036449  d :     0.143052
      dxz     :     0.022922
      dyz     :     0.045212
      dx2y2   :     0.016059
      dxy     :     0.022411
      f0      :     0.001368  f :     0.009333
      f+1     :     0.000877
      f-1     :     0.002900
      f+2     :     0.000876
      f-2     :     0.001097
      f+3     :     0.001378
      f-3     :     0.000837
  1 C s       :     3.211677  s :     3.211677
      pz      :     0.965391  p :     2.895858
      px      :     0.964675
      py      :     0.965792
      dz2     :     0.018603  d :     0.101931
      dxz     :     0.025280
      dyz     :     0.037426
      dx2y2   :     0.009321
      dxy     :     0.011301
      f0      :     0.000754  f :     0.007234
      f+1     :     0.001501
      f-1     :     0.002136
      f+2     :     0.000771
      f-2     :     0.000487
      f+3     :     0.000936
      f-3     :     0.000649
  2 C s       :     3.211506  s :     3.211506
      pz      :     0.960156  p :     2.895778
      px      :     0.964587
      py      :     0.971035
      dz2     :     0.020029  d :     0.101870
      dxz     :     0.026928
      dyz     :     0.035665
      dx2y2   :     0.009601
      dxy     :     0.009647
      f0      :     0.000833  f :     0.007232
      f+1     :     0.001483
      f-1     :     0.002081
      f+2     :     0.000739
      f-2     :     0.000616
      f+3     :     0.000824
      f-3     :     0.000656
  3 H s       :     0.841984  s :     0.841984
      pz      :     0.006373  p :     0.021827
      px      :     0.004638
      py      :     0.010816
  4 H s       :     0.841905  s :     0.841905
      pz      :     0.005778  p :     0.021829
      px      :     0.004639
      py      :     0.011412
  5 C s       :     3.271244  s :     3.271244
      pz      :     0.924531  p :     2.971756
      px      :     1.083215
      py      :     0.964011
      dz2     :     0.017447  d :     0.079935
      dxz     :     0.017123
      dyz     :     0.030696
      dx2y2   :     0.008436
      dxy     :     0.006233
      f0      :     0.000990  f :     0.007037
      f+1     :     0.001473
      f-1     :     0.002098
      f+2     :     0.000785
      f-2     :     0.000423
      f+3     :     0.000655
      f-3     :     0.000614
  6 C s       :     3.271272  s :     3.271272
      pz      :     0.926245  p :     2.971983
      px      :     1.083306
      py      :     0.962432
      dz2     :     0.017128  d :     0.079947
      dxz     :     0.016466
      dyz     :     0.031043
      dx2y2   :     0.008425
      dxy     :     0.006885
      f0      :     0.000905  f :     0.007038
      f+1     :     0.001456
      f-1     :     0.002155
      f+2     :     0.000810
      f-2     :     0.000363
      f+3     :     0.000732
      f-3     :     0.000617
  7 H s       :     0.874750  s :     0.874750
      pz      :     0.005539  p :     0.022315
      px      :     0.005525
      py      :     0.011251
  8 H s       :     0.874741  s :     0.874741
      pz      :     0.006113  p :     0.022314
      px      :     0.005526
      py      :     0.010675
  9 C s       :     2.912091  s :     2.912091
      pz      :     0.846763  p :     2.591325
      px      :     0.828661
      py      :     0.915901
      dz2     :     0.032622  d :     0.171495
      dxz     :     0.057113
      dyz     :     0.052053
      dx2y2   :     0.012410
      dxy     :     0.017297
      f0      :     0.002796  f :     0.016888
      f+1     :     0.003408
      f-1     :     0.007069
      f+2     :     0.000773
      f-2     :     0.001034
      f+3     :     0.001209
      f-3     :     0.000600
 10 O s       :     3.783827  s :     3.783827
      pz      :     1.370472  p :     4.820779
      px      :     1.598018
      py      :     1.852290
      dz2     :     0.012132  d :     0.027438
      dxz     :     0.008340
      dyz     :     0.006802
      dx2y2   :     0.000104
      dxy     :     0.000060
      f0      :     0.000659  f :     0.001610
      f+1     :     0.000491
      f-1     :     0.000441
      f+2     :     0.000008
      f-2     :     0.000006
      f+3     :     0.000002
      f-3     :     0.000002
 11 C s       :     3.206154  s :     3.206154
      pz      :     0.676758  p :     2.621413
      px      :     0.964786
      py      :     0.979869
      dz2     :     0.018454  d :     0.107655
      dxz     :     0.051175
      dyz     :     0.037164
      dx2y2   :     0.000511
      dxy     :     0.000351
      f0      :     0.001847  f :     0.010268
      f+1     :     0.004191
      f-1     :     0.004146
      f+2     :     0.000034
      f-2     :     0.000041
      f+3     :     0.000002
      f-3     :     0.000007
 12 C s       :     3.179782  s :     3.179782
      pz      :     0.997513  p :     3.074976
      px      :     1.083124
      py      :     0.994339
      dz2     :    -0.002592  d :     0.009532
      dxz     :     0.006423
      dyz     :     0.005679
      dx2y2   :     0.000007
      dxy     :     0.000014
      f0      :     0.001679  f :     0.006614
      f+1     :     0.002397
      f-1     :     0.002524
      f+2     :     0.000007
      f-2     :     0.000007
      f+3     :     0.000000
      f-3     :     0.000000
 13 H s       :     0.762898  s :     0.762898
      pz      :     0.014150  p :     0.023089
      px      :     0.004918
      py      :     0.004021


                     *******************************
                     * LOEWDIN POPULATION ANALYSIS *
                     *******************************

----------------------
LOEWDIN ATOMIC CHARGES
----------------------
   0 C :   -0.216477
   1 C :   -0.134237
   2 C :   -0.134210
   3 H :    0.151741
   4 H :    0.151752
   5 C :   -0.180549
   6 C :   -0.180631
   7 H :    0.139243
   8 H :    0.139234
   9 C :   -0.426623
  10 O :   -0.165601
  11 C :   -0.113879
  12 C :   -0.163094
  13 H :    0.133333

-------------------------------
LOEWDIN REDUCED ORBITAL CHARGES
-------------------------------
  0 C s       :     2.692894  s :     2.692894
      pz      :     0.966434  p :     2.940557
      px      :     0.942434
      py      :     1.031689
      dz2     :     0.147212  d :     0.525469
      dxz     :     0.068429
      dyz     :     0.162948
      dx2y2   :     0.069715
      dxy     :     0.077165
      f0      :     0.007899  f :     0.057556
      f+1     :     0.005157
      f-1     :     0.021345
      f+2     :     0.006354
      f-2     :     0.007561
      f+3     :     0.003889
      f-3     :     0.005352
  1 C s       :     2.759945  s :     2.759945
      pz      :     1.049276  p :     2.919964
      px      :     0.879154
      py      :     0.991534
      dz2     :     0.095576  d :     0.411201
      dxz     :     0.082350
      dyz     :     0.153886
      dx2y2   :     0.043262
      dxy     :     0.036128
      f0      :     0.007329  f :     0.043127
      f+1     :     0.006607
      f-1     :     0.014283
      f+2     :     0.004388
      f-2     :     0.003100
      f+3     :     0.003708
      f-3     :     0.003713
  2 C s       :     2.759965  s :     2.759965
      pz      :     1.051774  p :     2.919948
      px      :     0.879121
      py      :     0.989053
      dz2     :     0.101851  d :     0.411176
      dxz     :     0.088070
      dyz     :     0.146709
      dx2y2   :     0.044135
      dxy     :     0.030412
      f0      :     0.007520  f :     0.043121
      f+1     :     0.006224
      f-1     :     0.014256
      f+2     :     0.004400
      f-2     :     0.004067
      f+3     :     0.003123
      f-3     :     0.003531
  3 H s       :     0.788803  s :     0.788803
      pz      :     0.017549  p :     0.059456
      px      :     0.013348
      py      :     0.028559
  4 H s       :     0.788789  s :     0.788789
      pz      :     0.016073  p :     0.059459
      px      :     0.013348
      py      :     0.030038
  5 C s       :     2.774527  s :     2.774527
      pz      :     1.053173  p :     3.003830
      px      :     0.963263
      py      :     0.987394
      dz2     :     0.097894  d :     0.362526
      dxz     :     0.057646
      dyz     :     0.144012
      dx2y2   :     0.043380
      dxy     :     0.019593
      f0      :     0.007715  f :     0.039667
      f+1     :     0.005768
      f-1     :     0.013710
      f+2     :     0.004506
      f-2     :     0.002748
      f+3     :     0.001929
      f-3     :     0.003291
  6 C s       :     2.774527  s :     2.774527
      pz      :     1.050094  p :     3.003900
      px      :     0.963304
      py      :     0.990502
      dz2     :     0.092497  d :     0.362535
      dxz     :     0.054615
      dyz     :     0.149865
      dx2y2   :     0.042937
      dxy     :     0.022621
      f0      :     0.007447  f :     0.039669
      f+1     :     0.005883
      f-1     :     0.013812
      f+2     :     0.004483
      f-2     :     0.002256
      f+3     :     0.002307
      f-3     :     0.003481
  7 H s       :     0.800075  s :     0.800075
      pz      :     0.015482  p :     0.060682
      px      :     0.015555
      py      :     0.029645
  8 H s       :     0.800085  s :     0.800085
      pz      :     0.016870  p :     0.060681
      px      :     0.015557
      py      :     0.028254
  9 C s       :     2.732520  s :     2.732520
      pz      :     0.950238  p :     2.785200
      px      :     0.787053
      py      :     1.047908
      dz2     :     0.204851  d :     0.801388
      dxz     :     0.180214
      dyz     :     0.292723
      dx2y2   :     0.060227
      dxy     :     0.063372
      f0      :     0.020586  f :     0.107516
      f+1     :     0.020589
      f-1     :     0.043737
      f+2     :     0.005690
      f-2     :     0.006704
      f+3     :     0.005264
      f-3     :     0.004945
 10 O s       :     3.426575  s :     3.426575
      pz      :     1.469874  p :     4.672129
      px      :     1.501511
      py      :     1.700743
      dz2     :     0.027651  d :     0.061859
      dxz     :     0.014282
      dyz     :     0.019734
      dx2y2   :     0.000123
      dxy     :     0.000069
      f0      :     0.002164  f :     0.005038
      f+1     :     0.001125
      f-1     :     0.001716
      f+2     :     0.000014
      f-2     :     0.000015
      f+3     :     0.000002
      f-3     :     0.000003
 11 C s       :     2.795033  s :     2.795033
      pz      :     1.145662  p :     2.897270
      px      :     0.881971
      py      :     0.869638
      dz2     :     0.094005  d :     0.377242
      dxz     :     0.158164
      dyz     :     0.122921
      dx2y2   :     0.001415
      dxy     :     0.000739
      f0      :     0.020386  f :     0.044333
      f+1     :     0.011670
      f-1     :     0.012074
      f+2     :     0.000095
      f-2     :     0.000088
      f+3     :     0.000002
      f-3     :     0.000018
 12 C s       :     2.896420  s :     2.896420
      pz      :     1.128174  p :     3.100001
      px      :     1.020530
      py      :     0.951297
      dz2     :     0.061833  d :     0.131044
      dxz     :     0.035501
      dyz     :     0.033619
      dx2y2   :     0.000043
      dxy     :     0.000048
      f0      :     0.017552  f :     0.035629
      f+1     :     0.008839
      f-1     :     0.009186
      f+2     :     0.000026
      f-2     :     0.000026
      f+3     :     0.000000
      f-3     :     0.000000
 13 H s       :     0.794313  s :     0.794313
      pz      :     0.043363  p :     0.072354
      px      :     0.015781
      py      :     0.013210


                      *****************************
                      * MAYER POPULATION ANALYSIS *
                      *****************************

  NA   - Mulliken gross atomic population
  ZA   - Total nuclear charge
  QA   - Mulliken gross atomic charge
  VA   - Mayer's total valence
  BVA  - Mayer's bonded valence
  FA   - Mayer's free valence

  ATOM       NA         ZA         QA         VA         BVA        FA
  0 C      6.0572     6.0000    -0.0572     3.6571     3.6571     0.0000
  1 C      6.2167     6.0000    -0.2167     3.8558     3.8558     0.0000
  2 C      6.2164     6.0000    -0.2164     3.8553     3.8553     0.0000
  3 H      0.8638     1.0000     0.1362     0.9751     0.9751    -0.0000
  4 H      0.8637     1.0000     0.1363     0.9750     0.9750     0.0000
  5 C      6.3300     6.0000    -0.3300     3.7602     3.7602    -0.0000
  6 C      6.3302     6.0000    -0.3302     3.7602     3.7602     0.0000
  7 H      0.8971     1.0000     0.1029     0.9959     0.9959    -0.0000
  8 H      0.8971     1.0000     0.1029     0.9958     0.9958     0.0000
  9 C      5.6918     6.0000     0.3082     4.1412     4.1412     0.0000
 10 O      8.6337     8.0000    -0.6337     1.8556     1.8556     0.0000
 11 C      5.9455     6.0000     0.0545     3.7048     3.7048     0.0000
 12 C      6.2709     6.0000    -0.2709     3.6406     3.6406     0.0000
 13 H      0.7860     1.0000     0.2140     0.9632     0.9632     0.0000

  Mayer bond orders larger than 0.100000
B(  0-C ,  1-C ) :   1.2966 B(  0-C ,  2-C ) :   1.2966 B(  0-C , 11-C ) :   1.1327 
B(  0-C , 12-C ) :  -0.1396 B(  1-C ,  3-H ) :   0.9707 B(  1-C ,  5-C ) :   1.4707 
B(  2-C ,  4-H ) :   0.9707 B(  2-C ,  6-C ) :   1.4703 B(  5-C ,  7-H ) :   0.9898 
B(  5-C ,  9-C ) :   1.1853 B(  6-C ,  8-H ) :   0.9898 B(  6-C ,  9-C ) :   1.1853 
B(  9-C , 10-O ) :   1.7049 B( 11-C , 12-C ) :   2.6561 B( 12-C , 13-H ) :   0.9740 


-------
TIMINGS
-------

Total SCF time: 0 days 0 hours 0 min 24 sec 

Total time                  ....      24.050 sec
Sum of individual times     ....      22.889 sec  ( 95.2%)

Fock matrix formation       ....      20.769 sec  ( 86.4%)
  Split-RI-J                ....       2.131 sec  ( 10.3% of F)
  Chain of spheres X        ....       9.666 sec  ( 46.5% of F)
  XC integration            ....       4.006 sec  ( 19.3% of F)
    Basis function eval.    ....       0.373 sec  (  9.3% of XC)
    Density eval.           ....       0.358 sec  (  8.9% of XC)
    XC-Functional eval.     ....       0.067 sec  (  1.7% of XC)
    XC-Potential eval.      ....       0.430 sec  ( 10.7% of XC)
Diagonalization             ....       0.323 sec  (  1.3%)
Density matrix formation    ....       0.027 sec  (  0.1%)
Population analysis         ....       0.074 sec  (  0.3%)
Initial guess               ....       0.201 sec  (  0.8%)
Orbital Transformation      ....       0.000 sec  (  0.0%)
Orbital Orthonormalization  ....       0.000 sec  (  0.0%)
DIIS solution               ....       0.213 sec  (  0.9%)
SOSCF solution              ....       0.244 sec  (  1.0%)
Grid generation             ....       1.039 sec  (  4.3%)

Maximum memory used throughout the entire SCF-calculation: 76.7 MB


-------------------------------------------------------------------------------
                          DFT DISPERSION CORRECTION                            
                                                                               
                              DFTD3 V3.1  Rev 1                                
                          USING Becke-Johnson damping                          
-------------------------------------------------------------------------------
The PBE0 functional is recognized
Active option DFTDOPT                   ...         4   

molecular C6(AA) [au] = 2837.747938 


            DFT-D V3
 parameters
 s6 scaling factor         :     1.0000 
 a1 scaling factor         :     0.4145 
 s8 scaling factor         :     1.2177 
 a2 scaling factor         :     4.8593 
 ad hoc parameters k1-k3   :    16.0000     1.3333    -4.0000 

 Edisp/kcal,au: -8.072259395988  -0.012863962806 
 E6   /kcal   :  -4.947719602 
 E8   /kcal   :  -3.124539794 
 % E8         :  38.707128207 

-------------------------   ----------------
Dispersion correction           -0.012863963
-------------------------   ----------------


-------------------------   --------------------
FINAL SINGLE POINT ENERGY      -382.855311714796
-------------------------   --------------------



           ************************************************************
           *        Program running with 24 parallel MPI-processes    *
           *              working on a common directory               *
           ************************************************************
------------------------------------------------------------------------------
                         ORCA SCF GRADIENT CALCULATION
------------------------------------------------------------------------------

 ... reading COSX grid (gridx3)
Gradient of the Kohn-Sham DFT energy:
Kohn-Sham wavefunction type      ... RKS
Hartree-Fock exchange scaling    ...    0.250
Number of operators              ...    1
Number of atoms                  ...   14
Basis set dimensions             ...  309
Integral neglect threshold       ... 2.5e-11
Integral primitive cutoff        ... 2.5e-12
SHARK Integral package           ... ON

Nuc. rep. gradient       (SHARK) ... done (  0.0 sec)
HCore & Overlap gradient (SHARK) ... done (  0.0 sec)
RI-J gradient            (SHARK) ... done (  0.4 sec)
COSX-gradient                    ... done (  2.2 sec)
Exchange-correlation gradient    ... done
Dispersion correction            ... done

------------------
CARTESIAN GRADIENT
------------------

   1   C   :    0.000000116   -0.000028000    0.000110755
   2   C   :   -0.000000172   -0.000131451    0.000061596
   3   C   :   -0.000000201    0.000165995   -0.000015830
   4   H   :    0.000000018    0.000037014   -0.000037474
   5   H   :    0.000000026   -0.000043693   -0.000019931
   6   C   :    0.000000089   -0.000114757   -0.000219410
   7   C   :    0.000000061    0.000190196   -0.000039698
   8   H   :   -0.000000021    0.000010001    0.000077282
   9   H   :    0.000000008   -0.000062232   -0.000020736
  10   C   :    0.000000073   -0.000031232    0.000042660
  11   O   :   -0.000000052    0.000009518   -0.000214831
  12   C   :    0.000000082    0.000030973    0.000148624
  13   C   :   -0.000000029   -0.000016152    0.000029283
  14   H   :    0.000000000    0.000013329   -0.000025266

Difference to translation invariance:
           :   -0.0000000001    0.0000295104   -0.0001229775

Difference to rotation invariance:
           :    0.0003057184   -0.0000000504    0.0000000193

Norm of the cartesian gradient     ...    0.0005004667
RMS gradient                       ...    0.0000772237
MAX gradient                       ...    0.0002194102

-------
TIMINGS
-------

Total SCF gradient time            ...        4.550 sec

One electron gradient       ....       0.038 sec  (  0.8%)
RI-J Coulomb gradient       ....       0.380 sec  (  8.3%)
COSX gradient               ....       2.185 sec  ( 48.0%)
XC gradient                 ....       0.763 sec  ( 16.8%)
CPCM gradient               ....       0.187 sec  (  4.1%)
   A-Matrix (El+Nuc)        ....       0.060 sec  (  1.3%)
   Potential                ....       0.128 sec  (  2.8%)

Maximum memory used throughout the entire SCFGRAD-calculation: 49.9 MB
------------------------------------------------------------------------------
                         ORCA GEOMETRY RELAXATION STEP
------------------------------------------------------------------------------

Reading the OPT-File                    .... done
Getting information on internals        .... done
Copying old internal coords+grads       .... done
Making the new internal coordinates     .... (new redundants).... done
Validating the new internal coordinates .... (new redundants).... done
Calculating the B-matrix                .... done
Calculating the G,G- and P matrices     .... done
Transforming gradient to internals      .... done
Projecting the internal gradient        .... done
Number of atoms                         ....  14
Number of internal coordinates          ....  60
Current Energy                          ....  -382.855311715 Eh
Current gradient norm                   ....     0.000500467 Eh/bohr
Maximum allowed component of the step   ....  0.200
Current trust radius                    ....  0.300
Evaluating the initial hessian          ....  (Almloef) done
Projecting the Hessian                  .... done
Forming the augmented Hessian           .... done
Diagonalizing the augmented Hessian     .... done
Last element of RFO vector              ....  0.999999571
Lowest eigenvalues of augmented Hessian:
 -0.000000464  0.019443831  0.021102331  0.023874201  0.024109089
Length of the computed step             ....  0.000926457
The final length of the internal step   ....  0.000926457
Converting the step to cartesian space:
 Initial RMS(Int)=    0.0001196051
Transforming coordinates:
 Iter   0:  RMS(Cart)=    0.0002497222 RMS(Int)=    1.4049627579
 Iter   1:  RMS(Cart)=    0.0000018973 RMS(Int)=    0.0000009390
 Iter   2:  RMS(Cart)=    0.0000009625 RMS(Int)=    0.0000004764
 Iter   3:  RMS(Cart)=    0.0000004883 RMS(Int)=    0.0000002417
 Iter   4:  RMS(Cart)=    0.0000002477 RMS(Int)=    0.0000001226
 Iter   5:  RMS(Cart)=    0.0000001257 RMS(Int)=    0.0000000622
 Iter   6:  RMS(Cart)=    0.0000000638 RMS(Int)=    0.0000000316
done
Storing new coordinates                 .... done

                                .--------------------.
          ----------------------|Geometry convergence|-------------------------
          Item                value                   Tolerance       Converged
          ---------------------------------------------------------------------
          RMS gradient        0.0000666246            0.0000300000      NO
          MAX gradient        0.0002056590            0.0001000000      NO
          RMS step            0.0001196051            0.0006000000      YES
          MAX step            0.0003309835            0.0010000000      YES
          ........................................................
          Max(Bonds)      0.0002      Max(Angles)    0.01
          Max(Dihed)        0.00      Max(Improp)    0.00
[...]
      7       0.000000  -0.204360   0.037547  -0.043521  -0.024365  -0.059433
      8       0.000000  -0.034827   0.043154   0.033793   0.060678   0.069514
      9      -0.651359  -0.000004   0.000001   0.000001  -0.000000  -0.000002
     10      -0.000000   0.321556  -0.191724   0.308851  -0.182178   0.130092
     11      -0.000000   0.139850  -0.419802   0.450417  -0.255146   0.258310
     12       0.459392  -0.000002  -0.000001   0.000001  -0.000001   0.000001
     13       0.000001  -0.312082  -0.158578  -0.280346   0.158681   0.110621
     14       0.000000   0.164309   0.428093   0.479499  -0.254933  -0.263753
     15      -0.080167  -0.000001   0.000000   0.000000  -0.000000  -0.000000
     16       0.000000  -0.173503   0.053219   0.007342  -0.094814  -0.072181
     17       0.000000  -0.009593   0.044612  -0.027782  -0.068123   0.005620
     18       0.061034  -0.000000  -0.000000   0.000000  -0.000001   0.000000
     19       0.000000   0.172896   0.048898  -0.008954   0.091073  -0.071619
     20      -0.000000  -0.021616  -0.048046  -0.028254  -0.076126  -0.002300
     21       0.462897   0.000003   0.000000  -0.000001  -0.000000   0.000001
     22       0.000001  -0.384683  -0.177514   0.196296   0.128618  -0.332848
     23      -0.000000   0.394936   0.498335  -0.390231  -0.517832   0.493163
     24      -0.349899   0.000000   0.000000  -0.000000   0.000000  -0.000001
     25      -0.000000   0.409003  -0.209128  -0.222665  -0.160114  -0.369728
     26      -0.000001   0.362943  -0.478600  -0.376906  -0.504772  -0.477641
     27       0.000833   0.000001   0.000000  -0.000000   0.000001  -0.000000
     28      -0.000001  -0.000781  -0.065602  -0.000182  -0.002635   0.290018
     29       0.000000  -0.015956   0.002328   0.018251  -0.004997  -0.009848
     30      -0.000648  -0.000000  -0.000000  -0.000000  -0.000000  -0.000000
     31       0.000000   0.001038   0.010037  -0.000535   0.000298  -0.031148
     32      -0.000000   0.027560   0.000037  -0.019733  -0.000528   0.001099
     33       0.003137  -0.000001  -0.000000  -0.000000  -0.000000   0.000000
     34       0.000000  -0.000264   0.015887   0.000317  -0.001933  -0.004414
     35       0.000000  -0.009220  -0.000382   0.009751  -0.052264  -0.000035
     36      -0.000330   0.000000  -0.000000   0.000000   0.000000   0.000000
     37       0.000000  -0.000604  -0.001784   0.000468  -0.005331   0.001703
     38       0.000000  -0.018831   0.000445   0.014696  -0.156937  -0.000837
     39      -0.002088   0.000001  -0.000000   0.000001  -0.000001   0.000000
     40      -0.000001  -0.000740  -0.013307   0.000533  -0.006353   0.005661
     41       0.000000  -0.021052   0.000887   0.017655  -0.187255  -0.001124
                 30         31         32         33         34         35    
      0      -0.000000   0.000000  -0.000000  -0.000000  -0.000000  -0.000000
      1      -0.241292  -0.005483  -0.103807   0.353417  -0.002266   0.007610
      2       0.008909  -0.129519   0.003393  -0.010282  -0.177691   0.207825
      3      -0.000000  -0.000001  -0.000000  -0.000000   0.000002   0.000001
      4       0.044635   0.103670   0.013776  -0.242901   0.087187  -0.105444
      5       0.007131  -0.025143  -0.264030  -0.147503   0.097304  -0.317114
      6       0.000000  -0.000001   0.000001   0.000000   0.000001   0.000000
      7       0.043963  -0.104462   0.032460  -0.230105  -0.085124   0.082503
      8      -0.009377  -0.015588   0.262295   0.162236   0.104410  -0.324042
      9       0.000001  -0.000001   0.000002   0.000001   0.000001   0.000000
     10       0.366055  -0.146821   0.328064   0.096631  -0.174578   0.298514
     11       0.516813  -0.464958   0.192768   0.417661  -0.339319   0.327635
     12      -0.000001  -0.000001  -0.000001  -0.000001   0.000000   0.000001
     13       0.327316   0.117000   0.312586   0.063182   0.148813  -0.274848
     14      -0.537011  -0.475684  -0.212527  -0.413701  -0.356717   0.346181
     15       0.000000   0.000002   0.000000   0.000000  -0.000003  -0.000001
     16       0.076743  -0.086774  -0.036984   0.190535  -0.067512  -0.018317
     17      -0.067735   0.151592   0.303601  -0.052572   0.099028   0.287858
     18      -0.000000   0.000002  -0.000000  -0.000000  -0.000003  -0.000001
     19       0.081159   0.096534  -0.058196   0.191744   0.078991   0.039073
     20       0.061268   0.142926  -0.299999   0.036007   0.097578   0.287334
     21      -0.000000  -0.000000  -0.000000   0.000000  -0.000000   0.000000
     22      -0.069342   0.191327   0.304434   0.014324   0.168633   0.226386
     23       0.225652  -0.358217  -0.303910   0.310354  -0.404105  -0.147001
     24       0.000000  -0.000002   0.000000   0.000000   0.000000   0.000000
     25      -0.086989  -0.215785   0.326019  -0.002726  -0.200534  -0.238238
     26      -0.224660  -0.345874   0.284084  -0.302184  -0.402744  -0.134231
     27       0.000000  -0.000001   0.000000   0.000000   0.000002   0.000001
     28      -0.069772   0.007674  -0.023267  -0.297786  -0.016855  -0.005663
     29       0.002422   0.221744  -0.002603   0.016239  -0.408656  -0.158095
     30       0.000000  -0.000000   0.000000  -0.000000   0.000000   0.000000
     31      -0.002610  -0.006521   0.032286   0.028689   0.006823   0.000400
     32       0.000108  -0.195680   0.001129  -0.003890   0.199226   0.014713
     33      -0.000000  -0.000001  -0.000000  -0.000000   0.000002   0.000001
     34       0.028574   0.000618   0.029169  -0.023392  -0.000559  -0.000666
     35      -0.001003   0.010017  -0.001066   0.000885  -0.006903  -0.017448
     36      -0.000000   0.000000  -0.000000  -0.000000  -0.000000  -0.000000
     37      -0.003333   0.001334  -0.001178   0.003627   0.001680  -0.000553
     38      -0.000193   0.038518   0.000160  -0.000706   0.050165  -0.016680
     39      -0.000000   0.000010  -0.000000   0.000000  -0.000017  -0.000006
     40      -0.027055   0.001551  -0.019698   0.026935   0.002475  -0.000783
     41       0.000550   0.049274   0.000810  -0.001668   0.065743  -0.026018
                 36         37         38         39         40         41    
      0       0.000000   0.000000  -0.000000   0.000000  -0.000000  -0.000000
      1       0.003530   0.000433   0.000569  -0.003241  -0.000015   0.000016
      2       0.103798   0.001812  -0.001141   0.000021  -0.003079   0.000515
      3      -0.000000   0.000000   0.000000   0.000000   0.000000   0.000000
      4       0.005677  -0.044257  -0.009300   0.042485   0.039574   0.000716
      5       0.014982   0.024619   0.006171  -0.028585  -0.025945   0.000548
      6       0.000000   0.000000  -0.000000  -0.000000   0.000000   0.000000
      7      -0.004579   0.012114  -0.045302   0.041909  -0.043795  -0.000673
      8       0.015342   0.004804  -0.021626   0.024155  -0.024559   0.000598
      9      -0.000000   0.000000  -0.000000  -0.000000  -0.000000   0.000000
     10      -0.003820   0.512203   0.112391  -0.489074  -0.451503  -0.002347
     11       0.002598  -0.313830  -0.069491   0.304896   0.280346   0.001282
     12      -0.000000  -0.000000   0.000000   0.000000  -0.000000  -0.000000
     13       0.004203  -0.137001   0.528146  -0.481066   0.498792   0.002425
     14       0.002073  -0.070733   0.275053  -0.255111   0.263345   0.001095
     15      -0.000000  -0.000000   0.000000  -0.000000  -0.000000   0.000000
     16       0.002333   0.057600   0.014696   0.033826   0.033233   0.000250
     17      -0.016261   0.028891   0.007523   0.020280   0.019203  -0.000410
     18      -0.000000  -0.000000   0.000000   0.000000  -0.000000   0.000000
     19      -0.003472  -0.012574   0.055836   0.030391  -0.033680  -0.000280
     20      -0.016050   0.007308  -0.033127  -0.021268   0.022764  -0.000390
     21       0.000001   0.000000   0.000000   0.000000   0.000000  -0.000000
     22      -0.004988  -0.675027  -0.169432  -0.388762  -0.380794  -0.001281
     23      -0.000208  -0.349524  -0.089038  -0.204353  -0.198879  -0.000853
     24       0.000001  -0.000000  -0.000000  -0.000000   0.000000   0.000000
     25       0.004858   0.149544  -0.652415  -0.351280   0.387570   0.001231
     26      -0.000618  -0.089920   0.398157   0.217107  -0.238130  -0.000957
     27       0.000000   0.000000  -0.000000  -0.000000   0.000000  -0.000000
     28       0.000614  -0.000647  -0.001244  -0.002411   0.000198   0.000022
     29       0.016826   0.002357  -0.001389   0.000193   0.003576   0.000611
     30       0.000000   0.000000  -0.000000  -0.000000   0.000000  -0.000000
     31      -0.000317  -0.000015  -0.000001   0.000225  -0.000045  -0.000016
     32      -0.008945  -0.000298   0.000185  -0.000038  -0.001053  -0.000418
     33      -0.000001  -0.000000   0.000000   0.000000   0.000000   0.000000
     34      -0.018882  -0.000054  -0.000082   0.000324  -0.000010  -0.000979
     35      -0.559336  -0.000101   0.000069  -0.000011   0.000016  -0.029146
     36       0.000001   0.000000  -0.000000   0.000000  -0.000000  -0.000000
     37       0.013153   0.000018   0.000038  -0.000039   0.000005   0.003757
     38       0.391758  -0.000067   0.000039   0.000004   0.000074   0.111499
     39       0.000001  -0.000000   0.000000   0.000000  -0.000000   0.000001
     40       0.024164   0.000006   0.000074  -0.000231   0.000165  -0.033482
     41       0.721291  -0.000852   0.000495   0.000148   0.004771  -0.992754


-----------
IR SPECTRUM
-----------

 Mode   freq       eps      Int      T**2         TX        TY        TZ
       cm**-1   L/(mol*cm) km/mol    a.u.
----------------------------------------------------------------------------
  6:     96.49   0.000603    3.05  0.001949  ( 0.044147 -0.000001 -0.000006)
  7:    153.20   0.000013    0.07  0.000026  (-0.000000  0.005131  0.000111)
  8:    232.56   0.001953    9.87  0.002621  ( 0.051194  0.000002  0.000023)
  9:    422.70   0.005520   27.90  0.004075  ( 0.000004  0.002345  0.063795)
 10:    422.74   0.000001    0.00  0.000001  ( 0.000362 -0.000025 -0.000611)
 11:    441.91   0.003260   16.47  0.002302  ( 0.000000  0.047966 -0.001075)
 12:    478.02   0.004757   24.04  0.003106  ( 0.055728 -0.000001  0.000003)
 13:    533.39   0.018324   92.60  0.010721  ( 0.103541  0.000001  0.000017)
 14:    541.74   0.001244    6.29  0.000717  ( 0.000000  0.026748 -0.001066)
 15:    546.93   0.005401   27.29  0.003082  (-0.055513 -0.000000  0.000001)
 16:    653.46   0.001707    8.63  0.000815  ( 0.000000 -0.028537  0.000994)
 17:    691.38   0.013175   66.58  0.005947  ( 0.000000 -0.077082  0.002280)
 18:    727.18   0.011519   58.21  0.004943  (-0.000001  0.002287  0.070272)
 19:    748.53   0.001047    5.29  0.000437  (-0.020893 -0.000001 -0.000002)
 20:    807.75   0.000000    0.00  0.000000  (-0.000258 -0.000001  0.000002)
 21:    846.27   0.000266    1.34  0.000098  (-0.000005 -0.000449 -0.009896)
 22:    857.27   0.022768  115.06  0.008288  ( 0.091038 -0.000001 -0.000007)
 23:    964.33   0.000499    2.52  0.000162  (-0.012713 -0.000001 -0.000001)
 24:    965.90   0.000015    0.07  0.000005  (-0.002181  0.000002 -0.000000)
 25:    999.88   0.003477   17.57  0.001085  ( 0.000000 -0.000865 -0.032931)
 26:   1104.35   0.005786   29.24  0.001635  ( 0.000000 -0.040410  0.001374)
 27:   1165.88   0.035905  181.45  0.009611  (-0.000000  0.003276  0.097979)
 28:   1238.80   0.008349   42.19  0.002103  ( 0.000000 -0.002022 -0.045815)
 29:   1273.73   0.000260    1.32  0.000064  (-0.000000 -0.007943  0.000842)
 30:   1314.51   0.003661   18.50  0.000869  (-0.000000  0.029473 -0.000719)
 31:   1415.16   0.067998  343.63  0.014994  (-0.000000  0.003580  0.122399)
 32:   1478.43   0.003458   17.47  0.000730  ( 0.000000 -0.026981 -0.001356)
 33:   1543.66   0.010397   52.54  0.002102  ( 0.000000 -0.045648  0.004251)
 34:   1551.69   0.205712  1039.59  0.041371  (-0.000000 -0.007615 -0.203257)
 35:   1640.63   0.164507  831.35  0.031291  (-0.000000 -0.006125 -0.176786)
 36:   2171.29   0.104893  530.09  0.015076  (-0.000000 -0.004205 -0.122711)
 37:   3163.03   0.007433   37.56  0.000733  ( 0.000000  0.004346  0.026729)
 38:   3163.26   0.003115   15.74  0.000307  (-0.000000  0.005187 -0.016745)
 39:   3180.96   0.013104   66.22  0.001286  ( 0.000000  0.035839 -0.001067)
 40:   3184.34   0.000686    3.47  0.000067  ( 0.000000 -0.000805  0.008159)
 41:   3452.73   0.064124  324.06  0.005796  (-0.000000 -0.002623 -0.076084)

* The epsilon (eps) is given for a Dirac delta lineshape.
** The dipole moment derivative (T) already includes vibrational overlap.

The first frequency considered to be a vibration is 6
The total number of vibrations considered is 36


--------------------------
THERMOCHEMISTRY AT 298.15K
--------------------------

Temperature         ... 298.15 K
Pressure            ... 1.00 atm
Total Mass          ... 117.13 AMU

Throughout the following assumptions are being made:
  (1) The electronic state is orbitally nondegenerate
  (2) There are no thermally accessible electronically excited states
  (3) Hindered rotations indicated by low frequency modes are not
      treated as such but are treated as vibrations and this may
      cause some error
  (4) All equations used are the standard statistical mechanics
      equations for an ideal gas
  (5) All vibrations are strictly harmonic

freq.      96.49  E(vib)   ...       0.47 
freq.     153.20  E(vib)   ...       0.40 
freq.     232.56  E(vib)   ...       0.32 
freq.     422.70  E(vib)   ...       0.18 
freq.     422.74  E(vib)   ...       0.18 
freq.     441.91  E(vib)   ...       0.17 
freq.     478.02  E(vib)   ...       0.15 
freq.     533.39  E(vib)   ...       0.13 
freq.     541.74  E(vib)   ...       0.12 
freq.     546.93  E(vib)   ...       0.12 
freq.     653.46  E(vib)   ...       0.08 
freq.     691.38  E(vib)   ...       0.07 
freq.     727.18  E(vib)   ...       0.06 
freq.     748.53  E(vib)   ...       0.06 
freq.     807.75  E(vib)   ...       0.05 
freq.     846.27  E(vib)   ...       0.04 
freq.     857.27  E(vib)   ...       0.04 
freq.     964.33  E(vib)   ...       0.03 
freq.     965.90  E(vib)   ...       0.03 
freq.     999.88  E(vib)   ...       0.02 
freq.    1104.35  E(vib)   ...       0.02 
freq.    1165.88  E(vib)   ...       0.01 
freq.    1238.80  E(vib)   ...       0.01 
freq.    1273.73  E(vib)   ...       0.01 
freq.    1314.51  E(vib)   ...       0.01 
freq.    1415.16  E(vib)   ...       0.00 
freq.    1478.43  E(vib)   ...       0.00 
freq.    1543.66  E(vib)   ...       0.00 
freq.    1551.69  E(vib)   ...       0.00 
freq.    1640.63  E(vib)   ...       0.00 
freq.    2171.29  E(vib)   ...       0.00 
freq.    3163.03  E(vib)   ...       0.00 
freq.    3163.26  E(vib)   ...       0.00 
freq.    3180.96  E(vib)   ...       0.00 
freq.    3184.34  E(vib)   ...       0.00 
freq.    3452.73  E(vib)   ...       0.00 

------------
INNER ENERGY
------------

The inner energy is: U= E(el) + E(ZPE) + E(vib) + E(rot) + E(trans)
    E(el)   - is the total energy from the electronic structure calculation
              = E(kin-el) + E(nuc-el) + E(el-el) + E(nuc-nuc)
    E(ZPE)  - the the zero temperature vibrational energy from the frequency calculation
    E(vib)  - the the finite temperature correction to E(ZPE) due to population
              of excited vibrational states
    E(rot)  - is the rotational thermal energy
    E(trans)- is the translational thermal energy

Summary of contributions to the inner energy U:
Electronic energy                ...   -382.85531195 Eh
Zero point energy                ...      0.10063590 Eh      63.15 kcal/mol
Thermal vibrational correction   ...      0.00444265 Eh       2.79 kcal/mol
Thermal rotational correction    ...      0.00141627 Eh       0.89 kcal/mol
Thermal translational correction ...      0.00141627 Eh       0.89 kcal/mol
-----------------------------------------------------------------------
Total thermal energy                   -382.74740086 Eh


Summary of corrections to the electronic energy:
(perhaps to be used in another calculation)
Total thermal correction                  0.00727519 Eh       4.57 kcal/mol
Non-thermal (ZPE) correction              0.10063590 Eh      63.15 kcal/mol
-----------------------------------------------------------------------
Total correction                          0.10791109 Eh      67.72 kcal/mol


--------
ENTHALPY
--------

The enthalpy is H = U + kB*T
                kB is Boltzmann's constant
Total free energy                 ...   -382.74740086 Eh 
Thermal Enthalpy correction       ...      0.00094421 Eh       0.59 kcal/mol
-----------------------------------------------------------------------
Total Enthalpy                    ...   -382.74645665 Eh


Note: Rotational entropy computed according to Herzberg 
Infrared and Raman Spectra, Chapter V,1, Van Nostrand Reinhold, 1945 
Point Group:  Cs, Symmetry Number:   1  
Rotational constants in cm-1:     0.191098     0.033644     0.028608 

Vibrational entropy computed according to the QRRHO of S. Grimme
Chem.Eur.J. 2012 18 9955


-------
ENTROPY
-------

The entropy contributions are T*S = T*(S(el)+S(vib)+S(rot)+S(trans))
     S(el)   - electronic entropy
     S(vib)  - vibrational entropy
     S(rot)  - rotational entropy
     S(trans)- translational entropy
The entropies will be listed as multiplied by the temperature to get
units of energy

Electronic entropy                ...      0.00000000 Eh      0.00 kcal/mol
Vibrational entropy               ...      0.00711285 Eh      4.46 kcal/mol
Rotational entropy                ...      0.01357124 Eh      8.52 kcal/mol
Translational entropy             ...      0.01909514 Eh     11.98 kcal/mol
-----------------------------------------------------------------------
Final entropy term                ...      0.03977923 Eh     24.96 kcal/mol

In case the symmetry of your molecule has not been determined correctly
or in case you have a reason to use a different symmetry number we print 
out the resulting rotational entropy values for sn=1,12 :
 --------------------------------------------------------
|  sn= 1 | S(rot)=       0.01357124 Eh      8.52 kcal/mol|
|  sn= 2 | S(rot)=       0.01291678 Eh      8.11 kcal/mol|
|  sn= 3 | S(rot)=       0.01253395 Eh      7.87 kcal/mol|
|  sn= 4 | S(rot)=       0.01226233 Eh      7.69 kcal/mol|
|  sn= 5 | S(rot)=       0.01205164 Eh      7.56 kcal/mol|
|  sn= 6 | S(rot)=       0.01187950 Eh      7.45 kcal/mol|
|  sn= 7 | S(rot)=       0.01173395 Eh      7.36 kcal/mol|
|  sn= 8 | S(rot)=       0.01160787 Eh      7.28 kcal/mol|
|  sn= 9 | S(rot)=       0.01149666 Eh      7.21 kcal/mol|
|  sn=10 | S(rot)=       0.01139718 Eh      7.15 kcal/mol|
|  sn=11 | S(rot)=       0.01130719 Eh      7.10 kcal/mol|
|  sn=12 | S(rot)=       0.01122504 Eh      7.04 kcal/mol|
 --------------------------------------------------------


-------------------
GIBBS FREE ENERGY
-------------------

The Gibbs free energy is G = H - T*S

Total enthalpy                    ...   -382.74645665 Eh 
Total entropy correction          ...     -0.03977923 Eh    -24.96 kcal/mol
-----------------------------------------------------------------------
Final Gibbs free energy         ...   -382.78623588 Eh

For completeness - the Gibbs free energy minus the electronic energy
G-E(el)                           ...      0.06907607 Eh     43.35 kcal/mol


Timings for individual modules:

Sum of individual times         ...      201.333 sec (=   3.356 min)
GTO integral calculation        ...        2.390 sec (=   0.040 min)   1.2 %
SCF iterations                  ...       38.237 sec (=   0.637 min)  19.0 %
SCF Gradient evaluation         ...        5.263 sec (=   0.088 min)   2.6 %
Geometry relaxation             ...        0.108 sec (=   0.002 min)   0.1 %
Analytical frequency calculation...      155.335 sec (=   2.589 min)  77.2 %
                             ****ORCA TERMINATED NORMALLY****
TOTAL RUN TIME: 0 days 0 hours 3 minutes 24 seconds 653 msec
