
                                 *****************
                                 * O   R   C   A *
                                 *****************

                                            #,                                       
                                            ###                                      
                                            ####                                     
                                            #####                                    
                                            ######                                   
                                           ########,                                 
                                     ,,################,,,,,                         
                               ,,#################################,,                 
                          ,,##########################################,,             
                       ,#########################################, ''#####,          
                    ,#############################################,,   '####,        
                  ,##################################################,,,,####,       
                ,###########''''           ''''###############################       
              ,#####''   ,,,,##########,,,,          '''####'''          '####       
            ,##' ,,,,###########################,,,                        '##       
           ' ,,###''''                  '''############,,,                           
         ,,##''                                '''############,,,,        ,,,,,,###''
      ,#''                                            '''#######################'''  
     '                                                          ''''####''''         
             ,#######,   #######,   ,#######,      ##                                
            ,#'     '#,  ##    ##  ,#'     '#,    #''#        ######   ,####,        
            ##       ##  ##   ,#'  ##            #'  '#       #        #'  '#        
            ##       ##  #######   ##           ,######,      #####,   #    #        
            '#,     ,#'  ##    ##  '#,     ,#' ,#      #,         ##   #,  ,#        
             '#######'   ##     ##  '#######'  #'      '#     #####' # '####'        



                  #######################################################
                  #                        -***-                        #
                  #          Department of theory and spectroscopy      #
                  #    Directorship and core code : Frank Neese         #
                  #        Max Planck Institute fuer Kohlenforschung    #
                  #                Kaiser Wilhelm Platz 1               #
                  #                 D-45470 Muelheim/Ruhr               #
                  #                      Germany                        #
                  #                                                     #
                  #                  All rights reserved                #
                  #                        -***-                        #
                  #######################################################


                         Program Version 5.0.4 -  RELEASE  -


 With contributions from (in alphabetic order):
   Daniel Aravena         : Magnetic Suceptibility
   Michael Atanasov       : Ab Initio Ligand Field Theory (pilot matlab implementation)
   Alexander A. Auer      : GIAO ZORA, VPT2 properties, NMR spectrum
   Ute Becker             : Parallelization
   Giovanni Bistoni       : ED, misc. LED, open-shell LED, HFLD
   Martin Brehm           : Molecular dynamics
   Dmytro Bykov           : SCF Hessian
   Vijay G. Chilkuri      : MRCI spin determinant printing, contributions to CSF-ICE
   Dipayan Datta          : RHF DLPNO-CCSD density
   Achintya Kumar Dutta   : EOM-CC, STEOM-CC
   Dmitry Ganyushin       : Spin-Orbit,Spin-Spin,Magnetic field MRCI
   Miquel Garcia          : C-PCM and meta-GGA Hessian, CC/C-PCM, Gaussian charge scheme
   Yang Guo               : DLPNO-NEVPT2, F12-NEVPT2, CIM, IAO-localization
   Andreas Hansen         : Spin unrestricted coupled pair/coupled cluster methods
   Benjamin Helmich-Paris : MC-RPA, TRAH-SCF, COSX integrals
   Lee Huntington         : MR-EOM, pCC
   Robert Izsak           : Overlap fitted RIJCOSX, COSX-SCS-MP3, EOM
   Marcus Kettner         : VPT2
   Christian Kollmar      : KDIIS, OOCD, Brueckner-CCSD(T), CCSD density, CASPT2, CASPT2-K
   Simone Kossmann        : Meta GGA functionals, TD-DFT gradient, OOMP2, MP2 Hessian
   Martin Krupicka        : Initial AUTO-CI
   Lucas Lang             : DCDCAS
   Marvin Lechner         : AUTO-CI (C++ implementation), FIC-MRCC
   Dagmar Lenk            : GEPOL surface, SMD
   Dimitrios Liakos       : Extrapolation schemes; Compound Job, initial MDCI parallelization
   Dimitrios Manganas     : Further ROCIS development; embedding schemes
   Dimitrios Pantazis     : SARC Basis sets
   Anastasios Papadopoulos: AUTO-CI, single reference methods and gradients
   Taras Petrenko         : DFT Hessian,TD-DFT gradient, ASA, ECA, R-Raman, ABS, FL, XAS/XES, NRVS
   Peter Pinski           : DLPNO-MP2, DLPNO-MP2 Gradient
   Christoph Reimann      : Effective Core Potentials
   Marius Retegan         : Local ZFS, SOC
   Christoph Riplinger    : Optimizer, TS searches, QM/MM, DLPNO-CCSD(T), (RO)-DLPNO pert. Triples
   Tobias Risthaus        : Range-separated hybrids, TD-DFT gradient, RPA, STAB
   Michael Roemelt        : Original ROCIS implementation
   Masaaki Saitow         : Open-shell DLPNO-CCSD energy and density
   Barbara Sandhoefer     : DKH picture change effects
   Avijit Sen             : IP-ROCIS
   Kantharuban Sivalingam : CASSCF convergence, NEVPT2, FIC-MRCI
   Bernardo de Souza      : ESD, SOC TD-DFT
   Georgi Stoychev        : AutoAux, RI-MP2 NMR, DLPNO-MP2 response
   Willem Van den Heuvel  : Paramagnetic NMR
   Boris Wezisla          : Elementary symmetry handling
   Frank Wennmohs         : Technical directorship


 We gratefully acknowledge several colleagues who have allowed us to
 interface, adapt or use parts of their codes:
   Stefan Grimme, W. Hujo, H. Kruse, P. Pracht,  : VdW corrections, initial TS optimization,
                  C. Bannwarth, S. Ehlert          DFT functionals, gCP, sTDA/sTD-DF
   Ed Valeev, F. Pavosevic, A. Kumar             : LibInt (2-el integral package), F12 methods
   Garnet Chan, S. Sharma, J. Yang, R. Olivares  : DMRG
   Ulf Ekstrom                                   : XCFun DFT Library
   Mihaly Kallay                                 : mrcc  (arbitrary order and MRCC methods)
   Jiri Pittner, Ondrej Demel                    : Mk-CCSD
   Frank Weinhold                                : gennbo (NPA and NBO analysis)
   Christopher J. Cramer and Donald G. Truhlar   : smd solvation model
   Lars Goerigk                                  : TD-DFT with DH, B97 family of functionals
   V. Asgeirsson, H. Jonsson                     : NEB implementation
   FAccTs GmbH                                   : IRC, NEB, NEB-TS, DLPNO-Multilevel, CI-OPT
                                                   MM, QMMM, 2- and 3-layer-ONIOM, Crystal-QMMM,
                                                   LR-CPCM, SF, NACMEs, symmetry and pop. for TD-DFT,
                                                   nearIR, NL-DFT gradient (VV10), updates on ESD,
                                                   ML-optimized integration grids
   S Lehtola, MJT Oliveira, MAL Marques          : LibXC Library
   Liviu Ungur et al                             : ANISO software


 Your calculation uses the libint2 library for the computation of 2-el integrals
 For citations please refer to: http://libint.valeyev.net

 Your ORCA version has been built with support for libXC version: 5.1.0
 For citations please refer to: https://tddft.org/programs/libxc/

 This ORCA versions uses:
   CBLAS   interface :  Fast vector & matrix operations
   LAPACKE interface :  Fast linear algebra routines
   SCALAPACK package :  Parallel linear algebra routines
   Shared memory     :  Shared parallel matrices
   BLAS/LAPACK       :  OpenBLAS 0.3.15  USE64BITINT DYNAMIC_ARCH NO_AFFINITY Haswell SINGLE_THREADED
        Core in use  :  Haswell
   Copyright (c) 2011-2014, The OpenBLAS Project


Your calculation utilizes the atom-pairwise dispersion correction
with the Becke-Johnson damping scheme (D3BJ)
Cite in your paper:
S.Grimme, S.Ehrlich, L.Goerigk, J Comput Chem, (2011), 32, 1456–1465 
S.Grimme, J.Antony, S.Ehrlich and H.Krieg, J.Chem.Phys., 132, (2010), 154104 
   

================================================================================

----- Orbital basis set information -----
Your calculation utilizes the basis: def2-TZVP
   F. Weigend and R. Ahlrichs, Phys. Chem. Chem. Phys. 7, 3297 (2005).

----- AuxJ basis set information -----
Your calculation utilizes the auxiliary basis: def2/J
   F. Weigend, Phys. Chem. Chem. Phys. 8, 1057 (2006).

================================================================================
                                        WARNINGS
                       Please study these warnings very carefully!
================================================================================


WARNING: Geometry Optimization
  ===> : Switching off AutoStart
         For restart on a previous wavefunction, please use MOREAD

INFO   : the flag for use of the SHARK integral package has been found!

================================================================================
                                       INPUT FILE
================================================================================
NAME = CF3-PhenOH/CF3-PhenOH.inp
|  1> %pal nprocs 24 end
|  2> %maxcore 3500
|  3> ! PBE0 D3BJ def2-TZVP TightSCF OPT FREQ TightOpt
|  4> ! CPCM(dmso)
|  5> %scf
|  6> MaxIter 800
|  7> end
|  8> %geom
|  9> MaxIter 800
| 10> MaxStep 0.2
| 11> end
| 12> *xyz 0 1
| 13> 
| 14> C       0.01358600     -0.52538900     -1.56260500
| 15> C       0.11437900      0.69254600     -0.90643100
| 16> C      -0.09880700     -1.70083800     -0.82526500
| 17> H       0.20109000      1.61288200     -1.47015800
| 18> H      -0.17866400     -2.65569000     -1.33243100
| 19> C       0.10733400      0.73995900      0.47712500
| 20> C      -0.10767900     -1.66123400      0.55395400
| 21> H       0.18849100      1.69116800      0.99266700
| 22> H      -0.19291400     -2.57156100      1.13513800
| 23> C      -0.00384300     -0.43640500      1.21128000
| 24> O      -0.01545800     -0.44883400      2.55923900
| 25> H       0.06832200      0.45062300      2.89857200
| 26> C      -0.00169100     -0.60212300     -3.05204300
| 27> F       0.26332200      0.57350000     -3.63472800
| 28> F       0.89868400     -1.48388200     -3.52799600
| 29> F      -1.19736200     -1.00745700     -3.52968600
| 30> *
| 31> 
| 32>                          ****END OF INPUT****
================================================================================

                       *****************************
                       * Geometry Optimization Run *
                       *****************************

Geometry optimization settings:
Update method            Update   .... BFGS
Choice of coordinates    CoordSys .... Z-matrix Internals
Initial Hessian          InHess   .... Almoef's Model

Convergence Tolerances:
Energy Change            TolE     ....  1.0000e-06 Eh
Max. Gradient            TolMAXG  ....  1.0000e-04 Eh/bohr
RMS Gradient             TolRMSG  ....  3.0000e-05 Eh/bohr
Max. Displacement        TolMAXD  ....  1.0000e-03 bohr
RMS Displacement         TolRMSD  ....  6.0000e-04 bohr
Strict Convergence                ....  False
------------------------------------------------------------------------------
                        ORCA OPTIMIZATION COORDINATE SETUP
------------------------------------------------------------------------------

The optimization will be done in new redundant internal coordinates
Making redundant internal coordinates   ...  (new redundants) done
Evaluating the initial hessian          ...  (Almloef) done
Evaluating the coordinates              ...  done
Calculating the B-matrix                .... done
Calculating the G-matrix                .... done
Diagonalizing the G-matrix              .... done
The first mode is                       ....   31
The number of degrees of freedom        ....   42

    -----------------------------------------------------------------
                    Redundant Internal Coordinates


    -----------------------------------------------------------------
         Definition                    Initial Value    Approx d2E/dq
    -----------------------------------------------------------------
      1. B(C   1,C   0)                  1.3871         0.631453   
      2. B(C   2,C   0)                  1.3921         0.619962   
      3. B(H   3,C   1)                  1.0827         0.369834   
      4. B(H   4,C   2)                  1.0841         0.367950   
      5. B(C   5,C   1)                  1.3844         0.637816   
      6. B(C   6,C   2)                  1.3798         0.648614   
      7. B(H   7,C   5)                  1.0850         0.366811   
      8. B(H   8,C   6)                  1.0834         0.368950   
      9. B(C   9,C   6)                  1.3939         0.615821   
     10. B(C   9,C   5)                  1.3911         0.622263   
     11. B(O  10,C   9)                  1.3481         0.652797   
     12. B(H  11,O  10)                  0.9650         0.510528   
     13. B(C  12,C   0)                  1.4915         0.430344   
     14. B(F  13,C  12)                  1.3386         0.628024   
     15. B(F  14,C  12)                  1.3471         0.608688   
     16. B(F  15,C  12)                  1.3498         0.602615   
     17. A(C   2,C   0,C  12)          118.9901         0.406691   
     18. A(C   1,C   0,C   2)          119.7814         0.435494   
     19. A(C   1,C   0,C  12)          121.2193         0.408014   
     20. A(H   3,C   1,C   5)          119.4479         0.356215   
     21. A(C   0,C   1,H   3)          120.3886         0.355609   
     22. A(C   0,C   1,C   5)          120.1634         0.437727   
     23. A(H   4,C   2,C   6)          119.4993         0.356922   
     24. A(C   0,C   2,C   6)          120.3785         0.437603   
     25. A(C   0,C   2,H   4)          120.1222         0.354197   
     26. A(H   7,C   5,C   9)          119.7743         0.354233   
     27. A(C   1,C   5,C   9)          119.9258         0.436572   
     28. A(C   1,C   5,H   7)          120.2999         0.355719   
     29. A(H   8,C   6,C   9)          119.4202         0.353957   
     30. A(C   2,C   6,C   9)          119.7421         0.437075   
     31. A(C   2,C   6,H   8)          120.8375         0.357087   
     32. A(C   5,C   9,O  10)          122.4248         0.435528   
     33. A(C   5,C   9,C   6)          120.0086         0.433822   
     34. A(C   6,C   9,O  10)          117.5666         0.434713   
     35. A(C   9,O  10,H  11)          110.0157         0.372239   
     36. A(F  14,C  12,F  15)          105.6920         0.421090   
     37. A(F  13,C  12,F  15)          106.5624         0.423449   
     38. A(C   0,C  12,F  15)          112.2028         0.400311   
     39. A(F  13,C  12,F  14)          106.7828         0.424209   
     40. A(C   0,C  12,F  14)          112.3124         0.401018   
     41. A(C   0,C  12,F  13)          112.7980         0.403235   
     42. D(C   5,C   1,C   0,C  12)    179.0771         0.027654   
     43. D(C   5,C   1,C   0,C   2)      0.1911         0.027654   
     44. D(H   3,C   1,C   0,C  12)     -1.0444         0.027654   
     45. D(H   3,C   1,C   0,C   2)   -179.9304         0.027654   
     46. D(H   4,C   2,C   0,C  12)      1.0432         0.026596   
     47. D(C   6,C   2,C   0,C   1)     -0.1355         0.026596   
     48. D(H   4,C   2,C   0,C   1)    179.9540         0.026596   
     49. D(C   6,C   2,C   0,C  12)   -179.0463         0.026596   
     50. D(C   9,C   5,C   1,H   3)    179.9890         0.028252   
     51. D(C   9,C   5,C   1,C   0)     -0.1314         0.028252   
     52. D(H   7,C   5,C   1,H   3)     -0.0297         0.028252   
     53. D(H   7,C   5,C   1,C   0)    179.8500         0.028252   
     54. D(C   9,C   6,C   2,C   0)      0.0200         0.029283   
     55. D(H   8,C   6,C   2,H   4)      0.0276         0.029283   
     56. D(H   8,C   6,C   2,C   0)   -179.8835         0.029283   
     57. D(C   9,C   6,C   2,H   4)    179.9311         0.029283   
     58. D(O  10,C   9,C   6,H   8)     -0.0169         0.026221   
     59. D(C   5,C   9,C   6,H   8)    179.9451         0.026221   
     60. D(C   5,C   9,C   6,C   2)      0.0401         0.026221   
     61. D(O  10,C   9,C   5,H   7)     -0.0061         0.026806   
     62. D(O  10,C   9,C   5,C   1)    179.9754         0.026806   
     63. D(O  10,C   9,C   6,C   2)   -179.9218         0.026221   
     64. D(C   6,C   9,C   5,H   7)   -179.9661         0.026806   
     65. D(C   6,C   9,C   5,C   1)      0.0154         0.026806   
     66. D(H  11,O  10,C   9,C   6)    179.5965         0.031516   
     67. D(H  11,O  10,C   9,C   5)     -0.3644         0.031516   
     68. D(F  14,C  12,C   0,C   2)    -52.2342         0.013677   
     69. D(F  14,C  12,C   0,C   1)    128.8712         0.013677   
     70. D(F  13,C  12,C   0,C   2)   -172.9684         0.013677   
     71. D(F  15,C  12,C   0,C   1)   -112.2299         0.013677   
     72. D(F  13,C  12,C   0,C   1)      8.1370         0.013677   
     73. D(F  15,C  12,C   0,C   2)     66.6648         0.013677   
    -----------------------------------------------------------------

Number of atoms                         .... 16
Number of degrees of freedom            .... 73

         *************************************************************
         *                GEOMETRY OPTIMIZATION CYCLE   1            *
         *************************************************************
---------------------------------
CARTESIAN COORDINATES (ANGSTROEM)
---------------------------------
  C      0.013586   -0.525389   -1.562605
  C      0.114379    0.692546   -0.906431
  C     -0.098807   -1.700838   -0.825265
  H      0.201090    1.612882   -1.470158
  H     -0.178664   -2.655690   -1.332431
  C      0.107334    0.739959    0.477125
  C     -0.107679   -1.661234    0.553954
  H      0.188491    1.691168    0.992667
  H     -0.192914   -2.571561    1.135138
  C     -0.003843   -0.436405    1.211280
  O     -0.015458   -0.448834    2.559239
  H      0.068322    0.450623    2.898572
  C     -0.001691   -0.602123   -3.052043
  F      0.263322    0.573500   -3.634728
  F      0.898684   -1.483882   -3.527996
  F     -1.197362   -1.007457   -3.529686

----------------------------
CARTESIAN COORDINATES (A.U.)
----------------------------
  NO LB      ZA    FRAG     MASS         X           Y           Z
   0 C     6.0000    0    12.011    0.025674   -0.992841   -2.952896
   1 C     6.0000    0    12.011    0.216145    1.308722   -1.712906
   2 C     6.0000    0    12.011   -0.186718   -3.214118   -1.559525
   3 H     1.0000    0     1.008    0.380005    3.047905   -2.778196
   4 H     1.0000    0     1.008   -0.337626   -5.018527   -2.517930
   5 C     6.0000    0    12.011    0.202832    1.398320    0.901636
   6 C     6.0000    0    12.011   -0.203484   -3.139277    1.046821
   7 H     1.0000    0     1.008    0.356196    3.195844    1.875869
   8 H     1.0000    0     1.008   -0.364555   -4.859546    2.145100
   9 C     6.0000    0    12.011   -0.007262   -0.824686    2.288987
  10 O     8.0000    0    15.999   -0.029211   -0.848173    4.836261
  11 H     1.0000    0     1.008    0.129110    0.851554    5.477507
  12 C     6.0000    0    12.011   -0.003196   -1.137848   -5.767525
  13 F     9.0000    0    18.998    0.497606    1.083758   -6.868640
  14 F     9.0000    0    18.998    1.698267   -2.804131   -6.666946
  15 F     9.0000    0    18.998   -2.262686   -1.903818   -6.670140

--------------------------------
INTERNAL COORDINATES (ANGSTROEM)
--------------------------------
 C      0   0   0     0.000000000000     0.00000000     0.00000000
 C      1   0   0     1.387115428272     0.00000000     0.00000000
 C      1   2   0     1.392114511687   119.78144066     0.00000000
 H      2   1   3     1.082739710617   120.38857992   180.06959614
 H      3   1   2     1.084129528197   120.12216843   179.95399953
 C      2   1   3     1.384386084057   120.16336056     0.19110396
 C      3   1   2     1.379816016417   120.37845826   359.86451824
 H      6   2   1     1.084973996967   120.29987198   179.84996909
 H      7   3   1     1.083390554699   120.83754184   180.11651088
 C      6   2   1     1.391106088640   119.92578562   359.86860511
 O     10   6   2     1.348066338852   122.42480657   179.97539301
 H     11  10   6     0.964981278646   110.01568435   359.63561605
 C      1   2   3     1.491491551880   121.21930851   178.88599202
 F     13   1   2     1.338597451635   112.79803327     8.13701869
 F     13   1   2     1.347109992879   112.31244736   128.87117677
 F     13   1   2     1.349839852444   112.20281218   247.77013459

---------------------------
INTERNAL COORDINATES (A.U.)
---------------------------
 C      0   0   0     0.000000000000     0.00000000     0.00000000
 C      1   0   0     2.621268275571     0.00000000     0.00000000
 C      1   2   0     2.630715174146   119.78144066     0.00000000
 H      2   1   3     2.046081527386   120.38857992   180.06959614
 H      3   1   2     2.048707901990   120.12216843   179.95399953
 C      2   1   3     2.616110562479   120.16336056     0.19110396
 C      3   1   2     2.607474386226   120.37845826   359.86451824
 H      6   2   1     2.050303716693   120.29987198   179.84996909
 H      7   3   1     2.047311444457   120.83754184   180.11651088
 C      6   2   1     2.628809530759   119.92578562   359.86860511
 O     10   6   2     2.547476190789   122.42480657   179.97539301
 H     11  10   6     1.823550341003   110.01568435   359.63561605
 C      1   2   3     2.818510564110   121.21930851   178.88599202
 F     13   1   2     2.529582587155   112.79803327     8.13701869
 F     13   1   2     2.545668958810   112.31244736   128.87117677
 F     13   1   2     2.550827645772   112.20281218   247.77013459

---------------------
BASIS SET INFORMATION
---------------------
There are 4 groups of distinct atoms

 Group   1 Type C   : 11s6p2d1f contracted to 5s3p2d1f pattern {62111/411/11/1}
 Group   2 Type H   : 5s1p contracted to 3s1p pattern {311/1}
 Group   3 Type O   : 11s6p2d1f contracted to 5s3p2d1f pattern {62111/411/11/1}
 Group   4 Type F   : 11s6p2d1f contracted to 5s3p2d1f pattern {62111/411/11/1}

Atom   0C    basis set group =>   1
Atom   1C    basis set group =>   1
Atom   2C    basis set group =>   1
Atom   3H    basis set group =>   2
Atom   4H    basis set group =>   2
Atom   5C    basis set group =>   1
Atom   6C    basis set group =>   1
Atom   7H    basis set group =>   2
Atom   8H    basis set group =>   2
Atom   9C    basis set group =>   1
Atom  10O    basis set group =>   3
Atom  11H    basis set group =>   2
Atom  12C    basis set group =>   1
Atom  13F    basis set group =>   4
Atom  14F    basis set group =>   4
Atom  15F    basis set group =>   4
---------------------------------
AUXILIARY/J BASIS SET INFORMATION
---------------------------------
There are 4 groups of distinct atoms

 Group   1 Type C   : 12s5p4d2f1g contracted to 6s4p3d1f1g pattern {711111/2111/211/2/1}
 Group   2 Type H   : 5s2p1d contracted to 3s1p1d pattern {311/2/1}
 Group   3 Type O   : 12s5p4d2f1g contracted to 6s4p3d1f1g pattern {711111/2111/211/2/1}
 Group   4 Type F   : 12s5p4d2f1g contracted to 6s4p3d1f1g pattern {711111/2111/211/2/1}

Atom   0C    basis set group =>   1
Atom   1C    basis set group =>   1
Atom   2C    basis set group =>   1
Atom   3H    basis set group =>   2
Atom   4H    basis set group =>   2
Atom   5C    basis set group =>   1
Atom   6C    basis set group =>   1
Atom   7H    basis set group =>   2
Atom   8H    basis set group =>   2
Atom   9C    basis set group =>   1
Atom  10O    basis set group =>   3
Atom  11H    basis set group =>   2
Atom  12C    basis set group =>   1
Atom  13F    basis set group =>   4
Atom  14F    basis set group =>   4
Atom  15F    basis set group =>   4


           ************************************************************
           *        Program running with 24 parallel MPI-processes    *
           *              working on a common directory               *
           ************************************************************
------------------------------------------------------------------------------
                           ORCA GTO INTEGRAL CALCULATION
                           -- RI-GTO INTEGRALS CHOSEN --
------------------------------------------------------------------------------
------------------------------------------------------------------------------
                   ___                                                        
                  /   \      - P O W E R E D   B Y -                         
                 /     \                                                     
                 |  |  |   _    _      __       _____    __    __             
                 |  |  |  | |  | |    /  \     |  _  \  |  |  /  |          
                  \  \/   | |  | |   /    \    | | | |  |  | /  /          
                 / \  \   | |__| |  /  /\  \   | |_| |  |  |/  /          
                |  |  |   |  __  | /  /__\  \  |    /   |      \           
                |  |  |   | |  | | |   __   |  |    \   |  |\   \          
                \     /   | |  | | |  |  |  |  | |\  \  |  | \   \       
                 \___/    |_|  |_| |__|  |__|  |_| \__\ |__|  \__/        
                                                                              
                      - O R C A' S   B I G   F R I E N D -                    
                                      &                                       
                       - I N T E G R A L  F E E D E R -                       
                                                                              
 v1 FN, 2020, v2 2021                                                         
------------------------------------------------------------------------------


Reading SHARK input file CF3-PhenOH/CF3-PhenOH.SHARKINP.tmp ... ok
----------------------
SHARK INTEGRAL PACKAGE
----------------------

Number of atoms                             ...     16
Number of basis functions                   ...    371
Number of shells                            ...    141
Maximum angular momentum                    ...      3
Integral batch strategy                     ... SHARK/LIBINT Hybrid
RI-J (if used) integral strategy            ... SPLIT-RIJ (Revised 2003 algorithm where possible)
Printlevel                                  ...      1
Contraction scheme used                     ... SEGMENTED contraction
Coulomb Range Separation                    ... NOT USED
Exchange Range Separation                   ... NOT USED
Finite Nucleus Model                        ... NOT USED
Auxiliary Coulomb fitting basis             ... AVAILABLE
   # of basis functions in Aux-J            ...    594
   # of shells in Aux-J                     ...    190
   Maximum angular momentum in Aux-J        ...      4
Auxiliary J/K fitting basis                 ... NOT available
Auxiliary Correlation fitting basis         ... NOT available
Auxiliary 'external' fitting basis          ... NOT available
Integral threshold                          ...     2.500000e-11
Primitive cut-off                           ...     2.500000e-12
Primitive pair pre-selection threshold      ...     2.500000e-12

Calculating pre-screening integrals         ... done (  0.1 sec) Dimension = 141
Organizing shell pair data                  ... done (  0.1 sec)
Shell pair information
Total number of shell pairs                 ...     10011
Shell pairs after pre-screening             ...      8533
Total number of primitive shell pairs       ...     31632
Primitive shell pairs kept                  ...     19418
          la=0 lb=0:   2000 shell pairs
          la=1 lb=0:   2327 shell pairs
          la=1 lb=1:    688 shell pairs
          la=2 lb=0:   1285 shell pairs
          la=2 lb=1:    751 shell pairs
          la=2 lb=2:    217 shell pairs
          la=3 lb=0:    629 shell pairs
          la=3 lb=1:    374 shell pairs
          la=3 lb=2:    206 shell pairs
          la=3 lb=3:     56 shell pairs

Calculating one electron integrals          ... done (  0.0 sec)
Calculating RI/J V-Matrix + Cholesky decomp.... done (  0.1 sec)
Calculating Nuclear repulsion               ... done (  0.0 sec) ENN=    619.180464809370 Eh

SHARK setup successfully completed in   0.6 seconds

Maximum memory used throughout the entire GTOINT-calculation: 21.9 MB


           ************************************************************
           *        Program running with 24 parallel MPI-processes    *
           *              working on a common directory               *
           ************************************************************
-------------------------------------------------------------------------------
                                 ORCA SCF
-------------------------------------------------------------------------------

------------
SCF SETTINGS
------------
Hamiltonian:
 Density Functional     Method          .... DFT(GTOs)
 Exchange Functional    Exchange        .... PBE
   PBE kappa parameter   XKappa         ....  0.804000
   PBE mue parameter    XMuePBE         ....  0.219520
 Correlation Functional Correlation     .... PBE
   PBE beta parameter  CBetaPBE         ....  0.066725
 LDA part of GGA corr.  LDAOpt          .... PW91-LDA
 Gradients option       PostSCFGGA      .... off
 Hybrid DFT is turned on
   Fraction HF Exchange ScalHFX         ....  0.250000
   Scaling of DF-GGA-X  ScalDFX         ....  0.750000
   Scaling of DF-GGA-C  ScalDFC         ....  1.000000
   Scaling of DF-LDA-C  ScalLDAC        ....  1.000000
   Perturbative correction              ....  0.000000
   Density functional embedding theory  .... OFF
   NL short-range parameter             ....  6.900000
 RI-approximation to the Coulomb term is turned on
   Number of AuxJ basis functions       .... 594
   RIJ-COSX (HFX calculated with COS-X)).... on


General Settings:
 Integral files         IntName         .... CF3-PhenOH/CF3-PhenOH
 Hartree-Fock type      HFTyp           .... RHF
 Total Charge           Charge          ....    0
 Multiplicity           Mult            ....    1
 Number of Electrons    NEL             ....   82
 Basis Dimension        Dim             ....  371
 Nuclear Repulsion      ENuc            ....    619.1804648094 Eh

Convergence Acceleration:
 DIIS                   CNVDIIS         .... on
   Start iteration      DIISMaxIt       ....    12
   Startup error        DIISStart       ....  0.200000
   # of expansion vecs  DIISMaxEq       ....     5
   Bias factor          DIISBfac        ....   1.050
   Max. coefficient     DIISMaxC        ....  10.000
 Trust-Rad. Augm. Hess. CNVTRAH         .... auto
   Auto Start mean grad. ratio tolernc. ....  1.125000
   Auto Start start iteration           ....    20
   Auto Start num. interpolation iter.  ....    10
   Max. Number of Micro iterations      ....    16
   Max. Number of Macro iterations      .... Maxiter - #DIIS iter
   Number of Davidson start vectors     ....     2
   Converg. threshold I  (grad. norm)   ....   1.000e-05
   Converg. threshold II (energy diff.) ....   1.000e-08
   Grad. Scal. Fac. for Micro threshold ....   0.100
   Minimum threshold for Micro iter.    ....   0.010
   NR start threshold (gradient norm)   ....   0.001
   Initial trust radius                 ....   0.400
   Minimum AH scaling param. (alpha)    ....   1.000
   Maximum AH scaling param. (alpha)    .... 1000.000
   Orbital update algorithm             .... Taylor
   White noise on init. David. guess    .... on
   Maximum white noise                  ....   0.010
   Quad. conv. algorithm                .... NR
 SOSCF                  CNVSOSCF        .... on
   Start iteration      SOSCFMaxIt      ....   150
   Startup grad/error   SOSCFStart      ....  0.003300
 Level Shifting         CNVShift        .... on
   Level shift para.    LevelShift      ....    0.2500
   Turn off err/grad.   ShiftErr        ....    0.0010
 Zerner damping         CNVZerner       .... off
 Static damping         CNVDamp         .... on
   Fraction old density DampFac         ....    0.7000
   Max. Damping (<1)    DampMax         ....    0.9800
   Min. Damping (>=0)   DampMin         ....    0.0000
   Turn off err/grad.   DampErr         ....    0.1000
 Fernandez-Rico         CNVRico         .... off

SCF Procedure:
 Maximum # iterations   MaxIter         ....   800
 SCF integral mode      SCFMode         .... Direct
   Integral package                     .... SHARK and LIBINT hybrid scheme
 Reset frequency        DirectResetFreq ....    20
 Integral Threshold     Thresh          ....  2.500e-11 Eh
 Primitive CutOff       TCut            ....  2.500e-12 Eh

Convergence Tolerance:
 Convergence Check Mode ConvCheckMode   .... Total+1el-Energy
 Convergence forced     ConvForced      .... 0
 Energy Change          TolE            ....  1.000e-08 Eh
 1-El. energy change                    ....  1.000e-05 Eh
 Orbital Gradient       TolG            ....  1.000e-05
 Orbital Rotation angle TolX            ....  1.000e-05
 DIIS Error             TolErr          ....  5.000e-07


Diagonalization of the overlap matrix:
Smallest eigenvalue                        ... 8.583e-06
Time for diagonalization                   ...    0.035 sec
Threshold for overlap eigenvalues          ... 1.000e-08
Number of eigenvalues below threshold      ... 0
Time for construction of square roots      ...    0.030 sec
Total time needed                          ...    0.069 sec

Time for model grid setup =    0.122 sec

------------------------------
INITIAL GUESS: MODEL POTENTIAL
------------------------------
Loading Hartree-Fock densities                     ... done
Calculating cut-offs                               ... done
Initializing the effective Hamiltonian             ... done
Setting up the integral package (SHARK)            ... done
Starting the Coulomb interaction                   ... done (   0.1 sec)
Reading the grid                                   ... done
Mapping shells                                     ... done
Starting the XC term evaluation                    ... done (   0.0 sec)
  promolecular density results
     # of electrons  =     81.998831327
     EX              =    -75.481266460
     EC              =     -2.803231055
     EX+EC           =    -78.284497514
Transforming the Hamiltonian                       ... done (   0.0 sec)
Diagonalizing the Hamiltonian                      ... done (   0.0 sec)
Back transforming the eigenvectors                 ... done (   0.0 sec)
Now organizing SCF variables                       ... done
                      ------------------
                      INITIAL GUESS DONE (   0.4 sec)
                      ------------------
-------------------
DFT GRID GENERATION
-------------------

General Integration Accuracy     IntAcc      ... 4.388
Radial Grid Type                 RadialGrid  ... OptM3 with GC (2021)
Angular Grid (max. ang.)         AngularGrid ... 4 (Lebedev-302)
Angular grid pruning method      GridPruning ... 4 (adaptive)
Weight generation scheme         WeightScheme... Becke
Basis function cutoff            BFCut       ... 1.0000e-11
Integration weight cutoff        WCut        ... 1.0000e-14
Angular grids for H and He will be reduced by one unit
Partially contracted basis set               ... off
Rotationally invariant grid construction     ... off

Total number of grid points                  ...    82453
Total number of batches                      ...     1296
Average number of points per batch           ...       63
Average number of grid points per atom       ...     5153
Time for grid setup =    0.473 sec

--------------------
COSX GRID GENERATION
--------------------

GRIDX 1
-------
General Integration Accuracy     IntAcc      ... 3.816
Radial Grid Type                 RadialGrid  ... OptM3 with GC (2021)
Angular Grid (max. ang.)         AngularGrid ... 1 (Lebedev-50)
Angular grid pruning method      GridPruning ... 4 (adaptive)
Weight generation scheme         WeightScheme... Becke
Basis function cutoff            BFCut       ... 1.0000e-11
Integration weight cutoff        WCut        ... 1.0000e-14
Angular grids for H and He will be reduced by one unit
Partially contracted basis set               ... on
Rotationally invariant grid construction     ... off

Total number of grid points                  ...    10484
Total number of batches                      ...      171
Average number of points per batch           ...       61
Average number of grid points per atom       ...      655
UseSFitting                                  ... on

GRIDX 2
-------
General Integration Accuracy     IntAcc      ... 4.020
Radial Grid Type                 RadialGrid  ... OptM3 with GC (2021)
Angular Grid (max. ang.)         AngularGrid ... 2 (Lebedev-110)
Angular grid pruning method      GridPruning ... 4 (adaptive)
Weight generation scheme         WeightScheme... Becke
Basis function cutoff            BFCut       ... 1.0000e-11
Integration weight cutoff        WCut        ... 1.0000e-14
Angular grids for H and He will be reduced by one unit
Partially contracted basis set               ... on
Rotationally invariant grid construction     ... off

Total number of grid points                  ...    23668
Total number of batches                      ...      380
Average number of points per batch           ...       62
Average number of grid points per atom       ...     1479
UseSFitting                                  ... on

GRIDX 3
-------
General Integration Accuracy     IntAcc      ... 4.338
Radial Grid Type                 RadialGrid  ... OptM3 with GC (2021)
Angular Grid (max. ang.)         AngularGrid ... 3 (Lebedev-194)
Angular grid pruning method      GridPruning ... 4 (adaptive)
Weight generation scheme         WeightScheme... Becke
Basis function cutoff            BFCut       ... 1.0000e-11
Integration weight cutoff        WCut        ... 1.0000e-14
Angular grids for H and He will be reduced by one unit
Partially contracted basis set               ... on
Rotationally invariant grid construction     ... off

Total number of grid points                  ...    52229
Total number of batches                      ...      825
Average number of points per batch           ...       63
Average number of grid points per atom       ...     3264
UseSFitting                                  ... on

Time for X-Grid setup             =    0.733 sec


--------------------
CPCM SOLVATION MODEL
--------------------
CPCM parameters:
  Epsilon                                         ...      47.2000
  Refrac                                          ...       1.4790
  Rsolv                                           ...       1.3000
  Surface type                                    ... GAUSSIAN VDW
  Epsilon function type                           ...         CPCM
Radii:
 Radius for C  used is    3.8550 Bohr (=   2.0400 Ang.)
 Radius for H  used is    2.4944 Bohr (=   1.3200 Ang.)
 Radius for O  used is    3.4469 Bohr (=   1.8240 Ang.)
 Radius for F  used is    3.3335 Bohr (=   1.7640 Ang.)
Calculating surface                               ...        done! (  0.0s)
GEPOL surface points                              ...          918
GEPOL Volume                                      ...    1121.0913
GEPOL Surface-area                                ...     629.8863
Calculating surface distance matrix               ...        done! (  0.0s)
Performing Cholesky decomposition & store         ...        done! (  0.1s)
Overall time for CPCM initialization              ...                 0.1s
--------------
SCF ITERATIONS
--------------
ITER       Energy         Delta-E        Max-DP      RMS-DP      [F,P]     Damp
               ***  Starting incremental Fock matrix formation  ***
  0   -643.8947930320   0.000000000000 0.07816359  0.00096110  0.2089017 0.7000
  1   -643.9968402360  -0.102047203983 0.08474007  0.00084999  0.0980486 0.7000
                               ***Turning on DIIS***
  2   -644.0391789750  -0.042338738967 0.12662049  0.00146214  0.0354672 0.0000
  3   -644.1060116632  -0.066832688235 0.07813703  0.00066421  0.0483493 0.0000
  4   -644.1195922037  -0.013580540486 0.02245243  0.00022226  0.0074892 0.0000
  5   -644.1200808657  -0.000488661957 0.00896755  0.00008670  0.0033656 0.0000
                      *** Initiating the SOSCF procedure ***
                           *** Shutting down DIIS ***
                      *** Re-Reading the Fockian *** 
                      *** Removing any level shift *** 
ITER      Energy       Delta-E        Grad      Rot      Max-DP    RMS-DP
  6   -644.12013698  -0.0000561123  0.000213  0.000213  0.002815  0.000040
               *** Restarting incremental Fock matrix formation ***
  7   -644.12011077   0.0000262124  0.000099  0.000245  0.000754  0.000011
  8   -644.12011059   0.0000001719  0.000121  0.000173  0.000311  0.000004
  9   -644.12011120  -0.0000006112  0.000026  0.000090  0.000091  0.000002
 10   -644.12011120   0.0000000094  0.000028  0.000048  0.000093  0.000001
                  ***Gradient check signals convergence***
              ***Rediagonalizing the Fockian in SOSCF/NRSCF***

               *****************************************************
               *                     SUCCESS                       *
               *           SCF CONVERGED AFTER  11 CYCLES          *
               *****************************************************

Old exchange energy                            =    -19.140195779 Eh
New exchange energy                            =    -19.140207695 Eh
Exchange energy change after final integration =     -0.000011917 Eh
Total energy after final integration           =   -644.120123131 Eh
Final COS-X integration done in                =     1.974 sec

----------------
TOTAL SCF ENERGY
----------------

Total Energy       :         -644.12012313 Eh          -17527.39963 eV

Components:
Nuclear Repulsion  :          619.18046481 Eh           16848.75702 eV
Electronic Energy  :        -1263.30058794 Eh          -34376.15665 eV
One Electron Energy:        -2115.20696068 Eh          -57557.70758 eV
Two Electron Energy:          851.90637274 Eh           23181.55093 eV
Max COSX asymmetry :            0.00000337 Eh               0.00009 eV
CPCM Dielectric    :           -0.01348747 Eh              -0.36701 eV

Virial components:
Potential Energy   :        -1285.78338332 Eh          -34987.94461 eV
Kinetic Energy     :          641.66326019 Eh           17460.54499 eV
Virial Ratio       :            2.00382890


DFT components:
N(Alpha)           :       41.000017672938 electrons
N(Beta)            :       41.000017672938 electrons
N(Total)           :       82.000035345876 electrons
E(X)               :      -57.337959189255 Eh       
E(C)               :       -2.805509404208 Eh       
E(XC)              :      -60.143468593463 Eh       
DFET-embed. en.    :        0.000000000000 Eh       
CPCM Solvation Model Properties:
Surface-charge          :           -0.01611195
Charge-correction       :            0.00025339 Eh               0.00689 eV
Free-energy (cav+disp)  :  This term is not implemented in the current solvation scheme

---------------
SCF CONVERGENCE
---------------

  Last Energy change         ...   -1.8663e-08  Tolerance :   1.0000e-08
  Last MAX-Density change    ...    1.7764e-15  Tolerance :   1.0000e-07
  Last RMS-Density change    ...    1.9600e-17  Tolerance :   5.0000e-09
  Last Orbital Gradient      ...    2.3110e-06  Tolerance :   1.0000e-05
  Last Orbital Rotation      ...    5.6005e-06  Tolerance :   1.0000e-05

             **** THE GBW FILE WAS UPDATED (CF3-PhenOH/CF3-PhenOH.gbw) ****
             **** DENSITY CF3-PhenOH/CF3-PhenOH.scfp WAS UPDATED ****
             **** ENERGY FILE WAS UPDATED (CF3-PhenOH/CF3-PhenOH.en.tmp) ****
             **** THE GBW FILE WAS UPDATED (CF3-PhenOH/CF3-PhenOH.gbw) ****
             **** DENSITY CF3-PhenOH/CF3-PhenOH.scfp WAS UPDATED ****
----------------
ORBITAL ENERGIES
----------------

  NO   OCC          E(Eh)            E(eV) 
   0   2.0000     -24.807799      -675.0545 
   1   2.0000     -24.803237      -674.9304 
   2   2.0000     -24.801767      -674.8904 
   3   2.0000     -19.246229      -523.7165 
   4   2.0000     -10.473016      -284.9852 
   5   2.0000     -10.301378      -280.3147 
   6   2.0000     -10.248155      -278.8665 
   7   2.0000     -10.245542      -278.7954 
   8   2.0000     -10.245070      -278.7825 
   9   2.0000     -10.234504      -278.4950 
  10   2.0000     -10.233289      -278.4619 
  11   2.0000      -1.352863       -36.8133 
  12   2.0000      -1.263960       -34.3941 
  13   2.0000      -1.257982       -34.2314 
  14   2.0000      -1.106265       -30.1030 
  15   2.0000      -0.903864       -24.5954 
  16   2.0000      -0.810161       -22.0456 
  17   2.0000      -0.790029       -21.4978 
  18   2.0000      -0.727310       -19.7911 
  19   2.0000      -0.665654       -18.1134 
  20   2.0000      -0.651242       -17.7212 
  21   2.0000      -0.616067       -16.7640 
  22   2.0000      -0.614577       -16.7235 
  23   2.0000      -0.591275       -16.0894 
  24   2.0000      -0.573744       -15.6124 
  25   2.0000      -0.512224       -13.9383 
  26   2.0000      -0.494449       -13.4546 
  27   2.0000      -0.491152       -13.3649 
  28   2.0000      -0.476676       -12.9710 
  29   2.0000      -0.456948       -12.4342 
  30   2.0000      -0.455792       -12.4027 
  31   2.0000      -0.454573       -12.3696 
  32   2.0000      -0.443537       -12.0693 
  33   2.0000      -0.442588       -12.0434 
  34   2.0000      -0.432576       -11.7710 
  35   2.0000      -0.414674       -11.2838 
  36   2.0000      -0.387643       -10.5483 
  37   2.0000      -0.372383       -10.1330 
  38   2.0000      -0.363584        -9.8936 
  39   2.0000      -0.284838        -7.7508 
  40   2.0000      -0.255299        -6.9470 
  41   0.0000      -0.021297        -0.5795 
  42   0.0000      -0.017249        -0.4694 
  43   0.0000       0.061033         1.6608 
  44   0.0000       0.073635         2.0037 
  45   0.0000       0.097255         2.6465 
  46   0.0000       0.116363         3.1664 
  47   0.0000       0.117088         3.1861 
  48   0.0000       0.127244         3.4625 
  49   0.0000       0.139170         3.7870 
  50   0.0000       0.153778         4.1845 
  51   0.0000       0.160300         4.3620 
  52   0.0000       0.168345         4.5809 
  53   0.0000       0.192751         5.2450 
  54   0.0000       0.204302         5.5593 
  55   0.0000       0.214398         5.8341 
  56   0.0000       0.221984         6.0405 
  57   0.0000       0.229168         6.2360 
  58   0.0000       0.247798         6.7429 
  59   0.0000       0.249273         6.7831 
  60   0.0000       0.255763         6.9597 
  61   0.0000       0.259459         7.0602 
  62   0.0000       0.269485         7.3331 
  63   0.0000       0.284633         7.7452 
  64   0.0000       0.306892         8.3510 
  65   0.0000       0.310174         8.4403 
  66   0.0000       0.317227         8.6322 
  67   0.0000       0.329160         8.9569 
  68   0.0000       0.332580         9.0500 
  69   0.0000       0.343628         9.3506 
  70   0.0000       0.347505         9.4561 
  71   0.0000       0.363750         9.8981 
  72   0.0000       0.377354        10.2683 
  73   0.0000       0.388146        10.5620 
  74   0.0000       0.397948        10.8287 
  75   0.0000       0.413780        11.2595 
  76   0.0000       0.439251        11.9526 
  77   0.0000       0.441140        12.0040 
  78   0.0000       0.447797        12.1852 
  79   0.0000       0.465134        12.6569 
  80   0.0000       0.466678        12.6990 
  81   0.0000       0.479044        13.0355 
  82   0.0000       0.501568        13.6483 
  83   0.0000       0.505131        13.7453 
  84   0.0000       0.510828        13.9003 
  85   0.0000       0.521606        14.1936 
  86   0.0000       0.522056        14.2059 
  87   0.0000       0.549437        14.9509 
  88   0.0000       0.554242        15.0817 
  89   0.0000       0.564633        15.3644 
  90   0.0000       0.609645        16.5893 
  91   0.0000       0.611323        16.6350 
  92   0.0000       0.643376        17.5072 
  93   0.0000       0.648938        17.6585 
  94   0.0000       0.665196        18.1009 
  95   0.0000       0.675671        18.3859 
  96   0.0000       0.692847        18.8533 
  97   0.0000       0.702194        19.1077 
  98   0.0000       0.707642        19.2559 
  99   0.0000       0.727041        19.7838 
 100   0.0000       0.732981        19.9454 
 101   0.0000       0.760135        20.6843 
 102   0.0000       0.763985        20.7891 
 103   0.0000       0.770786        20.9742 
 104   0.0000       0.775962        21.1150 
 105   0.0000       0.779359        21.2074 
 106   0.0000       0.808071        21.9887 
 107   0.0000       0.818044        22.2601 
 108   0.0000       0.822742        22.3880 
 109   0.0000       0.839998        22.8575 
 110   0.0000       0.842291        22.9199 
 111   0.0000       0.863318        23.4921 
 112   0.0000       0.882511        24.0143 
 113   0.0000       0.892527        24.2869 
 114   0.0000       0.900650        24.5079 
 115   0.0000       0.939576        25.5672 
 116   0.0000       0.958346        26.0779 
 117   0.0000       0.962112        26.1804 
 118   0.0000       0.990070        26.9412 
 119   0.0000       1.002936        27.2913 
 120   0.0000       1.017148        27.6780 
 121   0.0000       1.037343        28.2275 
 122   0.0000       1.044083        28.4109 
 123   0.0000       1.068877        29.0856 
 124   0.0000       1.082552        29.4577 
 125   0.0000       1.129987        30.7485 
 126   0.0000       1.164648        31.6917 
 127   0.0000       1.178803        32.0769 
 128   0.0000       1.184835        32.2410 
 129   0.0000       1.204777        32.7837 
 130   0.0000       1.218748        33.1638 
 131   0.0000       1.236289        33.6411 
 132   0.0000       1.249084        33.9893 
 133   0.0000       1.273379        34.6504 
 134   0.0000       1.285259        34.9737 
 135   0.0000       1.300886        35.3989 
 136   0.0000       1.327163        36.1139 
 137   0.0000       1.350808        36.7573 
 138   0.0000       1.367179        37.2028 
 139   0.0000       1.412828        38.4450 
 140   0.0000       1.422913        38.7194 
 141   0.0000       1.425212        38.7820 
 142   0.0000       1.463111        39.8133 
 143   0.0000       1.487951        40.4892 
 144   0.0000       1.516152        41.2566 
 145   0.0000       1.519421        41.3455 
 146   0.0000       1.551810        42.2269 
 147   0.0000       1.567645        42.6578 
 148   0.0000       1.589872        43.2626 
 149   0.0000       1.610049        43.8117 
 150   0.0000       1.627672        44.2912 
 151   0.0000       1.642664        44.6992 
 152   0.0000       1.662186        45.2304 
 153   0.0000       1.689352        45.9696 
 154   0.0000       1.709979        46.5309 
 155   0.0000       1.721787        46.8522 
 156   0.0000       1.748063        47.5672 
 157   0.0000       1.756004        47.7833 
 158   0.0000       1.768312        48.1182 
 159   0.0000       1.806301        49.1520 
 160   0.0000       1.834856        49.9290 
 161   0.0000       1.845344        50.2144 
 162   0.0000       1.871683        50.9311 
 163   0.0000       1.876108        51.0515 
 164   0.0000       1.914098        52.0853 
 165   0.0000       1.917362        52.1741 
 166   0.0000       1.918978        52.2180 
 167   0.0000       1.942802        52.8663 
 168   0.0000       1.945879        52.9500 
 169   0.0000       1.979852        53.8745 
 170   0.0000       2.034618        55.3648 
 171   0.0000       2.042262        55.5728 
 172   0.0000       2.045792        55.6688 
 173   0.0000       2.093507        56.9672 
 174   0.0000       2.130123        57.9636 
 175   0.0000       2.139481        58.2182 
 176   0.0000       2.143010        58.3143 
 177   0.0000       2.156507        58.6815 
 178   0.0000       2.171020        59.0765 
 179   0.0000       2.181899        59.3725 
 180   0.0000       2.216896        60.3248 
 181   0.0000       2.231680        60.7271 
 182   0.0000       2.268209        61.7211 
 183   0.0000       2.283662        62.1416 
 184   0.0000       2.301393        62.6241 
 185   0.0000       2.331048        63.4311 
 186   0.0000       2.342161        63.7334 
 187   0.0000       2.365919        64.3799 
 188   0.0000       2.374026        64.6005 
 189   0.0000       2.413134        65.6647 
 190   0.0000       2.416814        65.7648 
 191   0.0000       2.442292        66.4581 
 192   0.0000       2.459208        66.9184 
 193   0.0000       2.489801        67.7509 
 194   0.0000       2.520072        68.5746 
 195   0.0000       2.553300        69.4788 
 196   0.0000       2.560543        69.6759 
 197   0.0000       2.575905        70.0939 
 198   0.0000       2.598655        70.7130 
 199   0.0000       2.620621        71.3107 
 200   0.0000       2.644873        71.9706 
 201   0.0000       2.652809        72.1866 
 202   0.0000       2.655078        72.2484 
 203   0.0000       2.669008        72.6274 
 204   0.0000       2.701424        73.5095 
 205   0.0000       2.718676        73.9789 
 206   0.0000       2.724539        74.1385 
 207   0.0000       2.730006        74.2872 
 208   0.0000       2.744605        74.6845 
 209   0.0000       2.768316        75.3297 
 210   0.0000       2.793953        76.0273 
 211   0.0000       2.801538        76.2337 
 212   0.0000       2.824666        76.8631 
 213   0.0000       2.851611        77.5963 
 214   0.0000       2.855904        77.7131 
 215   0.0000       2.891206        78.6737 
 216   0.0000       2.903746        79.0149 
 217   0.0000       2.905036        79.0500 
 218   0.0000       2.925161        79.5977 
 219   0.0000       2.940543        80.0162 
 220   0.0000       2.953662        80.3732 
 221   0.0000       2.970909        80.8426 
 222   0.0000       2.986391        81.2638 
 223   0.0000       2.989822        81.3572 
 224   0.0000       3.003263        81.7229 
 225   0.0000       3.041441        82.7618 
 226   0.0000       3.044633        82.8487 
 227   0.0000       3.053067        83.0782 
 228   0.0000       3.106909        84.5433 
 229   0.0000       3.119216        84.8782 
 230   0.0000       3.126671        85.0810 
 231   0.0000       3.135391        85.3183 
 232   0.0000       3.150912        85.7407 
 233   0.0000       3.153831        85.8201 
 234   0.0000       3.167075        86.1805 
 235   0.0000       3.202494        87.1443 
 236   0.0000       3.217548        87.5539 
 237   0.0000       3.241919        88.2171 
 238   0.0000       3.248651        88.4003 
 239   0.0000       3.263965        88.8170 
 240   0.0000       3.267416        88.9109 
 241   0.0000       3.291635        89.5699 
 242   0.0000       3.303251        89.8860 
 243   0.0000       3.310986        90.0965 
 244   0.0000       3.324261        90.4577 
 245   0.0000       3.341656        90.9311 
 246   0.0000       3.354575        91.2826 
 247   0.0000       3.376435        91.8775 
 248   0.0000       3.386479        92.1508 
 249   0.0000       3.399312        92.5000 
 250   0.0000       3.407066        92.7110 
 251   0.0000       3.446314        93.7790 
 252   0.0000       3.456706        94.0617 
 253   0.0000       3.477798        94.6357 
 254   0.0000       3.482915        94.7749 
 255   0.0000       3.490931        94.9931 
 256   0.0000       3.505689        95.3946 
 257   0.0000       3.524362        95.9028 
 258   0.0000       3.549323        96.5820 
 259   0.0000       3.581125        97.4474 
 260   0.0000       3.646219        99.2187 
 261   0.0000       3.652265        99.3832 
 262   0.0000       3.705318       100.8268 
 263   0.0000       3.747739       101.9812 
 264   0.0000       3.757997       102.2603 
 265   0.0000       3.765187       102.4560 
 266   0.0000       3.782506       102.9272 
 267   0.0000       3.800442       103.4153 
 268   0.0000       3.854481       104.8858 
 269   0.0000       3.867162       105.2308 
 270   0.0000       3.895237       105.9948 
 271   0.0000       3.915465       106.5452 
 272   0.0000       3.951222       107.5182 
 273   0.0000       3.970813       108.0513 
 274   0.0000       3.979397       108.2849 
 275   0.0000       3.989948       108.5720 
 276   0.0000       3.997307       108.7723 
 277   0.0000       4.033484       109.7567 
 278   0.0000       4.042608       110.0050 
 279   0.0000       4.061091       110.5079 
 280   0.0000       4.080964       111.0487 
 281   0.0000       4.159583       113.1880 
 282   0.0000       4.201733       114.3350 
 283   0.0000       4.208788       114.5269 
 284   0.0000       4.214922       114.6939 
 285   0.0000       4.241128       115.4070 
 286   0.0000       4.245486       115.5256 
 287   0.0000       4.268011       116.1385 
 288   0.0000       4.291376       116.7743 
 289   0.0000       4.340210       118.1031 
 290   0.0000       4.360714       118.6611 
 291   0.0000       4.391678       119.5036 
 292   0.0000       4.501510       122.4923 
 293   0.0000       4.515014       122.8598 
 294   0.0000       4.540874       123.5635 
 295   0.0000       4.648723       126.4982 
 296   0.0000       4.662980       126.8861 
 297   0.0000       4.711244       128.1995 
 298   0.0000       4.778457       130.0284 
 299   0.0000       4.874190       132.6335 
 300   0.0000       4.903516       133.4314 
 301   0.0000       4.923475       133.9746 
 302   0.0000       4.946220       134.5935 
 303   0.0000       5.034899       137.0066 
 304   0.0000       5.170061       140.6845 
 305   0.0000       5.199673       141.4903 
 306   0.0000       5.270162       143.4084 
 307   0.0000       5.309004       144.4653 
 308   0.0000       5.318986       144.7370 
 309   0.0000       5.406332       147.1138 
 310   0.0000       5.452386       148.3670 
 311   0.0000       5.478786       149.0853 
 312   0.0000       5.500179       149.6675 
 313   0.0000       5.529536       150.4663 
 314   0.0000       5.643124       153.5572 
 315   0.0000       5.823461       158.4644 
 316   0.0000       6.028918       164.0552 
 317   0.0000       6.358256       173.0169 
 318   0.0000       6.421427       174.7359 
 319   0.0000       6.431605       175.0129 
 320   0.0000       6.729719       183.1250 
 321   0.0000       6.809439       185.2943 
 322   0.0000       6.816627       185.4898 
 323   0.0000       6.846676       186.3075 
 324   0.0000       6.851828       186.4477 
 325   0.0000       6.858784       186.6370 
 326   0.0000       6.863995       186.7788 
 327   0.0000       6.866016       186.8338 
 328   0.0000       6.868888       186.9120 
 329   0.0000       6.875282       187.0859 
 330   0.0000       6.883976       187.3225 
 331   0.0000       6.984371       190.0544 
 332   0.0000       6.985921       190.0966 
 333   0.0000       6.994446       190.3286 
 334   0.0000       7.017739       190.9624 
 335   0.0000       7.064511       192.2351 
 336   0.0000       7.092161       192.9875 
 337   0.0000       7.141279       194.3241 
 338   0.0000       7.301798       198.6920 
 339   0.0000       7.361419       200.3144 
 340   0.0000       7.373468       200.6423 
 341   0.0000       7.435320       202.3253 
 342   0.0000       7.482581       203.6114 
 343   0.0000       7.597205       206.7304 
 344   0.0000       7.627648       207.5588 
 345   0.0000       8.299259       225.8343 
 346   0.0000       8.328555       226.6315 
 347   0.0000       8.334499       226.7932 
 348   0.0000       8.482356       230.8166 
 349   0.0000       8.497261       231.2222 
 350   0.0000       8.584737       233.6026 
 351   0.0000       8.692421       236.5328 
 352   0.0000       8.770380       238.6542 
 353   0.0000       8.795334       239.3332 
 354   0.0000       8.909559       242.4414 
 355   0.0000       8.961332       243.8502 
 356   0.0000       9.015620       245.3275 
 357   0.0000       9.027260       245.6442 
 358   0.0000       9.105841       247.7825 
 359   0.0000       9.174693       249.6561 
 360   0.0000      22.108646       601.6068 
 361   0.0000      22.762186       619.3906 
 362   0.0000      22.775927       619.7645 
 363   0.0000      22.834033       621.3456 
 364   0.0000      22.939172       624.2066 
 365   0.0000      23.047945       627.1665 
 366   0.0000      23.432943       637.6428 
 367   0.0000      44.015591      1197.7251 
 368   0.0000      57.214345      1556.8815 
 369   0.0000      57.336089      1560.1943 
 370   0.0000      57.434525      1562.8729 

                    ********************************
                    * MULLIKEN POPULATION ANALYSIS *
                    ********************************

-----------------------
MULLIKEN ATOMIC CHARGES
-----------------------
   0 C :    0.081046
   1 C :   -0.209704
   2 C :   -0.226336
   3 H :    0.168736
   4 H :    0.163484
   5 C :   -0.226709
   6 C :   -0.227598
   7 H :    0.165336
   8 H :    0.153401
   9 C :    0.270753
  10 O :   -0.418931
  11 H :    0.372468
  12 C :    0.461454
  13 F :   -0.171512
  14 F :   -0.177665
  15 F :   -0.178224
Sum of atomic charges:   -0.0000000

--------------------------------
MULLIKEN REDUCED ORBITAL CHARGES
--------------------------------
  0 C s       :     3.163295  s :     3.163295
      pz      :     0.790958  p :     2.622266
      px      :     1.035264
      py      :     0.796043
      dz2     :     0.041256  d :     0.123516
      dxz     :     0.010621
      dyz     :     0.028708
      dx2y2   :     0.018397
      dxy     :     0.024535
      f0      :     0.001553  f :     0.009877
      f+1     :     0.000770
      f-1     :     0.003024
      f+2     :     0.000938
      f-2     :     0.001162
      f+3     :     0.001554
      f-3     :     0.000877
  1 C s       :     3.225359  s :     3.225359
      pz      :     0.981810  p :     2.875960
      px      :     0.935475
      py      :     0.958675
      dz2     :     0.018143  d :     0.100815
      dxz     :     0.023765
      dyz     :     0.038618
      dx2y2   :     0.008695
      dxy     :     0.011593
      f0      :     0.000848  f :     0.007571
      f+1     :     0.001528
      f-1     :     0.002197
      f+2     :     0.000765
      f-2     :     0.000473
      f+3     :     0.001061
      f-3     :     0.000700
  2 C s       :     3.249775  s :     3.249775
      pz      :     0.965367  p :     2.871037
      px      :     0.939132
      py      :     0.966537
      dz2     :     0.018156  d :     0.097997
      dxz     :     0.023437
      dyz     :     0.037652
      dx2y2   :     0.008784
      dxy     :     0.009969
      f0      :     0.000864  f :     0.007527
      f+1     :     0.001523
      f-1     :     0.002196
      f+2     :     0.000740
      f-2     :     0.000566
      f+3     :     0.000918
      f-3     :     0.000719
  3 H s       :     0.808898  s :     0.808898
      pz      :     0.006698  p :     0.022366
      px      :     0.004450
      py      :     0.011218
  4 H s       :     0.814345  s :     0.814345
      pz      :     0.005894  p :     0.022171
      px      :     0.004470
      py      :     0.011807
  5 C s       :     3.226170  s :     3.226170
      pz      :     0.923053  p :     2.910591
      px      :     1.028904
      py      :     0.958635
      dz2     :     0.017382  d :     0.082725
      dxz     :     0.017109
      dyz     :     0.030350
      dx2y2   :     0.009254
      dxy     :     0.008630
      f0      :     0.000868  f :     0.007223
      f+1     :     0.001473
      f-1     :     0.002061
      f+2     :     0.000765
      f-2     :     0.000426
      f+3     :     0.000917
      f-3     :     0.000713
  6 C s       :     3.245931  s :     3.245931
      pz      :     0.932288  p :     2.891991
      px      :     1.013777
      py      :     0.945926
      dz2     :     0.016118  d :     0.082229
      dxz     :     0.016771
      dyz     :     0.031148
      dx2y2   :     0.007979
      dxy     :     0.010213
      f0      :     0.000824  f :     0.007446
      f+1     :     0.001467
      f-1     :     0.002220
      f+2     :     0.000802
      f-2     :     0.000410
      f+3     :     0.001012
      f-3     :     0.000710
  7 H s       :     0.812397  s :     0.812397
      pz      :     0.005626  p :     0.022266
      px      :     0.005024
      py      :     0.011616
  8 H s       :     0.824308  s :     0.824308
      pz      :     0.006442  p :     0.022291
      px      :     0.004938
      py      :     0.010911
  9 C s       :     3.008483  s :     3.008483
      pz      :     0.721881  p :     2.521096
      px      :     0.893476
      py      :     0.905740
      dz2     :     0.034022  d :     0.183750
      dxz     :     0.049153
      dyz     :     0.060588
      dx2y2   :     0.015789
      dxy     :     0.024198
      f0      :     0.002575  f :     0.015917
      f+1     :     0.003446
      f-1     :     0.005521
      f+2     :     0.000742
      f-2     :     0.001068
      f+3     :     0.001667
      f-3     :     0.000898
 10 O s       :     3.752083  s :     3.752083
      pz      :     1.337444  p :     4.632412
      px      :     1.804503
      py      :     1.490464
      dz2     :     0.011468  d :     0.032661
      dxz     :     0.005832
      dyz     :     0.007698
      dx2y2   :     0.006176
      dxy     :     0.001487
      f0      :     0.000550  f :     0.001775
      f+1     :     0.000321
      f-1     :     0.000262
      f+2     :     0.000232
      f-2     :     0.000028
      f+3     :     0.000073
      f-3     :     0.000310
 11 H s       :     0.582402  s :     0.582402
      pz      :     0.011085  p :     0.045130
      px      :     0.014736
      py      :     0.019309
 12 C s       :     2.998489  s :     2.998489
      pz      :     0.887986  p :     2.159614
      px      :     0.643430
      py      :     0.628198
      dz2     :     0.049087  d :     0.340654
      dxz     :     0.074484
      dyz     :     0.066887
      dx2y2   :     0.075872
      dxy     :     0.074324
      f0      :     0.001977  f :     0.039789
      f+1     :     0.005628
      f-1     :     0.006448
      f+2     :     0.005359
      f-2     :     0.005887
      f+3     :     0.007901
      f-3     :     0.006587
 13 F s       :     3.907639  s :     3.907639
      pz      :     1.814421  p :     5.246899
      px      :     1.877906
      py      :     1.554573
      dz2     :     0.002253  d :     0.016228
      dxz     :     0.000943
      dyz     :     0.005345
      dx2y2   :     0.004567
      dxy     :     0.003120
      f0      :     0.000085  f :     0.000745
      f+1     :     0.000010
      f-1     :     0.000133
      f+2     :     0.000171
      f-2     :     0.000083
      f+3     :     0.000126
      f-3     :     0.000138
 14 F s       :     3.905654  s :     3.905654
      pz      :     1.846156  p :     5.255526
      px      :     1.703548
      py      :     1.705821
      dz2     :     0.002236  d :     0.015762
      dxz     :     0.002623
      dyz     :     0.002601
      dx2y2   :     0.002776
      dxy     :     0.005525
      f0      :     0.000079  f :     0.000724
      f+1     :     0.000069
      f-1     :     0.000068
      f+2     :     0.000039
      f-2     :     0.000168
      f+3     :     0.000149
      f-3     :     0.000151
 15 F s       :     3.903548  s :     3.903548
      pz      :     1.846557  p :     5.258338
      px      :     1.556192
      py      :     1.855589
      dz2     :     0.002226  d :     0.015622
      dxz     :     0.004260
      dyz     :     0.000889
      dx2y2   :     0.004479
      dxy     :     0.003768
      f0      :     0.000079  f :     0.000716
      f+1     :     0.000118
      f-1     :     0.000018
      f+2     :     0.000119
      f-2     :     0.000086
      f+3     :     0.000135
      f-3     :     0.000162


                     *******************************
                     * LOEWDIN POPULATION ANALYSIS *
                     *******************************

----------------------
LOEWDIN ATOMIC CHARGES
----------------------
   0 C :   -0.161297
   1 C :   -0.096554
   2 C :   -0.094767
   3 H :    0.163214
   4 H :    0.165289
   5 C :   -0.128113
   6 C :   -0.117229
   7 H :    0.161705
   8 H :    0.160470
   9 C :   -0.280604
  10 O :    0.097468
  11 H :    0.212173
  12 C :   -0.644884
  13 F :    0.200924
  14 F :    0.184108
  15 F :    0.178099

-------------------------------
LOEWDIN REDUCED ORBITAL CHARGES
-------------------------------
  0 C s       :     2.705662  s :     2.705662
      pz      :     0.944171  p :     2.907508
      px      :     0.911167
      py      :     1.052169
      dz2     :     0.159381  d :     0.491756
      dxz     :     0.041843
      dyz     :     0.134783
      dx2y2   :     0.073865
      dxy     :     0.081884
      f0      :     0.008515  f :     0.056372
      f+1     :     0.003771
      f-1     :     0.019721
      f+2     :     0.006687
      f-2     :     0.007867
      f+3     :     0.004162
      f-3     :     0.005649
  1 C s       :     2.755001  s :     2.755001
      pz      :     1.040117  p :     2.899259
      px      :     0.855917
      py      :     1.003225
      dz2     :     0.094461  d :     0.397919
      dxz     :     0.073855
      dyz     :     0.151008
      dx2y2   :     0.043250
      dxy     :     0.035344
      f0      :     0.007320  f :     0.044376
      f+1     :     0.006682
      f-1     :     0.014804
      f+2     :     0.004513
      f-2     :     0.003117
      f+3     :     0.003995
      f-3     :     0.003944
  2 C s       :     2.754229  s :     2.754229
      pz      :     1.043588  p :     2.900216
      px      :     0.858265
      py      :     0.998363
      dz2     :     0.099885  d :     0.395969
      dxz     :     0.075625
      dyz     :     0.146186
      dx2y2   :     0.043580
      dxy     :     0.030693
      f0      :     0.007485  f :     0.044353
      f+1     :     0.006340
      f-1     :     0.014986
      f+2     :     0.004488
      f-2     :     0.003922
      f+3     :     0.003388
      f-3     :     0.003743
  3 H s       :     0.775496  s :     0.775496
      pz      :     0.018255  p :     0.061290
      px      :     0.012922
      py      :     0.030114
  4 H s       :     0.774069  s :     0.774069
      pz      :     0.016270  p :     0.060643
      px      :     0.012881
      py      :     0.031492
  5 C s       :     2.759929  s :     2.759929
      pz      :     1.039637  p :     2.958233
      px      :     0.925883
      py      :     0.992713
      dz2     :     0.094474  d :     0.367357
      dxz     :     0.058753
      dyz     :     0.146237
      dx2y2   :     0.042634
      dxy     :     0.025259
      f0      :     0.007578  f :     0.042595
      f+1     :     0.005897
      f-1     :     0.014410
      f+2     :     0.004787
      f-2     :     0.003250
      f+3     :     0.002972
      f-3     :     0.003701
  6 C s       :     2.758967  s :     2.758967
      pz      :     1.040187  p :     2.950560
      px      :     0.914763
      py      :     0.995610
      dz2     :     0.089068  d :     0.365009
      dxz     :     0.055317
      dyz     :     0.149727
      dx2y2   :     0.042170
      dxy     :     0.028727
      f0      :     0.007511  f :     0.042692
      f+1     :     0.006127
      f-1     :     0.014410
      f+2     :     0.004723
      f-2     :     0.002601
      f+3     :     0.003415
      f-3     :     0.003905
  7 H s       :     0.776999  s :     0.776999
      pz      :     0.015826  p :     0.061295
      px      :     0.014453
      py      :     0.031016
  8 H s       :     0.778239  s :     0.778239
      pz      :     0.017757  p :     0.061291
      px      :     0.014183
      py      :     0.029350
  9 C s       :     2.715128  s :     2.715128
      pz      :     0.844882  p :     2.760504
      px      :     0.831004
      py      :     1.084618
      dz2     :     0.205376  d :     0.704588
      dxz     :     0.148951
      dyz     :     0.200325
      dx2y2   :     0.070120
      dxy     :     0.079817
      f0      :     0.019723  f :     0.100383
      f+1     :     0.020273
      f-1     :     0.035454
      f+2     :     0.006193
      f-2     :     0.007505
      f+3     :     0.005519
      f-3     :     0.005716
 10 O s       :     3.314019  s :     3.314019
      pz      :     1.379131  p :     4.511054
      px      :     1.687842
      py      :     1.444081
      dz2     :     0.024877  d :     0.072516
      dxz     :     0.014471
      dyz     :     0.023589
      dx2y2   :     0.008794
      dxy     :     0.000784
      f0      :     0.001477  f :     0.004943
      f+1     :     0.001032
      f-1     :     0.001461
      f+2     :     0.000410
      f-2     :     0.000026
      f+3     :     0.000042
      f-3     :     0.000496
 11 H s       :     0.635277  s :     0.635277
      pz      :     0.030085  p :     0.152551
      px      :     0.041133
      py      :     0.081332
 12 C s       :     2.743095  s :     2.743095
      pz      :     0.971349  p :     2.498973
      px      :     0.770726
      py      :     0.756898
      dz2     :     0.228895  d :     1.144242
      dxz     :     0.205707
      dyz     :     0.204621
      dx2y2   :     0.248329
      dxy     :     0.256689
      f0      :     0.015949  f :     0.258574
      f+1     :     0.031941
      f-1     :     0.035006
      f+2     :     0.040556
      f-2     :     0.043204
      f+3     :     0.047256
      f-3     :     0.044662
 13 F s       :     3.594273  s :     3.594273
      pz      :     1.760306  p :     5.172821
      px      :     1.808356
      py      :     1.604159
      dz2     :     0.004287  d :     0.030392
      dxz     :     0.001388
      dyz     :     0.010662
      dx2y2   :     0.008550
      dxy     :     0.005505
      f0      :     0.000160  f :     0.001591
      f+1     :     0.000024
      f-1     :     0.000354
      f+2     :     0.000340
      f-2     :     0.000162
      f+3     :     0.000269
      f-3     :     0.000282
 14 F s       :     3.602854  s :     3.602854
      pz      :     1.786157  p :     5.181886
      px      :     1.696113
      py      :     1.699616
      dz2     :     0.004215  d :     0.029620
      dxz     :     0.005023
      dyz     :     0.005235
      dx2y2   :     0.004714
      dxy     :     0.010434
      f0      :     0.000149  f :     0.001532
      f+1     :     0.000172
      f-1     :     0.000173
      f+2     :     0.000070
      f-2     :     0.000354
      f+3     :     0.000307
      f-3     :     0.000308
 15 F s       :     3.605953  s :     3.605953
      pz      :     1.788403  p :     5.185052
      px      :     1.600228
      py      :     1.796421
      dz2     :     0.004219  d :     0.029383
      dxz     :     0.008593
      dyz     :     0.001562
      dx2y2   :     0.008236
      dxy     :     0.006772
      f0      :     0.000148  f :     0.001513
      f+1     :     0.000294
      f-1     :     0.000044
      f+2     :     0.000244
      f-2     :     0.000177
      f+3     :     0.000287
      f-3     :     0.000320


                      *****************************
                      * MAYER POPULATION ANALYSIS *
                      *****************************

  NA   - Mulliken gross atomic population
  ZA   - Total nuclear charge
  QA   - Mulliken gross atomic charge
  VA   - Mayer's total valence
  BVA  - Mayer's bonded valence
  FA   - Mayer's free valence

  ATOM       NA         ZA         QA         VA         BVA        FA
  0 C      5.9190     6.0000     0.0810     3.5992     3.5992    -0.0000
  1 C      6.2097     6.0000    -0.2097     3.9117     3.9117     0.0000
  2 C      6.2263     6.0000    -0.2263     3.9935     3.9935    -0.0000
  3 H      0.8313     1.0000     0.1687     0.9694     0.9694     0.0000
  4 H      0.8365     1.0000     0.1635     0.9694     0.9694    -0.0000
  5 C      6.2267     6.0000    -0.2267     3.8572     3.8572    -0.0000
  6 C      6.2276     6.0000    -0.2276     3.9418     3.9418    -0.0000
  7 H      0.8347     1.0000     0.1653     0.9654     0.9654     0.0000
  8 H      0.8466     1.0000     0.1534     0.9752     0.9752    -0.0000
  9 C      5.7292     6.0000     0.2708     4.0002     4.0002    -0.0000
 10 O      8.4189     8.0000    -0.4189     2.0903     2.0903    -0.0000
 11 H      0.6275     1.0000     0.3725     0.8741     0.8741    -0.0000
 12 C      5.5385     6.0000     0.4615     4.5183     4.5183    -0.0000
 13 F      9.1715     9.0000    -0.1715     1.1284     1.1284    -0.0000
 14 F      9.1777     9.0000    -0.1777     1.1123     1.1123    -0.0000
 15 F      9.1782     9.0000    -0.1782     1.1050     1.1050    -0.0000

  Mayer bond orders larger than 0.100000
B(  0-C ,  1-C ) :   1.3390 B(  0-C ,  2-C ) :   1.3238 B(  0-C , 12-C ) :   1.0220 
B(  1-C ,  3-H ) :   0.9519 B(  1-C ,  5-C ) :   1.3976 B(  2-C ,  4-H ) :   0.9695 
B(  2-C ,  6-C ) :   1.4712 B(  5-C ,  7-H ) :   0.9600 B(  5-C ,  9-C ) :   1.3552 
B(  6-C ,  8-H ) :   0.9756 B(  6-C ,  9-C ) :   1.3527 B(  9-C , 10-O ) :   1.1521 
B( 10-O , 11-H ) :   0.8470 B( 12-C , 13-F ) :   1.1470 B( 12-C , 14-F ) :   1.1421 
B( 12-C , 15-F ) :   1.1442 

-------
TIMINGS
-------

Total SCF time: 0 days 0 hours 0 min 25 sec 

Total time                  ....      25.869 sec
Sum of individual times     ....      24.413 sec  ( 94.4%)

Fock matrix formation       ....      21.587 sec  ( 83.4%)
  Split-RI-J                ....       2.444 sec  ( 11.3% of F)
  Chain of spheres X        ....      10.085 sec  ( 46.7% of F)
  XC integration            ....       4.283 sec  ( 19.8% of F)
    Basis function eval.    ....       0.379 sec  (  8.8% of XC)
    Density eval.           ....       0.406 sec  (  9.5% of XC)
    XC-Functional eval.     ....       0.062 sec  (  1.4% of XC)
    XC-Potential eval.      ....       0.432 sec  ( 10.1% of XC)
Diagonalization             ....       0.463 sec  (  1.8%)
Density matrix formation    ....       0.033 sec  (  0.1%)
Population analysis         ....       0.109 sec  (  0.4%)
Initial guess               ....       0.286 sec  (  1.1%)
Orbital Transformation      ....       0.000 sec  (  0.0%)
Orbital Orthonormalization  ....       0.000 sec  (  0.0%)
DIIS solution               ....       0.314 sec  (  1.2%)
SOSCF solution              ....       0.294 sec  (  1.1%)
Grid generation             ....       1.328 sec  (  5.1%)

Maximum memory used throughout the entire SCF-calculation: 83.4 MB


-------------------------------------------------------------------------------
                          DFT DISPERSION CORRECTION                            
                                                                               
                              DFTD3 V3.1  Rev 1                                
[...]
     37      -0.113692   0.184254  -0.327700   0.035472   0.037494  -0.008981
     38      -0.089502  -0.006072   0.018190  -0.022216  -0.012640   0.012804
     39      -0.065153  -0.012851   0.019885  -0.002814  -0.002279  -0.000124
     40      -0.037761  -0.064975   0.102681  -0.011870  -0.011516  -0.000121
     41       0.034362   0.031425  -0.049542   0.007753   0.004923   0.003059
     42      -0.190442   0.018517  -0.026677   0.001232   0.001670  -0.001223
     43       0.143281  -0.030098   0.047952  -0.004401  -0.004373   0.002079
     44       0.094936  -0.013216   0.017141  -0.000327  -0.000219   0.001601
     45      -0.190841  -0.017204   0.023389  -0.003066  -0.001467   0.002026
     46      -0.041351  -0.015863   0.027073  -0.003281  -0.003096   0.001516
     47      -0.058837  -0.008264   0.009101  -0.000655   0.000321   0.001820
                 36         37         38         39         40         41    
      0      -0.007023   0.014751  -0.018906  -0.016707  -0.003478   0.028262
      1      -0.090599   0.159260  -0.208121  -0.185140  -0.044889   0.314848
      2       0.223747   0.090658   0.010817   0.046571  -0.190208  -0.075318
      3       0.003515  -0.000875   0.009554   0.004767   0.010155  -0.014229
      4       0.045809  -0.002686   0.117766   0.042231   0.119359  -0.160748
      5       0.040922   0.062306   0.200997  -0.153770   0.077777  -0.004430
      6      -0.004265  -0.001149   0.012098   0.006773  -0.007988  -0.021179
      7      -0.037974  -0.009740   0.121557   0.087215  -0.081145  -0.214838
      8       0.058529   0.013566  -0.203577   0.133218   0.096750   0.223673
      9       0.003369  -0.025023  -0.011959   0.025109  -0.010792  -0.007073
     10       0.042105  -0.321550  -0.134612   0.287982  -0.148267  -0.064031
     11       0.036835  -0.448484  -0.214409   0.211861  -0.392418   0.186244
     12       0.032997  -0.024808  -0.018021   0.020347   0.018979   0.011883
     13       0.299543  -0.234322  -0.174823   0.220845   0.177965   0.102174
     14      -0.574924   0.443487   0.362655  -0.064830  -0.415117  -0.404124
     15      -0.002584  -0.006756   0.009608   0.001291  -0.010277   0.020762
     16      -0.034337  -0.076656   0.089943   0.026499  -0.102678   0.215299
     17      -0.066820   0.014954  -0.182991   0.164200   0.135883  -0.165924
     18       0.008727  -0.003396   0.005202   0.000192   0.008772   0.016820
     19       0.099280  -0.045354   0.070162  -0.018544   0.106294   0.183863
     20       0.017757  -0.082601   0.133583  -0.212387   0.091461  -0.036406
     21      -0.001479   0.014537  -0.004150   0.025667   0.019595  -0.003071
     22      -0.036916   0.153731  -0.017629   0.288657   0.196877  -0.002711
     23      -0.070347  -0.444104   0.011721  -0.291584  -0.461553   0.275958
     24      -0.016005   0.011078   0.003303   0.028742  -0.010786   0.013302
     25      -0.247443   0.140199   0.052034   0.356126  -0.149603   0.133137
     26      -0.549132   0.211462   0.103100   0.349009  -0.349618  -0.170753
     27       0.001832   0.000102  -0.021730  -0.013892  -0.000857  -0.035179
     28       0.020385  -0.000478  -0.235936  -0.149016  -0.027323  -0.383820
     29       0.008843  -0.054347  -0.002963   0.013679  -0.220327   0.051650
     30      -0.001319   0.002170   0.005098   0.005541   0.000992   0.004971
     31      -0.014668   0.024157   0.050078   0.057003   0.014867   0.051204
     32      -0.010441   0.014040  -0.025022  -0.021816   0.050472  -0.019353
     33       0.003254  -0.007299  -0.024440  -0.014372  -0.004090  -0.014318
     34       0.025061  -0.080252  -0.223510  -0.128876  -0.046960  -0.121322
     35      -0.116959   0.277875   0.655091   0.438862   0.197667   0.394234
     36       0.013417  -0.000100   0.003102   0.004788   0.000297  -0.003341
     37       0.048049  -0.036488   0.037783   0.050578   0.007441  -0.036124
     38      -0.315363  -0.120406  -0.006551  -0.024307   0.075629   0.005238
     39      -0.009710  -0.002712  -0.000726  -0.000573   0.000749  -0.000299
     40      -0.042283  -0.009463  -0.005027  -0.004526   0.002847  -0.000050
     41       0.038267   0.018259  -0.003039  -0.002667  -0.004708   0.006908
     42      -0.020590  -0.007047  -0.000488  -0.001726   0.001508   0.001119
     43       0.014657   0.009389  -0.002913  -0.002242  -0.001618   0.002592
     44       0.030748   0.007831   0.004110   0.004390  -0.002373  -0.003157
     45       0.021627   0.007975   0.000531   0.001182  -0.001643   0.000066
     46       0.003610   0.005563  -0.003453  -0.003190  -0.000836   0.003369
     47       0.027876   0.007917   0.003329   0.003251  -0.002363  -0.001433
                 42         43         44         45         46         47    
      0      -0.010409  -0.000032   0.000184   0.000215  -0.000211  -0.000016
      1      -0.115121  -0.000238   0.001783   0.002251  -0.002681   0.000022
      2      -0.203964   0.000508  -0.001746  -0.001172  -0.002146   0.000351
      3       0.012202  -0.001699  -0.000004  -0.000666   0.006800  -0.000005
      4       0.162286  -0.018277  -0.000091  -0.007087   0.071844  -0.000139
      5       0.315059   0.007592   0.000629   0.004634  -0.044373  -0.000263
      6      -0.004221   0.000512  -0.005492  -0.003435  -0.000310  -0.000004
      7      -0.023043   0.005983  -0.064628  -0.040909  -0.003681  -0.000060
      8       0.268463   0.002650  -0.032533  -0.025004  -0.001532  -0.000216
      9      -0.020030   0.019940   0.000572   0.007954  -0.077788  -0.000060
     10      -0.240747   0.209543   0.006292   0.083618  -0.816753  -0.000532
     11      -0.351384  -0.125236  -0.004157  -0.051649   0.500917   0.000820
     12       0.023464  -0.005622   0.062276   0.039127   0.003045   0.000059
     13       0.246193  -0.066898   0.740232   0.465474   0.036414   0.000732
     14      -0.220345  -0.035133   0.389585   0.248873   0.018899   0.000279
     15       0.001342   0.006370   0.000550  -0.000059   0.001592   0.000024
     16      -0.005729   0.074150   0.006423  -0.000760   0.018833   0.000585
     17      -0.252626   0.039022   0.003464  -0.001229   0.013250   0.000960
     18      -0.009779  -0.000258   0.003673  -0.005868  -0.000651   0.000054
     19      -0.137219  -0.002781   0.039232  -0.062034  -0.006913   0.000721
     20      -0.300825   0.001005  -0.021870   0.041179   0.004166   0.000733
     21      -0.021809  -0.072805  -0.006278   0.000948  -0.018180  -0.000525
     22      -0.234576  -0.846523  -0.072921   0.011158  -0.211215  -0.003993
     23       0.149356  -0.451207  -0.039174   0.006660  -0.115511  -0.003508
     24       0.016626   0.002784  -0.042301   0.066475   0.007168   0.000013
     25       0.211415   0.029563  -0.448887   0.705854   0.076174   0.000345
     26       0.247406  -0.017592   0.280718  -0.446470  -0.047964   0.000024
     27       0.010686  -0.000253  -0.000117   0.000249  -0.000090  -0.000218
     28       0.130699  -0.002525  -0.001391   0.002947  -0.000890  -0.002112
     29       0.180889   0.002978  -0.000688   0.002403   0.001561  -0.000723
     30      -0.002046   0.000039   0.000016  -0.000025   0.000021  -0.005416
     31      -0.021858   0.000367   0.000182  -0.000295   0.000190  -0.057318
     32      -0.006526  -0.000284  -0.000017  -0.000299  -0.000272  -0.023440
     33       0.007462  -0.000196  -0.000111   0.000014  -0.000142   0.088026
     34       0.070939  -0.002977  -0.001245   0.000049  -0.001760   0.924440
     35      -0.204159  -0.007443  -0.000017  -0.001954  -0.002022   0.365733
     36       0.000316  -0.000035  -0.000014  -0.000034   0.000101  -0.000011
     37       0.009925  -0.000155  -0.000631  -0.000518   0.000754  -0.000043
     38       0.022038  -0.000088  -0.000108  -0.000233  -0.000465  -0.000393
     39      -0.000002   0.000012  -0.000007  -0.000006  -0.000041   0.000002
     40      -0.001675   0.000102  -0.000013   0.000002  -0.000386  -0.000022
     41      -0.001339   0.000068   0.000120   0.000134  -0.000157   0.000049
     42      -0.001959  -0.000002  -0.000047  -0.000036  -0.000053  -0.000019
     43       0.002362   0.000009   0.000143   0.000101   0.000035   0.000043
     44       0.004121   0.000009   0.000000   0.000025   0.000138   0.000062
     45       0.003296   0.000012   0.000062   0.000056   0.000062   0.000046
     46       0.001115   0.000012   0.000064   0.000050   0.000003   0.000031
     47       0.004473   0.000010   0.000043   0.000057   0.000124   0.000067


-----------
IR SPECTRUM
-----------

 Mode   freq       eps      Int      T**2         TX        TY        TZ
       cm**-1   L/(mol*cm) km/mol    a.u.
----------------------------------------------------------------------------
  6:     14.67   0.000116    0.59  0.002468  (-0.049602 -0.001473 -0.002441)
  7:     96.02   0.000017    0.09  0.000055  (-0.007422  0.000535 -0.000197)
  8:    177.39   0.000220    1.11  0.000386  (-0.003048 -0.017516 -0.008382)
  9:    233.66   0.000012    0.06  0.000016  (-0.001862 -0.000150 -0.003526)
 10:    312.83   0.000889    4.49  0.000887  (-0.001029  0.003139  0.029600)
 11:    374.79   0.002143   10.83  0.001784  ( 0.004051  0.015407  0.039121)
 12:    404.86   0.019147   96.76  0.014759  (-0.120729  0.011497 -0.007142)
 13:    414.23   0.014975   75.68  0.011282  ( 0.105653 -0.010265 -0.003709)
 14:    426.44   0.002682   13.55  0.001962  (-0.044219  0.002630 -0.000247)
 15:    443.30   0.001257    6.35  0.000885  ( 0.001244 -0.011596  0.027367)
 16:    518.69   0.002161   10.92  0.001300  ( 0.035758 -0.003741 -0.002787)
 17:    581.85   0.000004    0.02  0.000002  ( 0.000396  0.001286  0.000655)
 18:    598.84   0.005069   25.62  0.002641  (-0.050245  0.005074  0.009548)
 19:    609.61   0.011295   57.08  0.005782  ( 0.002348  0.000437  0.076003)
 20:    649.82   0.000450    2.27  0.000216  ( 0.000749  0.013632 -0.005444)
 21:    754.78   0.000113    0.57  0.000047  ( 0.003808 -0.000633 -0.005635)
 22:    763.82   0.000038    0.19  0.000016  (-0.000392  0.000702  0.003882)
 23:    832.76   0.001309    6.62  0.000491  ( 0.021898 -0.003269  0.000670)
 24:    858.76   0.001943    9.82  0.000706  ( 0.000652  0.000618 -0.026558)
 25:    860.85   0.024718  124.91  0.008960  ( 0.094126 -0.008741  0.004914)
 26:    968.05   0.001768    8.94  0.000570  ( 0.023561 -0.002726  0.002741)
 27:    982.48   0.000069    0.35  0.000022  (-0.004555 -0.000356 -0.001033)
 28:   1029.09   0.006010   30.37  0.001822  (-0.003201 -0.007940 -0.041822)
 29:   1088.11   0.038913  196.65  0.011160  ( 0.036666  0.024055  0.096110)
 30:   1104.74   0.077544  391.87  0.021904  ( 0.145968 -0.020603 -0.013163)
 31:   1123.25   0.041229  208.35  0.011454  ( 0.010507  0.103112  0.026680)
 32:   1159.60   0.034245  173.06  0.009216  (-0.008674 -0.093763 -0.018687)
 33:   1191.41   0.026985  136.37  0.007068  ( 0.004370  0.013201 -0.082915)
 34:   1202.91   0.049304  249.16  0.012791  ( 0.003342  0.023428 -0.110592)
 35:   1317.27   0.040189  203.10  0.009521  (-0.000801  0.001678  0.097558)
 36:   1335.88   0.102620  518.60  0.023972  ( 0.005090  0.016505 -0.153863)
 37:   1350.78   0.024657  124.61  0.005696  (-0.000417 -0.024157 -0.071503)
 38:   1396.31   0.006240   31.53  0.001394  ( 0.000379  0.009940  0.035994)
 39:   1480.89   0.004184   21.14  0.000882  ( 0.001604  0.019608  0.022240)
 40:   1566.05   0.012389   62.61  0.002469  ( 0.000234  0.000707 -0.049680)
 41:   1656.88   0.012799   64.68  0.002411  (-0.002982 -0.027812  0.040351)
 42:   1676.62   0.035534  179.57  0.006614  ( 0.000050  0.013047  0.080272)
 43:   3196.46   0.001014    5.12  0.000099  ( 0.000166  0.001877  0.009768)
 44:   3203.67   0.000365    1.85  0.000036  (-0.000284 -0.001920 -0.005639)
 45:   3218.43   0.000296    1.50  0.000029  (-0.000455 -0.003878  0.003668)
 46:   3224.00   0.000063    0.32  0.000006  ( 0.000063  0.002024  0.001421)
 47:   3815.21   0.041324  208.84  0.003380  ( 0.003603  0.038642  0.043289)

* The epsilon (eps) is given for a Dirac delta lineshape.
** The dipole moment derivative (T) already includes vibrational overlap.

The first frequency considered to be a vibration is 6
The total number of vibrations considered is 42


--------------------------
THERMOCHEMISTRY AT 298.15K
--------------------------

Temperature         ... 298.15 K
Pressure            ... 1.00 atm
Total Mass          ... 162.11 AMU

Throughout the following assumptions are being made:
  (1) The electronic state is orbitally nondegenerate
  (2) There are no thermally accessible electronically excited states
  (3) Hindered rotations indicated by low frequency modes are not
      treated as such but are treated as vibrations and this may
      cause some error
  (4) All equations used are the standard statistical mechanics
      equations for an ideal gas
  (5) All vibrations are strictly harmonic

freq.      14.67  E(vib)   ...       0.57 
freq.      96.02  E(vib)   ...       0.47 
freq.     177.39  E(vib)   ...       0.37 
freq.     233.66  E(vib)   ...       0.32 
freq.     312.83  E(vib)   ...       0.25 
freq.     374.79  E(vib)   ...       0.21 
freq.     404.86  E(vib)   ...       0.19 
freq.     414.23  E(vib)   ...       0.19 
freq.     426.44  E(vib)   ...       0.18 
freq.     443.30  E(vib)   ...       0.17 
freq.     518.69  E(vib)   ...       0.13 
freq.     581.85  E(vib)   ...       0.11 
freq.     598.84  E(vib)   ...       0.10 
freq.     609.61  E(vib)   ...       0.10 
freq.     649.82  E(vib)   ...       0.08 
freq.     754.78  E(vib)   ...       0.06 
freq.     763.82  E(vib)   ...       0.06 
freq.     832.76  E(vib)   ...       0.04 
freq.     858.76  E(vib)   ...       0.04 
freq.     860.85  E(vib)   ...       0.04 
freq.     968.05  E(vib)   ...       0.03 
freq.     982.48  E(vib)   ...       0.02 
freq.    1029.09  E(vib)   ...       0.02 
freq.    1088.11  E(vib)   ...       0.02 
freq.    1104.74  E(vib)   ...       0.02 
freq.    1123.25  E(vib)   ...       0.01 
freq.    1159.60  E(vib)   ...       0.01 
freq.    1191.41  E(vib)   ...       0.01 
freq.    1202.91  E(vib)   ...       0.01 
freq.    1317.27  E(vib)   ...       0.01 
freq.    1335.88  E(vib)   ...       0.01 
freq.    1350.78  E(vib)   ...       0.01 
freq.    1396.31  E(vib)   ...       0.00 
freq.    1480.89  E(vib)   ...       0.00 
freq.    1566.05  E(vib)   ...       0.00 
freq.    1656.88  E(vib)   ...       0.00 
freq.    1676.62  E(vib)   ...       0.00 
freq.    3196.46  E(vib)   ...       0.00 
freq.    3203.67  E(vib)   ...       0.00 
freq.    3218.43  E(vib)   ...       0.00 
freq.    3224.00  E(vib)   ...       0.00 
freq.    3815.21  E(vib)   ...       0.00 

------------
INNER ENERGY
------------

The inner energy is: U= E(el) + E(ZPE) + E(vib) + E(rot) + E(trans)
    E(el)   - is the total energy from the electronic structure calculation
              = E(kin-el) + E(nuc-el) + E(el-el) + E(nuc-nuc)
    E(ZPE)  - the the zero temperature vibrational energy from the frequency calculation
    E(vib)  - the the finite temperature correction to E(ZPE) due to population
              of excited vibrational states
    E(rot)  - is the rotational thermal energy
    E(trans)- is the translational thermal energy

Summary of contributions to the inner energy U:
Electronic energy                ...   -644.13410674 Eh
Zero point energy                ...      0.10984423 Eh      68.93 kcal/mol
Thermal vibrational correction   ...      0.00615366 Eh       3.86 kcal/mol
Thermal rotational correction    ...      0.00141627 Eh       0.89 kcal/mol
Thermal translational correction ...      0.00141627 Eh       0.89 kcal/mol
-----------------------------------------------------------------------
Total thermal energy                   -644.01527630 Eh


Summary of corrections to the electronic energy:
(perhaps to be used in another calculation)
Total thermal correction                  0.00898620 Eh       5.64 kcal/mol
Non-thermal (ZPE) correction              0.10984423 Eh      68.93 kcal/mol
-----------------------------------------------------------------------
Total correction                          0.11883044 Eh      74.57 kcal/mol


--------
ENTHALPY
--------

The enthalpy is H = U + kB*T
                kB is Boltzmann's constant
Total free energy                 ...   -644.01527630 Eh 
Thermal Enthalpy correction       ...      0.00094421 Eh       0.59 kcal/mol
-----------------------------------------------------------------------
Total Enthalpy                    ...   -644.01433209 Eh


Note: Only C1 symmetry has been detected, increase convergence thresholds 
      if your molecule has a higher symmetry. Symmetry factor of 1.0 is   
      used for the rotational entropy correction. 
 

Note: Rotational entropy computed according to Herzberg 
Infrared and Raman Spectra, Chapter V,1, Van Nostrand Reinhold, 1945 
Point Group:  C1, Symmetry Number:   1  
Rotational constants in cm-1:     0.095210     0.021013     0.018909 

Vibrational entropy computed according to the QRRHO of S. Grimme
Chem.Eur.J. 2012 18 9955


-------
ENTROPY
-------

The entropy contributions are T*S = T*(S(el)+S(vib)+S(rot)+S(trans))
     S(el)   - electronic entropy
     S(vib)  - vibrational entropy
     S(rot)  - rotational entropy
     S(trans)- translational entropy
The entropies will be listed as multiplied by the temperature to get
units of energy

Electronic entropy                ...      0.00000000 Eh      0.00 kcal/mol
Vibrational entropy               ...      0.01054849 Eh      6.62 kcal/mol
Rotational entropy                ...      0.01431783 Eh      8.98 kcal/mol
Translational entropy             ...      0.01955545 Eh     12.27 kcal/mol
-----------------------------------------------------------------------
Final entropy term                ...      0.04442178 Eh     27.88 kcal/mol

In case the symmetry of your molecule has not been determined correctly
or in case you have a reason to use a different symmetry number we print 
out the resulting rotational entropy values for sn=1,12 :
 --------------------------------------------------------
|  sn= 1 | S(rot)=       0.01431783 Eh      8.98 kcal/mol|
|  sn= 2 | S(rot)=       0.01366338 Eh      8.57 kcal/mol|
|  sn= 3 | S(rot)=       0.01328055 Eh      8.33 kcal/mol|
|  sn= 4 | S(rot)=       0.01300892 Eh      8.16 kcal/mol|
|  sn= 5 | S(rot)=       0.01279823 Eh      8.03 kcal/mol|
|  sn= 6 | S(rot)=       0.01262609 Eh      7.92 kcal/mol|
|  sn= 7 | S(rot)=       0.01248054 Eh      7.83 kcal/mol|
|  sn= 8 | S(rot)=       0.01235446 Eh      7.75 kcal/mol|
|  sn= 9 | S(rot)=       0.01224326 Eh      7.68 kcal/mol|
|  sn=10 | S(rot)=       0.01214378 Eh      7.62 kcal/mol|
|  sn=11 | S(rot)=       0.01205379 Eh      7.56 kcal/mol|
|  sn=12 | S(rot)=       0.01197163 Eh      7.51 kcal/mol|
 --------------------------------------------------------


-------------------
GIBBS FREE ENERGY
-------------------

The Gibbs free energy is G = H - T*S

Total enthalpy                    ...   -644.01433209 Eh 
Total entropy correction          ...     -0.04442178 Eh    -27.88 kcal/mol
-----------------------------------------------------------------------
Final Gibbs free energy         ...   -644.05875387 Eh

For completeness - the Gibbs free energy minus the electronic energy
G-E(el)                           ...      0.07535287 Eh     47.28 kcal/mol


Timings for individual modules:

Sum of individual times         ...      292.730 sec (=   4.879 min)
GTO integral calculation        ...        5.081 sec (=   0.085 min)   1.7 %
SCF iterations                  ...       64.325 sec (=   1.072 min)  22.0 %
SCF Gradient evaluation         ...       12.429 sec (=   0.207 min)   4.2 %
Geometry relaxation             ...        0.209 sec (=   0.003 min)   0.1 %
Analytical frequency calculation...      210.686 sec (=   3.511 min)  72.0 %
                             ****ORCA TERMINATED NORMALLY****
TOTAL RUN TIME: 0 days 0 hours 5 minutes 1 seconds 322 msec
