
                                 *****************
                                 * O   R   C   A *
                                 *****************

                                            #,                                       
                                            ###                                      
                                            ####                                     
                                            #####                                    
                                            ######                                   
                                           ########,                                 
                                     ,,################,,,,,                         
                               ,,#################################,,                 
                          ,,##########################################,,             
                       ,#########################################, ''#####,          
                    ,#############################################,,   '####,        
                  ,##################################################,,,,####,       
                ,###########''''           ''''###############################       
              ,#####''   ,,,,##########,,,,          '''####'''          '####       
            ,##' ,,,,###########################,,,                        '##       
           ' ,,###''''                  '''############,,,                           
         ,,##''                                '''############,,,,        ,,,,,,###''
      ,#''                                            '''#######################'''  
     '                                                          ''''####''''         
             ,#######,   #######,   ,#######,      ##                                
            ,#'     '#,  ##    ##  ,#'     '#,    #''#        ######   ,####,        
            ##       ##  ##   ,#'  ##            #'  '#       #        #'  '#        
            ##       ##  #######   ##           ,######,      #####,   #    #        
            '#,     ,#'  ##    ##  '#,     ,#' ,#      #,         ##   #,  ,#        
             '#######'   ##     ##  '#######'  #'      '#     #####' # '####'        



                  #######################################################
                  #                        -***-                        #
                  #          Department of theory and spectroscopy      #
                  #    Directorship and core code : Frank Neese         #
                  #        Max Planck Institute fuer Kohlenforschung    #
                  #                Kaiser Wilhelm Platz 1               #
                  #                 D-45470 Muelheim/Ruhr               #
                  #                      Germany                        #
                  #                                                     #
                  #                  All rights reserved                #
                  #                        -***-                        #
                  #######################################################


                         Program Version 5.0.4 -  RELEASE  -


 With contributions from (in alphabetic order):
   Daniel Aravena         : Magnetic Suceptibility
   Michael Atanasov       : Ab Initio Ligand Field Theory (pilot matlab implementation)
   Alexander A. Auer      : GIAO ZORA, VPT2 properties, NMR spectrum
   Ute Becker             : Parallelization
   Giovanni Bistoni       : ED, misc. LED, open-shell LED, HFLD
   Martin Brehm           : Molecular dynamics
   Dmytro Bykov           : SCF Hessian
   Vijay G. Chilkuri      : MRCI spin determinant printing, contributions to CSF-ICE
   Dipayan Datta          : RHF DLPNO-CCSD density
   Achintya Kumar Dutta   : EOM-CC, STEOM-CC
   Dmitry Ganyushin       : Spin-Orbit,Spin-Spin,Magnetic field MRCI
   Miquel Garcia          : C-PCM and meta-GGA Hessian, CC/C-PCM, Gaussian charge scheme
   Yang Guo               : DLPNO-NEVPT2, F12-NEVPT2, CIM, IAO-localization
   Andreas Hansen         : Spin unrestricted coupled pair/coupled cluster methods
   Benjamin Helmich-Paris : MC-RPA, TRAH-SCF, COSX integrals
   Lee Huntington         : MR-EOM, pCC
   Robert Izsak           : Overlap fitted RIJCOSX, COSX-SCS-MP3, EOM
   Marcus Kettner         : VPT2
   Christian Kollmar      : KDIIS, OOCD, Brueckner-CCSD(T), CCSD density, CASPT2, CASPT2-K
   Simone Kossmann        : Meta GGA functionals, TD-DFT gradient, OOMP2, MP2 Hessian
   Martin Krupicka        : Initial AUTO-CI
   Lucas Lang             : DCDCAS
   Marvin Lechner         : AUTO-CI (C++ implementation), FIC-MRCC
   Dagmar Lenk            : GEPOL surface, SMD
   Dimitrios Liakos       : Extrapolation schemes; Compound Job, initial MDCI parallelization
   Dimitrios Manganas     : Further ROCIS development; embedding schemes
   Dimitrios Pantazis     : SARC Basis sets
   Anastasios Papadopoulos: AUTO-CI, single reference methods and gradients
   Taras Petrenko         : DFT Hessian,TD-DFT gradient, ASA, ECA, R-Raman, ABS, FL, XAS/XES, NRVS
   Peter Pinski           : DLPNO-MP2, DLPNO-MP2 Gradient
   Christoph Reimann      : Effective Core Potentials
   Marius Retegan         : Local ZFS, SOC
   Christoph Riplinger    : Optimizer, TS searches, QM/MM, DLPNO-CCSD(T), (RO)-DLPNO pert. Triples
   Tobias Risthaus        : Range-separated hybrids, TD-DFT gradient, RPA, STAB
   Michael Roemelt        : Original ROCIS implementation
   Masaaki Saitow         : Open-shell DLPNO-CCSD energy and density
   Barbara Sandhoefer     : DKH picture change effects
   Avijit Sen             : IP-ROCIS
   Kantharuban Sivalingam : CASSCF convergence, NEVPT2, FIC-MRCI
   Bernardo de Souza      : ESD, SOC TD-DFT
   Georgi Stoychev        : AutoAux, RI-MP2 NMR, DLPNO-MP2 response
   Willem Van den Heuvel  : Paramagnetic NMR
   Boris Wezisla          : Elementary symmetry handling
   Frank Wennmohs         : Technical directorship


 We gratefully acknowledge several colleagues who have allowed us to
 interface, adapt or use parts of their codes:
   Stefan Grimme, W. Hujo, H. Kruse, P. Pracht,  : VdW corrections, initial TS optimization,
                  C. Bannwarth, S. Ehlert          DFT functionals, gCP, sTDA/sTD-DF
   Ed Valeev, F. Pavosevic, A. Kumar             : LibInt (2-el integral package), F12 methods
   Garnet Chan, S. Sharma, J. Yang, R. Olivares  : DMRG
   Ulf Ekstrom                                   : XCFun DFT Library
   Mihaly Kallay                                 : mrcc  (arbitrary order and MRCC methods)
   Jiri Pittner, Ondrej Demel                    : Mk-CCSD
   Frank Weinhold                                : gennbo (NPA and NBO analysis)
   Christopher J. Cramer and Donald G. Truhlar   : smd solvation model
   Lars Goerigk                                  : TD-DFT with DH, B97 family of functionals
   V. Asgeirsson, H. Jonsson                     : NEB implementation
   FAccTs GmbH                                   : IRC, NEB, NEB-TS, DLPNO-Multilevel, CI-OPT
                                                   MM, QMMM, 2- and 3-layer-ONIOM, Crystal-QMMM,
                                                   LR-CPCM, SF, NACMEs, symmetry and pop. for TD-DFT,
                                                   nearIR, NL-DFT gradient (VV10), updates on ESD,
                                                   ML-optimized integration grids
   S Lehtola, MJT Oliveira, MAL Marques          : LibXC Library
   Liviu Ungur et al                             : ANISO software


 Your calculation uses the libint2 library for the computation of 2-el integrals
 For citations please refer to: http://libint.valeyev.net

 Your ORCA version has been built with support for libXC version: 5.1.0
 For citations please refer to: https://tddft.org/programs/libxc/

 This ORCA versions uses:
   CBLAS   interface :  Fast vector & matrix operations
   LAPACKE interface :  Fast linear algebra routines
   SCALAPACK package :  Parallel linear algebra routines
   Shared memory     :  Shared parallel matrices
   BLAS/LAPACK       :  OpenBLAS 0.3.15  USE64BITINT DYNAMIC_ARCH NO_AFFINITY Haswell SINGLE_THREADED
        Core in use  :  Haswell
   Copyright (c) 2011-2014, The OpenBLAS Project


Your calculation utilizes the atom-pairwise dispersion correction
with the Becke-Johnson damping scheme (D3BJ)
Cite in your paper:
S.Grimme, S.Ehrlich, L.Goerigk, J Comput Chem, (2011), 32, 1456–1465 
S.Grimme, J.Antony, S.Ehrlich and H.Krieg, J.Chem.Phys., 132, (2010), 154104 
   

================================================================================

----- Orbital basis set information -----
Your calculation utilizes the basis: def2-TZVP
   F. Weigend and R. Ahlrichs, Phys. Chem. Chem. Phys. 7, 3297 (2005).

----- AuxJ basis set information -----
Your calculation utilizes the auxiliary basis: def2/J
   F. Weigend, Phys. Chem. Chem. Phys. 8, 1057 (2006).

================================================================================
                                        WARNINGS
                       Please study these warnings very carefully!
================================================================================


WARNING: Geometry Optimization
  ===> : Switching off AutoStart
         For restart on a previous wavefunction, please use MOREAD

INFO   : the flag for use of the SHARK integral package has been found!

================================================================================
                                       INPUT FILE
================================================================================
NAME = CF3-PhenO/CF3-PhenO.inp
|  1> %pal nprocs 24 end
|  2> %maxcore 3500
|  3> ! PBE0 D3BJ def2-TZVP TightSCF OPT FREQ TightOpt
|  4> ! CPCM(dmso)
|  5> %scf
|  6> MaxIter 800
|  7> end
|  8> %geom
|  9> MaxIter 800
| 10> MaxStep 0.2
| 11> end
| 12> *xyz -1 1
| 13> 
| 14> C       0.03744000     -0.54903100     -1.57792200
| 15> C      -0.02947500      0.67453200     -0.90558200
| 16> C       0.06698100     -1.72406300     -0.82155200
| 17> H      -0.06018300      1.59783500     -1.47591300
| 18> H       0.11303300     -2.68414800     -1.32590700
| 19> C      -0.05107100      0.72710100      0.46929300
| 20> C       0.04642700     -1.68257900      0.55398700
| 21> H      -0.09628400      1.68772600      0.97407300
| 22> H       0.07936300     -2.60680200      1.12361400
| 23> C      -0.01205800     -0.45121600      1.28431400
| 24> O      -0.02670400     -0.40687300      2.55274100
| 25> C       0.00045500     -0.60024500     -3.05224700
| 26> F       0.59666300      0.46087500     -3.63524400
| 27> F       0.59751500     -1.69786300     -3.55722300
| 28> F      -1.26210400     -0.61750000     -3.56685200
| 29> *
| 30> 
| 31>                          ****END OF INPUT****
================================================================================

                       *****************************
                       * Geometry Optimization Run *
                       *****************************

Geometry optimization settings:
Update method            Update   .... BFGS
Choice of coordinates    CoordSys .... Z-matrix Internals
Initial Hessian          InHess   .... Almoef's Model

Convergence Tolerances:
Energy Change            TolE     ....  1.0000e-06 Eh
Max. Gradient            TolMAXG  ....  1.0000e-04 Eh/bohr
RMS Gradient             TolRMSG  ....  3.0000e-05 Eh/bohr
Max. Displacement        TolMAXD  ....  1.0000e-03 bohr
RMS Displacement         TolRMSD  ....  6.0000e-04 bohr
Strict Convergence                ....  False
------------------------------------------------------------------------------
                        ORCA OPTIMIZATION COORDINATE SETUP
------------------------------------------------------------------------------

The optimization will be done in new redundant internal coordinates
Making redundant internal coordinates   ...  (new redundants) done
Evaluating the initial hessian          ...  (Almloef) done
Evaluating the coordinates              ...  done
Calculating the B-matrix                .... done
Calculating the G-matrix                .... done
Diagonalizing the G-matrix              .... done
The first mode is                       ....   30
The number of degrees of freedom        ....   39

    -----------------------------------------------------------------
                    Redundant Internal Coordinates


    -----------------------------------------------------------------
         Definition                    Initial Value    Approx d2E/dq
    -----------------------------------------------------------------
      1. B(C   1,C   0)                  1.3977         0.607323   
      2. B(C   2,C   0)                  1.3977         0.607288   
      3. B(H   3,C   1)                  1.0857         0.365856   
      4. B(H   4,C   2)                  1.0855         0.366135   
      5. B(C   5,C   1)                  1.3760         0.657652   
      6. B(C   6,C   2)                  1.3763         0.657003   
      7. B(H   7,C   5)                  1.0861         0.365275   
      8. B(H   8,C   6)                  1.0862         0.365213   
      9. B(C   9,C   6)                  1.4328         0.533799   
     10. B(C   9,C   5)                  1.4333         0.533006   
     11. B(O  10,C   9)                  1.2693         0.871899   
     12. B(C  11,C   0)                  1.4757         0.456084   
     13. B(F  12,C  11)                  1.3496         0.603224   
     14. B(F  13,C  11)                  1.3477         0.607411   
     15. B(F  14,C  11)                  1.3635         0.573090   
     16. A(C   2,C   0,C  11)          120.7969         0.409394   
     17. A(C   1,C   0,C  11)          120.6482         0.409398   
     18. A(C   1,C   0,C   2)          118.4655         0.430850   
     19. A(H   3,C   1,C   5)          119.4681         0.357416   
     20. A(C   0,C   1,C   5)          120.9847         0.437070   
     21. A(C   0,C   1,H   3)          119.5466         0.352622   
     22. A(H   4,C   2,C   6)          119.4504         0.357402   
     23. A(C   0,C   2,H   4)          119.5392         0.352664   
     24. A(C   0,C   2,C   6)          121.0094         0.436988   
     25. A(H   7,C   5,C   9)          117.6447         0.344856   
     26. A(C   1,C   5,C   9)          122.4342         0.426937   
     27. A(C   1,C   5,H   7)          119.9208         0.357319   
     28. A(H   8,C   6,C   9)          117.7221         0.344932   
     29. A(C   2,C   6,C   9)          122.4068         0.426976   
     30. A(C   2,C   6,H   8)          119.8706         0.357249   
     31. A(C   5,C   9,O  10)          122.6313         0.446246   
     32. A(C   5,C   9,C   6)          114.6951         0.411349   
     33. A(C   6,C   9,O  10)          122.6736         0.446366   
     34. A(F  13,C  11,F  14)          104.9813         0.417179   
     35. A(F  12,C  11,F  14)          104.8317         0.416666   
     36. A(C   0,C  11,F  14)          113.6227         0.400865   
     37. A(F  12,C  11,F  13)          106.4268         0.421008   
     38. A(C   0,C  11,F  13)          113.0490         0.404998   
     39. A(C   0,C  11,F  12)          113.1558         0.404503   
     40. D(H   3,C   1,C   0,C   2)   -179.5818         0.025461   
     41. D(C   5,C   1,C   0,C   2)      0.7088         0.025461   
     42. D(H   3,C   1,C   0,C  11)     -2.9918         0.025461   
     43. D(C   5,C   1,C   0,C  11)    177.2989         0.025461   
     44. D(C   6,C   2,C   0,C   1)     -0.7381         0.025458   
     45. D(H   4,C   2,C   0,C   1)    179.6437         0.025458   
     46. D(H   4,C   2,C   0,C  11)      3.0589         0.025458   
     47. D(C   6,C   2,C   0,C  11)   -177.3229         0.025458   
     48. D(C   9,C   5,C   1,H   3)   -179.9502         0.030164   
     49. D(C   9,C   5,C   1,C   0)     -0.2406         0.030164   
     50. D(H   7,C   5,C   1,H   3)     -0.1352         0.030164   
     51. D(H   7,C   5,C   1,C   0)    179.5744         0.030164   
     52. D(H   8,C   6,C   2,H   4)      0.1868         0.030101   
     53. D(H   8,C   6,C   2,C   0)   -179.4317         0.030101   
     54. D(C   9,C   6,C   2,C   0)      0.2999         0.030101   
     55. D(C   9,C   6,C   2,H   4)    179.9184         0.030101   
     56. D(O  10,C   9,C   6,H   8)     -0.0193         0.019457   
     57. D(C   5,C   9,C   6,H   8)    179.9074         0.019457   
     58. D(C   5,C   9,C   6,C   2)      0.1703         0.019457   
     59. D(O  10,C   9,C   5,H   7)     -0.0921         0.019397   
     60. D(O  10,C   9,C   5,C   1)    179.7269         0.019397   
     61. D(O  10,C   9,C   6,C   2)   -179.7564         0.019457   
     62. D(C   6,C   9,C   5,H   7)    179.9813         0.019397   
     63. D(C   6,C   9,C   5,C   1)     -0.1997         0.019397   
     64. D(F  14,C  11,C   0,C   2)     90.5824         0.015337   
     65. D(F  14,C  11,C   0,C   1)    -85.9277         0.015337   
     66. D(F  13,C  11,C   0,C   2)    -28.9366         0.015337   
     67. D(F  13,C  11,C   0,C   1)    154.5533         0.015337   
     68. D(F  12,C  11,C   0,C   2)   -150.0160         0.015337   
     69. D(F  12,C  11,C   0,C   1)     33.4739         0.015337   
    -----------------------------------------------------------------

Number of atoms                         .... 15
Number of degrees of freedom            .... 69

         *************************************************************
         *                GEOMETRY OPTIMIZATION CYCLE   1            *
         *************************************************************
---------------------------------
CARTESIAN COORDINATES (ANGSTROEM)
---------------------------------
  C      0.037440   -0.549031   -1.577922
  C     -0.029475    0.674532   -0.905582
  C      0.066981   -1.724063   -0.821552
  H     -0.060183    1.597835   -1.475913
  H      0.113033   -2.684148   -1.325907
  C     -0.051071    0.727101    0.469293
  C      0.046427   -1.682579    0.553987
  H     -0.096284    1.687726    0.974073
  H      0.079363   -2.606802    1.123614
  C     -0.012058   -0.451216    1.284314
  O     -0.026704   -0.406873    2.552741
  C      0.000455   -0.600245   -3.052247
  F      0.596663    0.460875   -3.635244
  F      0.597515   -1.697863   -3.557223
  F     -1.262104   -0.617500   -3.566852

----------------------------
CARTESIAN COORDINATES (A.U.)
----------------------------
  NO LB      ZA    FRAG     MASS         X           Y           Z
   0 C     6.0000    0    12.011    0.070751   -1.037518   -2.981840
   1 C     6.0000    0    12.011   -0.055700    1.274681   -1.711302
   2 C     6.0000    0    12.011    0.126576   -3.258007   -1.552508
   3 H     1.0000    0     1.008   -0.113729    3.019471   -2.789071
   4 H     1.0000    0     1.008    0.213601   -5.072305   -2.505601
   5 C     6.0000    0    12.011   -0.096510    1.374022    0.886835
   6 C     6.0000    0    12.011    0.087734   -3.179614    1.046884
   7 H     1.0000    0     1.008   -0.181950    3.189340    1.840731
   8 H     1.0000    0     1.008    0.149974   -4.926142    2.123323
   9 C     6.0000    0    12.011   -0.022786   -0.852675    2.427002
  10 O     8.0000    0    15.999   -0.050463   -0.768879    4.823981
  11 C     6.0000    0    12.011    0.000860   -1.134299   -5.767911
  12 F     9.0000    0    18.998    1.127530    0.870928   -6.869616
  13 F     9.0000    0    18.998    1.129140   -3.208496   -6.722177
  14 F     9.0000    0    18.998   -2.385031   -1.166906   -6.740373

--------------------------------
INTERNAL COORDINATES (ANGSTROEM)
--------------------------------
 C      0   0   0     0.000000000000     0.00000000     0.00000000
 C      1   0   0     1.397721398489     0.00000000     0.00000000
 C      1   2   0     1.397736902498   118.46546378     0.00000000
 H      2   1   3     1.085683591399   119.54657597   180.41817327
 H      3   1   2     1.085475914037   119.53915344   179.64372328
 C      2   1   3     1.376049109807   120.98471525     0.70882223
 C      3   1   2     1.376317888314   121.00937750   359.26187275
 H      6   2   1     1.086115764730   119.92081996   179.57437153
 H      7   3   1     1.086161982834   119.87061744   180.56831288
 C      7   3   1     1.432847814642   122.40680731     0.29994485
 O     10   7   3     1.269286359059   122.67355292   180.24362716
 C      1   2   3     1.475677800079   120.64824232   176.59005858
 F     12   1   2     1.349564794915   113.15580411    33.47389172
 F     12   1   2     1.347681964745   113.04900787   154.55327031
 F     12   1   2     1.363514308517   113.62265680   274.07234546

---------------------------
INTERNAL COORDINATES (A.U.)
---------------------------
 C      0   0   0     0.000000000000     0.00000000     0.00000000
 C      1   0   0     2.641310654666     0.00000000     0.00000000
 C      1   2   0     2.641339952997   118.46546378     0.00000000
 H      2   1   3     2.051644655837   119.54657597   180.41817327
 H      3   1   2     2.051252202497   119.53915344   179.64372328
 C      2   1   3     2.600355964362   120.98471525     0.70882223
 C      3   1   2     2.600863882130   121.00937750   359.26187275
 H      6   2   1     2.052461345073   119.92081996   179.57437153
 H      7   3   1     2.052548684633   119.87061744   180.56831288
 C      7   3   1     2.707689961260   122.40680731     0.29994485
 O     10   7   3     2.398603604144   122.67355292   180.24362716
 C      1   2   3     2.788626904057   120.64824232   176.59005858
 F     12   1   2     2.550307862370   113.15580411    33.47389172
 F     12   1   2     2.546749828994   113.04900787   154.55327031
 F     12   1   2     2.576668622780   113.62265680   274.07234546

---------------------
BASIS SET INFORMATION
---------------------
There are 4 groups of distinct atoms

 Group   1 Type C   : 11s6p2d1f contracted to 5s3p2d1f pattern {62111/411/11/1}
 Group   2 Type H   : 5s1p contracted to 3s1p pattern {311/1}
 Group   3 Type O   : 11s6p2d1f contracted to 5s3p2d1f pattern {62111/411/11/1}
 Group   4 Type F   : 11s6p2d1f contracted to 5s3p2d1f pattern {62111/411/11/1}

Atom   0C    basis set group =>   1
Atom   1C    basis set group =>   1
Atom   2C    basis set group =>   1
Atom   3H    basis set group =>   2
Atom   4H    basis set group =>   2
Atom   5C    basis set group =>   1
Atom   6C    basis set group =>   1
Atom   7H    basis set group =>   2
Atom   8H    basis set group =>   2
Atom   9C    basis set group =>   1
Atom  10O    basis set group =>   3
Atom  11C    basis set group =>   1
Atom  12F    basis set group =>   4
Atom  13F    basis set group =>   4
Atom  14F    basis set group =>   4
---------------------------------
AUXILIARY/J BASIS SET INFORMATION
---------------------------------
There are 4 groups of distinct atoms

 Group   1 Type C   : 12s5p4d2f1g contracted to 6s4p3d1f1g pattern {711111/2111/211/2/1}
 Group   2 Type H   : 5s2p1d contracted to 3s1p1d pattern {311/2/1}
 Group   3 Type O   : 12s5p4d2f1g contracted to 6s4p3d1f1g pattern {711111/2111/211/2/1}
 Group   4 Type F   : 12s5p4d2f1g contracted to 6s4p3d1f1g pattern {711111/2111/211/2/1}

Atom   0C    basis set group =>   1
Atom   1C    basis set group =>   1
Atom   2C    basis set group =>   1
Atom   3H    basis set group =>   2
Atom   4H    basis set group =>   2
Atom   5C    basis set group =>   1
Atom   6C    basis set group =>   1
Atom   7H    basis set group =>   2
Atom   8H    basis set group =>   2
Atom   9C    basis set group =>   1
Atom  10O    basis set group =>   3
Atom  11C    basis set group =>   1
Atom  12F    basis set group =>   4
Atom  13F    basis set group =>   4
Atom  14F    basis set group =>   4


           ************************************************************
           *        Program running with 24 parallel MPI-processes    *
           *              working on a common directory               *
           ************************************************************
------------------------------------------------------------------------------
                           ORCA GTO INTEGRAL CALCULATION
                           -- RI-GTO INTEGRALS CHOSEN --
------------------------------------------------------------------------------
------------------------------------------------------------------------------
                   ___                                                        
                  /   \      - P O W E R E D   B Y -                         
                 /     \                                                     
                 |  |  |   _    _      __       _____    __    __             
                 |  |  |  | |  | |    /  \     |  _  \  |  |  /  |          
                  \  \/   | |  | |   /    \    | | | |  |  | /  /          
                 / \  \   | |__| |  /  /\  \   | |_| |  |  |/  /          
                |  |  |   |  __  | /  /__\  \  |    /   |      \           
                |  |  |   | |  | | |   __   |  |    \   |  |\   \          
                \     /   | |  | | |  |  |  |  | |\  \  |  | \   \       
                 \___/    |_|  |_| |__|  |__|  |_| \__\ |__|  \__/        
                                                                              
                      - O R C A' S   B I G   F R I E N D -                    
                                      &                                       
                       - I N T E G R A L  F E E D E R -                       
                                                                              
 v1 FN, 2020, v2 2021                                                         
------------------------------------------------------------------------------


Reading SHARK input file CF3-PhenO/CF3-PhenO.SHARKINP.tmp ... ok
----------------------
SHARK INTEGRAL PACKAGE
----------------------

Number of atoms                             ...     15
Number of basis functions                   ...    365
Number of shells                            ...    137
Maximum angular momentum                    ...      3
Integral batch strategy                     ... SHARK/LIBINT Hybrid
RI-J (if used) integral strategy            ... SPLIT-RIJ (Revised 2003 algorithm where possible)
Printlevel                                  ...      1
Contraction scheme used                     ... SEGMENTED contraction
Coulomb Range Separation                    ... NOT USED
Exchange Range Separation                   ... NOT USED
Finite Nucleus Model                        ... NOT USED
Auxiliary Coulomb fitting basis             ... AVAILABLE
   # of basis functions in Aux-J            ...    583
   # of shells in Aux-J                     ...    185
   Maximum angular momentum in Aux-J        ...      4
Auxiliary J/K fitting basis                 ... NOT available
Auxiliary Correlation fitting basis         ... NOT available
Auxiliary 'external' fitting basis          ... NOT available
Integral threshold                          ...     2.500000e-11
Primitive cut-off                           ...     2.500000e-12
Primitive pair pre-selection threshold      ...     2.500000e-12

Calculating pre-screening integrals         ... done (  0.1 sec) Dimension = 137
Organizing shell pair data                  ... done (  0.1 sec)
Shell pair information
Total number of shell pairs                 ...      9453
Shell pairs after pre-screening             ...      8096
Total number of primitive shell pairs       ...     30144
Primitive shell pairs kept                  ...     18559
          la=0 lb=0:   1832 shell pairs
          la=1 lb=0:   2190 shell pairs
          la=1 lb=1:    658 shell pairs
          la=2 lb=0:   1231 shell pairs
          la=2 lb=1:    736 shell pairs
          la=2 lb=2:    217 shell pairs
          la=3 lb=0:    606 shell pairs
          la=3 lb=1:    366 shell pairs
          la=3 lb=2:    205 shell pairs
          la=3 lb=3:     55 shell pairs

Calculating one electron integrals          ... done (  0.0 sec)
Calculating RI/J V-Matrix + Cholesky decomp.... done (  0.1 sec)
Calculating Nuclear repulsion               ... done (  0.0 sec) ENN=    603.632580249988 Eh

SHARK setup successfully completed in   0.6 seconds

Maximum memory used throughout the entire GTOINT-calculation: 21.6 MB


           ************************************************************
           *        Program running with 24 parallel MPI-processes    *
           *              working on a common directory               *
           ************************************************************
-------------------------------------------------------------------------------
                                 ORCA SCF
-------------------------------------------------------------------------------

------------
SCF SETTINGS
------------
Hamiltonian:
 Density Functional     Method          .... DFT(GTOs)
 Exchange Functional    Exchange        .... PBE
   PBE kappa parameter   XKappa         ....  0.804000
   PBE mue parameter    XMuePBE         ....  0.219520
 Correlation Functional Correlation     .... PBE
   PBE beta parameter  CBetaPBE         ....  0.066725
 LDA part of GGA corr.  LDAOpt          .... PW91-LDA
 Gradients option       PostSCFGGA      .... off
 Hybrid DFT is turned on
   Fraction HF Exchange ScalHFX         ....  0.250000
   Scaling of DF-GGA-X  ScalDFX         ....  0.750000
   Scaling of DF-GGA-C  ScalDFC         ....  1.000000
   Scaling of DF-LDA-C  ScalLDAC        ....  1.000000
   Perturbative correction              ....  0.000000
   Density functional embedding theory  .... OFF
   NL short-range parameter             ....  6.900000
 RI-approximation to the Coulomb term is turned on
   Number of AuxJ basis functions       .... 583
   RIJ-COSX (HFX calculated with COS-X)).... on


General Settings:
 Integral files         IntName         .... CF3-PhenO/CF3-PhenO
 Hartree-Fock type      HFTyp           .... RHF
 Total Charge           Charge          ....   -1
 Multiplicity           Mult            ....    1
 Number of Electrons    NEL             ....   82
 Basis Dimension        Dim             ....  365
 Nuclear Repulsion      ENuc            ....    603.6325802500 Eh

Convergence Acceleration:
 DIIS                   CNVDIIS         .... on
   Start iteration      DIISMaxIt       ....    12
   Startup error        DIISStart       ....  0.200000
   # of expansion vecs  DIISMaxEq       ....     5
   Bias factor          DIISBfac        ....   1.050
   Max. coefficient     DIISMaxC        ....  10.000
 Trust-Rad. Augm. Hess. CNVTRAH         .... auto
   Auto Start mean grad. ratio tolernc. ....  1.125000
   Auto Start start iteration           ....    20
   Auto Start num. interpolation iter.  ....    10
   Max. Number of Micro iterations      ....    16
   Max. Number of Macro iterations      .... Maxiter - #DIIS iter
   Number of Davidson start vectors     ....     2
   Converg. threshold I  (grad. norm)   ....   1.000e-05
   Converg. threshold II (energy diff.) ....   1.000e-08
   Grad. Scal. Fac. for Micro threshold ....   0.100
   Minimum threshold for Micro iter.    ....   0.010
   NR start threshold (gradient norm)   ....   0.001
   Initial trust radius                 ....   0.400
   Minimum AH scaling param. (alpha)    ....   1.000
   Maximum AH scaling param. (alpha)    .... 1000.000
   Orbital update algorithm             .... Taylor
   White noise on init. David. guess    .... on
   Maximum white noise                  ....   0.010
   Quad. conv. algorithm                .... NR
 SOSCF                  CNVSOSCF        .... on
   Start iteration      SOSCFMaxIt      ....   150
   Startup grad/error   SOSCFStart      ....  0.003300
 Level Shifting         CNVShift        .... on
   Level shift para.    LevelShift      ....    0.2500
   Turn off err/grad.   ShiftErr        ....    0.0010
 Zerner damping         CNVZerner       .... off
 Static damping         CNVDamp         .... on
   Fraction old density DampFac         ....    0.7000
   Max. Damping (<1)    DampMax         ....    0.9800
   Min. Damping (>=0)   DampMin         ....    0.0000
   Turn off err/grad.   DampErr         ....    0.1000
 Fernandez-Rico         CNVRico         .... off

SCF Procedure:
 Maximum # iterations   MaxIter         ....   800
 SCF integral mode      SCFMode         .... Direct
   Integral package                     .... SHARK and LIBINT hybrid scheme
 Reset frequency        DirectResetFreq ....    20
 Integral Threshold     Thresh          ....  2.500e-11 Eh
 Primitive CutOff       TCut            ....  2.500e-12 Eh

Convergence Tolerance:
 Convergence Check Mode ConvCheckMode   .... Total+1el-Energy
 Convergence forced     ConvForced      .... 0
 Energy Change          TolE            ....  1.000e-08 Eh
 1-El. energy change                    ....  1.000e-05 Eh
 Orbital Gradient       TolG            ....  1.000e-05
 Orbital Rotation angle TolX            ....  1.000e-05
 DIIS Error             TolErr          ....  5.000e-07


Diagonalization of the overlap matrix:
Smallest eigenvalue                        ... 1.085e-05
Time for diagonalization                   ...    0.032 sec
Threshold for overlap eigenvalues          ... 1.000e-08
Number of eigenvalues below threshold      ... 0
Time for construction of square roots      ...    0.024 sec
Total time needed                          ...    0.058 sec

Time for model grid setup =    0.112 sec

------------------------------
INITIAL GUESS: MODEL POTENTIAL
------------------------------
Loading Hartree-Fock densities                     ... done
Calculating cut-offs                               ... done
Initializing the effective Hamiltonian             ... done
Setting up the integral package (SHARK)            ... done
Starting the Coulomb interaction                   ... done (   0.1 sec)
Reading the grid                                   ... done
Mapping shells                                     ... done
Starting the XC term evaluation                    ... done (   0.0 sec)
  promolecular density results
     # of electrons  =     80.999641364
     EX              =    -75.116059485
     EC              =     -2.764013358
     EX+EC           =    -77.880072843
Transforming the Hamiltonian                       ... done (   0.0 sec)
Diagonalizing the Hamiltonian                      ... done (   0.0 sec)
Back transforming the eigenvectors                 ... done (   0.0 sec)
Now organizing SCF variables                       ... done
                      ------------------
                      INITIAL GUESS DONE (   0.4 sec)
                      ------------------
-------------------
DFT GRID GENERATION
-------------------

General Integration Accuracy     IntAcc      ... 4.388
Radial Grid Type                 RadialGrid  ... OptM3 with GC (2021)
Angular Grid (max. ang.)         AngularGrid ... 4 (Lebedev-302)
Angular grid pruning method      GridPruning ... 4 (adaptive)
Weight generation scheme         WeightScheme... Becke
Basis function cutoff            BFCut       ... 1.0000e-11
Integration weight cutoff        WCut        ... 1.0000e-14
Angular grids for H and He will be reduced by one unit
Partially contracted basis set               ... off
Rotationally invariant grid construction     ... off

Total number of grid points                  ...    79298
Total number of batches                      ...     1248
Average number of points per batch           ...       63
Average number of grid points per atom       ...     5287
Time for grid setup =    0.460 sec

--------------------
COSX GRID GENERATION
--------------------

GRIDX 1
-------
General Integration Accuracy     IntAcc      ... 3.816
Radial Grid Type                 RadialGrid  ... OptM3 with GC (2021)
Angular Grid (max. ang.)         AngularGrid ... 1 (Lebedev-50)
Angular grid pruning method      GridPruning ... 4 (adaptive)
Weight generation scheme         WeightScheme... Becke
Basis function cutoff            BFCut       ... 1.0000e-11
Integration weight cutoff        WCut        ... 1.0000e-14
Angular grids for H and He will be reduced by one unit
Partially contracted basis set               ... on
Rotationally invariant grid construction     ... off

Total number of grid points                  ...    10069
Total number of batches                      ...      164
Average number of points per batch           ...       61
Average number of grid points per atom       ...      671
UseSFitting                                  ... on

GRIDX 2
-------
General Integration Accuracy     IntAcc      ... 4.020
Radial Grid Type                 RadialGrid  ... OptM3 with GC (2021)
Angular Grid (max. ang.)         AngularGrid ... 2 (Lebedev-110)
Angular grid pruning method      GridPruning ... 4 (adaptive)
Weight generation scheme         WeightScheme... Becke
Basis function cutoff            BFCut       ... 1.0000e-11
Integration weight cutoff        WCut        ... 1.0000e-14
Angular grids for H and He will be reduced by one unit
Partially contracted basis set               ... on
Rotationally invariant grid construction     ... off

Total number of grid points                  ...    22936
Total number of batches                      ...      366
Average number of points per batch           ...       62
Average number of grid points per atom       ...     1529
UseSFitting                                  ... on

GRIDX 3
-------
General Integration Accuracy     IntAcc      ... 4.338
Radial Grid Type                 RadialGrid  ... OptM3 with GC (2021)
Angular Grid (max. ang.)         AngularGrid ... 3 (Lebedev-194)
Angular grid pruning method      GridPruning ... 4 (adaptive)
Weight generation scheme         WeightScheme... Becke
Basis function cutoff            BFCut       ... 1.0000e-11
Integration weight cutoff        WCut        ... 1.0000e-14
Angular grids for H and He will be reduced by one unit
Partially contracted basis set               ... on
Rotationally invariant grid construction     ... off

Total number of grid points                  ...    50663
Total number of batches                      ...      800
Average number of points per batch           ...       63
Average number of grid points per atom       ...     3378
UseSFitting                                  ... on

Time for X-Grid setup             =    0.690 sec


--------------------
CPCM SOLVATION MODEL
--------------------
CPCM parameters:
  Epsilon                                         ...      47.2000
  Refrac                                          ...       1.4790
  Rsolv                                           ...       1.3000
  Surface type                                    ... GAUSSIAN VDW
  Epsilon function type                           ...         CPCM
Radii:
 Radius for C  used is    3.8550 Bohr (=   2.0400 Ang.)
 Radius for H  used is    2.4944 Bohr (=   1.3200 Ang.)
 Radius for O  used is    3.4469 Bohr (=   1.8240 Ang.)
 Radius for F  used is    3.3335 Bohr (=   1.7640 Ang.)
Calculating surface                               ...        done! (  0.0s)
GEPOL surface points                              ...          880
GEPOL Volume                                      ...    1118.2640
GEPOL Surface-area                                ...     627.0561
Calculating surface distance matrix               ...        done! (  0.0s)
Performing Cholesky decomposition & store         ...        done! (  0.0s)
Overall time for CPCM initialization              ...                 0.1s
--------------
SCF ITERATIONS
--------------
ITER       Energy         Delta-E        Max-DP      RMS-DP      [F,P]     Damp
               ***  Starting incremental Fock matrix formation  ***
  0   -643.3226631118   0.000000000000 0.44640013  0.00436820  0.3316692 0.7000
  1   -643.4698527023  -0.147189590506 0.41158301  0.00395198  0.1412316 0.7000
                               ***Turning on DIIS***
  2   -643.5282257373  -0.058373035041 0.38746207  0.00422450  0.0412859 0.0000
  3   -643.6210574649  -0.092831727506 0.42112285  0.00389263  0.0839408 0.0000
  4   -643.6408314755  -0.019774010605 0.08948908  0.00084569  0.0139185 0.0000
  5   -643.6418080583  -0.000976582850 0.04264572  0.00041397  0.0083410 0.0000
                      *** Initiating the SOSCF procedure ***
                           *** Shutting down DIIS ***
                      *** Re-Reading the Fockian *** 
                      *** Removing any level shift *** 
ITER      Energy       Delta-E        Grad      Rot      Max-DP    RMS-DP
  6   -643.64192336  -0.0001153052  0.000405  0.000405  0.011214  0.000114
               *** Restarting incremental Fock matrix formation ***
  7   -643.64192788  -0.0000045165  0.000245  0.000716  0.004784  0.000055
  8   -643.64192828  -0.0000004000  0.000206  0.000297  0.000498  0.000009
  9   -643.64192939  -0.0000011150  0.000040  0.000123  0.000381  0.000007
 10   -643.64192941  -0.0000000113  0.000033  0.000050  0.000160  0.000001
 11   -643.64192943  -0.0000000283  0.000008  0.000033  0.000344  0.000003
 12   -643.64192944  -0.0000000010  0.000007  0.000015  0.000157  0.000001
                  ***Gradient check signals convergence***
              ***Rediagonalizing the Fockian in SOSCF/NRSCF***

               *****************************************************
               *                     SUCCESS                       *
               *           SCF CONVERGED AFTER  13 CYCLES          *
               *****************************************************

Old exchange energy                            =    -19.102420140 Eh
New exchange energy                            =    -19.102395654 Eh
Exchange energy change after final integration =      0.000024486 Eh
Total energy after final integration           =   -643.641904956 Eh
Final COS-X integration done in                =     2.223 sec

----------------
TOTAL SCF ENERGY
----------------

Total Energy       :         -643.64190496 Eh          -17514.38665 eV

Components:
Nuclear Repulsion  :          603.63258025 Eh           16425.67757 eV
Electronic Energy  :        -1247.27448521 Eh          -33940.06422 eV
One Electron Energy:        -2097.66863350 Eh          -57080.46543 eV
Two Electron Energy:          850.39414829 Eh           23140.40121 eV
Max COSX asymmetry :            0.00000463 Eh               0.00013 eV
CPCM Dielectric    :           -0.08811940 Eh              -2.39785 eV

Virial components:
Potential Energy   :        -1284.83747053 Eh          -34962.20502 eV
Kinetic Energy     :          641.19556558 Eh           17447.81837 eV
Virial Ratio       :            2.00381528


DFT components:
N(Alpha)           :       41.000028507206 electrons
N(Beta)            :       41.000028507206 electrons
N(Total)           :       82.000057014413 electrons
E(X)               :      -57.240854552000 Eh       
E(C)               :       -2.801870833857 Eh       
E(XC)              :      -60.042725385858 Eh       
DFET-embed. en.    :        0.000000000000 Eh       
CPCM Solvation Model Properties:
Surface-charge          :            0.97683028
Charge-correction       :           -0.00315448 Eh              -0.08584 eV
Free-energy (cav+disp)  :  This term is not implemented in the current solvation scheme

---------------
SCF CONVERGENCE
---------------

  Last Energy change         ...   -6.4214e-09  Tolerance :   1.0000e-08
  Last MAX-Density change    ...    1.5543e-15  Tolerance :   1.0000e-07
  Last RMS-Density change    ...    1.9858e-17  Tolerance :   5.0000e-09
  Last Orbital Gradient      ...    2.4532e-06  Tolerance :   1.0000e-05
  Last Orbital Rotation      ...    5.4834e-06  Tolerance :   1.0000e-05

             **** THE GBW FILE WAS UPDATED (CF3-PhenO/CF3-PhenO.gbw) ****
             **** DENSITY CF3-PhenO/CF3-PhenO.scfp WAS UPDATED ****
             **** ENERGY FILE WAS UPDATED (CF3-PhenO/CF3-PhenO.en.tmp) ****
             **** THE GBW FILE WAS UPDATED (CF3-PhenO/CF3-PhenO.gbw) ****
             **** DENSITY CF3-PhenO/CF3-PhenO.scfp WAS UPDATED ****
----------------
ORBITAL ENERGIES
----------------

  NO   OCC          E(Eh)            E(eV) 
   0   2.0000     -24.793266      -674.6591 
   1   2.0000     -24.792513      -674.6386 
   2   2.0000     -24.785223      -674.4402 
   3   2.0000     -19.121212      -520.3146 
   4   2.0000     -10.456353      -284.5318 
   5   2.0000     -10.253111      -279.0013 
   6   2.0000     -10.219076      -278.0752 
   7   2.0000     -10.219005      -278.0733 
   8   2.0000     -10.213468      -277.9226 
   9   2.0000     -10.194608      -277.4094 
  10   2.0000     -10.194424      -277.4044 
  11   2.0000      -1.336268       -36.3617 
  12   2.0000      -1.249286       -33.9948 
  13   2.0000      -1.240590       -33.7582 
  14   2.0000      -0.989694       -26.9309 
  15   2.0000      -0.865336       -23.5470 
  16   2.0000      -0.770392       -20.9634 
  17   2.0000      -0.756079       -20.5739 
  18   2.0000      -0.694366       -18.8947 
  19   2.0000      -0.622489       -16.9388 
  20   2.0000      -0.611763       -16.6469 
  21   2.0000      -0.600071       -16.3288 
  22   2.0000      -0.590506       -16.0685 
  23   2.0000      -0.561976       -15.2921 
  24   2.0000      -0.483803       -13.1649 
  25   2.0000      -0.482550       -13.1309 
  26   2.0000      -0.463769       -12.6198 
  27   2.0000      -0.463430       -12.6106 
  28   2.0000      -0.447173       -12.1682 
  29   2.0000      -0.438880       -11.9425 
  30   2.0000      -0.435227       -11.8431 
  31   2.0000      -0.420130       -11.4323 
  32   2.0000      -0.414142       -11.2694 
  33   2.0000      -0.395824       -10.7709 
  34   2.0000      -0.390210       -10.6181 
  35   2.0000      -0.361336        -9.8324 
  36   2.0000      -0.344588        -9.3767 
  37   2.0000      -0.322735        -8.7821 
  38   2.0000      -0.258626        -7.0376 
  39   2.0000      -0.226665        -6.1679 
  40   2.0000      -0.191359        -5.2072 
  41   0.0000       0.007519         0.2046 
  42   0.0000       0.019275         0.5245 
  43   0.0000       0.084614         2.3025 
  44   0.0000       0.103743         2.8230 
  45   0.0000       0.113353         3.0845 
  46   0.0000       0.128182         3.4880 
  47   0.0000       0.131615         3.5814 
  48   0.0000       0.151050         4.1103 
  49   0.0000       0.165914         4.5148 
  50   0.0000       0.170804         4.6478 
  51   0.0000       0.178600         4.8600 
  52   0.0000       0.180359         4.9078 
  53   0.0000       0.222201         6.0464 
  54   0.0000       0.224602         6.1117 
  55   0.0000       0.228086         6.2065 
  56   0.0000       0.240678         6.5492 
  57   0.0000       0.253188         6.8896 
  58   0.0000       0.259399         7.0586 
  59   0.0000       0.261952         7.1281 
  60   0.0000       0.278462         7.5773 
  61   0.0000       0.285662         7.7732 
  62   0.0000       0.305677         8.3179 
  63   0.0000       0.307748         8.3743 
  64   0.0000       0.329216         8.9584 
  65   0.0000       0.340441         9.2639 
  66   0.0000       0.345812         9.4100 
  67   0.0000       0.356010         9.6875 
  68   0.0000       0.365024         9.9328 
  69   0.0000       0.373684        10.1685 
  70   0.0000       0.375915        10.2292 
  71   0.0000       0.397844        10.8259 
  72   0.0000       0.406172        11.0525 
  73   0.0000       0.427203        11.6248 
  74   0.0000       0.435961        11.8631 
  75   0.0000       0.451980        12.2990 
  76   0.0000       0.454742        12.3742 
  77   0.0000       0.465140        12.6571 
  78   0.0000       0.470383        12.7998 
  79   0.0000       0.489879        13.3303 
  80   0.0000       0.502090        13.6626 
  81   0.0000       0.512659        13.9502 
  82   0.0000       0.527012        14.3407 
  83   0.0000       0.530152        14.4262 
  84   0.0000       0.538578        14.6555 
  85   0.0000       0.539873        14.6907 
  86   0.0000       0.571021        15.5383 
  87   0.0000       0.601266        16.3613 
  88   0.0000       0.605407        16.4740 
  89   0.0000       0.625917        17.0321 
  90   0.0000       0.637101        17.3364 
  91   0.0000       0.663232        18.0475 
  92   0.0000       0.666523        18.1370 
  93   0.0000       0.694654        18.9025 
  94   0.0000       0.698318        19.0022 
  95   0.0000       0.723905        19.6984 
  96   0.0000       0.731857        19.9148 
  97   0.0000       0.749457        20.3938 
  98   0.0000       0.760392        20.6913 
  99   0.0000       0.781178        21.2569 
 100   0.0000       0.788444        21.4546 
 101   0.0000       0.793162        21.5830 
 102   0.0000       0.795109        21.6360 
 103   0.0000       0.798978        21.7413 
 104   0.0000       0.808199        21.9922 
 105   0.0000       0.832343        22.6492 
 106   0.0000       0.835762        22.7422 
 107   0.0000       0.858947        23.3731 
 108   0.0000       0.866873        23.5888 
 109   0.0000       0.878005        23.8917 
 110   0.0000       0.898222        24.4419 
 111   0.0000       0.914943        24.8969 
 112   0.0000       0.916196        24.9310 
 113   0.0000       0.948803        25.8183 
 114   0.0000       0.976272        26.5657 
 115   0.0000       0.984951        26.8019 
 116   0.0000       1.001237        27.2450 
 117   0.0000       1.019677        27.7468 
 118   0.0000       1.032976        28.1087 
 119   0.0000       1.058446        28.8018 
 120   0.0000       1.075914        29.2771 
 121   0.0000       1.085401        29.5353 
 122   0.0000       1.105479        30.0816 
 123   0.0000       1.128908        30.7191 
 124   0.0000       1.179891        32.1065 
 125   0.0000       1.192870        32.4596 
 126   0.0000       1.212511        32.9941 
 127   0.0000       1.233096        33.5542 
 128   0.0000       1.238893        33.7120 
 129   0.0000       1.278271        34.7835 
 130   0.0000       1.288868        35.0719 
 131   0.0000       1.300731        35.3947 
 132   0.0000       1.302570        35.4447 
 133   0.0000       1.326622        36.0992 
 134   0.0000       1.341818        36.5127 
 135   0.0000       1.369406        37.2634 
 136   0.0000       1.423359        38.7316 
 137   0.0000       1.439783        39.1785 
 138   0.0000       1.463028        39.8110 
 139   0.0000       1.483707        40.3737 
 140   0.0000       1.490415        40.5563 
 141   0.0000       1.515587        41.2412 
 142   0.0000       1.522388        41.4263 
 143   0.0000       1.574681        42.8493 
 144   0.0000       1.581125        43.0246 
 145   0.0000       1.594775        43.3960 
 146   0.0000       1.612643        43.8822 
 147   0.0000       1.631517        44.3958 
 148   0.0000       1.665319        45.3156 
 149   0.0000       1.674395        45.5626 
 150   0.0000       1.700113        46.2624 
 151   0.0000       1.707765        46.4707 
 152   0.0000       1.739555        47.3357 
 153   0.0000       1.751604        47.6636 
 154   0.0000       1.766936        48.0808 
 155   0.0000       1.818845        49.4933 
 156   0.0000       1.837195        49.9926 
 157   0.0000       1.849797        50.3355 
 158   0.0000       1.880512        51.1713 
 159   0.0000       1.881635        51.2019 
 160   0.0000       1.913776        52.0765 
 161   0.0000       1.937515        52.7225 
 162   0.0000       1.952959        53.1427 
 163   0.0000       1.963734        53.4359 
 164   0.0000       1.978809        53.8461 
 165   0.0000       1.981445        53.9179 
 166   0.0000       2.029741        55.2321 
 167   0.0000       2.030913        55.2640 
 168   0.0000       2.072150        56.3861 
 169   0.0000       2.114168        57.5294 
 170   0.0000       2.139457        58.2176 
 171   0.0000       2.148638        58.4674 
 172   0.0000       2.159374        58.7596 
 173   0.0000       2.178041        59.2675 
 174   0.0000       2.193040        59.6757 
 175   0.0000       2.230636        60.6987 
 176   0.0000       2.242282        61.0156 
 177   0.0000       2.276107        61.9360 
 178   0.0000       2.278655        62.0053 
 179   0.0000       2.279439        62.0267 
 180   0.0000       2.322656        63.2027 
 181   0.0000       2.356973        64.1365 
 182   0.0000       2.368015        64.4370 
 183   0.0000       2.377682        64.7000 
 184   0.0000       2.443841        66.5003 
 185   0.0000       2.450570        66.6834 
 186   0.0000       2.459987        66.9396 
 187   0.0000       2.468025        67.1584 
 188   0.0000       2.519380        68.5558 
 189   0.0000       2.528691        68.8092 
 190   0.0000       2.574129        70.0456 
 191   0.0000       2.590481        70.4906 
 192   0.0000       2.593100        70.5619 
 193   0.0000       2.611621        71.0658 
 194   0.0000       2.616978        71.2116 
 195   0.0000       2.649536        72.0975 
 196   0.0000       2.653571        72.2073 
 197   0.0000       2.687044        73.1182 
 198   0.0000       2.700947        73.4965 
 199   0.0000       2.713700        73.8435 
 200   0.0000       2.722271        74.0768 
 201   0.0000       2.731838        74.3371 
 202   0.0000       2.764313        75.2208 
 203   0.0000       2.780876        75.6715 
 204   0.0000       2.802058        76.2479 
 205   0.0000       2.807396        76.3931 
 206   0.0000       2.841377        77.3178 
 207   0.0000       2.845467        77.4291 
 208   0.0000       2.864987        77.9603 
 209   0.0000       2.887525        78.5735 
 210   0.0000       2.895058        78.7785 
 211   0.0000       2.913769        79.2877 
 212   0.0000       2.928502        79.6886 
 213   0.0000       2.939366        79.9842 
 214   0.0000       2.944861        80.1337 
 215   0.0000       2.971566        80.8604 
 216   0.0000       2.989800        81.3566 
 217   0.0000       3.011643        81.9510 
 218   0.0000       3.017016        82.0972 
 219   0.0000       3.059996        83.2667 
 220   0.0000       3.066145        83.4340 
 221   0.0000       3.066927        83.4553 
 222   0.0000       3.087547        84.0164 
 223   0.0000       3.137642        85.3796 
 224   0.0000       3.142970        85.5246 
 225   0.0000       3.159426        85.9723 
 226   0.0000       3.171202        86.2928 
 227   0.0000       3.177076        86.4526 
 228   0.0000       3.177636        86.4679 
 229   0.0000       3.212449        87.4152 
 230   0.0000       3.226175        87.7887 
 231   0.0000       3.232386        87.9577 
 232   0.0000       3.255262        88.5802 
 233   0.0000       3.274453        89.1024 
 234   0.0000       3.282700        89.3268 
 235   0.0000       3.293055        89.6086 
 236   0.0000       3.304835        89.9291 
 237   0.0000       3.330977        90.6405 
 238   0.0000       3.337086        90.8067 
 239   0.0000       3.343579        90.9834 
 240   0.0000       3.367577        91.6364 
 241   0.0000       3.389613        92.2360 
 242   0.0000       3.396063        92.4116 
 243   0.0000       3.418476        93.0215 
 244   0.0000       3.435782        93.4924 
 245   0.0000       3.445500        93.7568 
 246   0.0000       3.458697        94.1159 
 247   0.0000       3.474493        94.5458 
 248   0.0000       3.497215        95.1641 
 249   0.0000       3.510612        95.5286 
 250   0.0000       3.514051        95.6222 
 251   0.0000       3.548447        96.5581 
 252   0.0000       3.558429        96.8298 
 253   0.0000       3.575466        97.2934 
 254   0.0000       3.610544        98.2479 
 255   0.0000       3.658132        99.5428 
 256   0.0000       3.684702       100.2658 
 257   0.0000       3.707402       100.8835 
 258   0.0000       3.761171       102.3467 
 259   0.0000       3.769201       102.5652 
 260   0.0000       3.782003       102.9135 
 261   0.0000       3.829540       104.2071 
 262   0.0000       3.836012       104.3832 
 263   0.0000       3.843869       104.5970 
 264   0.0000       3.888149       105.8019 
 265   0.0000       3.930509       106.9546 
 266   0.0000       3.936132       107.1076 
 267   0.0000       3.947452       107.4156 
 268   0.0000       3.975880       108.1892 
 269   0.0000       3.999995       108.8454 
 270   0.0000       4.011161       109.1492 
 271   0.0000       4.040833       109.9566 
 272   0.0000       4.048834       110.1744 
 273   0.0000       4.063993       110.5869 
 274   0.0000       4.088703       111.2593 
 275   0.0000       4.121020       112.1386 
 276   0.0000       4.159200       113.1776 
 277   0.0000       4.193781       114.1186 
 278   0.0000       4.204068       114.3985 
 279   0.0000       4.231480       115.1444 
 280   0.0000       4.251366       115.6856 
 281   0.0000       4.297896       116.9517 
 282   0.0000       4.305149       117.1490 
 283   0.0000       4.315965       117.4434 
 284   0.0000       4.354769       118.4993 
 285   0.0000       4.381990       119.2400 
 286   0.0000       4.531726       123.3145 
 287   0.0000       4.547055       123.7317 
 288   0.0000       4.570539       124.3707 
 289   0.0000       4.642961       126.3414 
 290   0.0000       4.652650       126.6050 
 291   0.0000       4.677308       127.2760 
 292   0.0000       4.732219       128.7702 
 293   0.0000       4.844859       131.8353 
 294   0.0000       4.912529       133.6767 
 295   0.0000       4.943914       134.5307 
 296   0.0000       4.983564       135.6097 
 297   0.0000       5.040365       137.1553 
 298   0.0000       5.136501       139.7713 
 299   0.0000       5.193107       141.3116 
 300   0.0000       5.273812       143.5077 
 301   0.0000       5.300591       144.2364 
 302   0.0000       5.311057       144.5212 
 303   0.0000       5.382955       146.4776 
 304   0.0000       5.432859       147.8356 
 305   0.0000       5.442842       148.1073 
 306   0.0000       5.498158       149.6125 
 307   0.0000       5.606732       152.5669 
 308   0.0000       5.644061       153.5827 
 309   0.0000       5.797751       157.7648 
 310   0.0000       6.094697       165.8451 
 311   0.0000       6.403189       174.2396 
 312   0.0000       6.456529       175.6911 
 313   0.0000       6.654296       181.0726 
 314   0.0000       6.669432       181.4845 
 315   0.0000       6.824944       185.7162 
 316   0.0000       6.862975       186.7510 
 317   0.0000       6.864788       186.8004 
 318   0.0000       6.870615       186.9589 
 319   0.0000       6.875464       187.0909 
 320   0.0000       6.876834       187.1282 
 321   0.0000       6.878530       187.1743 
 322   0.0000       6.880974       187.2408 
 323   0.0000       6.888997       187.4591 
 324   0.0000       6.895337       187.6317 
 325   0.0000       6.994370       190.3265 
 326   0.0000       7.007449       190.6824 
 327   0.0000       7.010892       190.7761 
 328   0.0000       7.077401       192.5859 
 329   0.0000       7.098641       193.1639 
 330   0.0000       7.123831       193.8493 
 331   0.0000       7.126464       193.9210 
 332   0.0000       7.148607       194.5235 
 333   0.0000       7.352337       200.0673 
 334   0.0000       7.385806       200.9780 
 335   0.0000       7.441158       202.4842 
 336   0.0000       7.472445       203.3356 
 337   0.0000       7.611825       207.1283 
 338   0.0000       7.619401       207.3345 
 339   0.0000       8.314665       226.2535 
 340   0.0000       8.331165       226.7025 
 341   0.0000       8.357402       227.4165 
 342   0.0000       8.501352       231.3335 
 343   0.0000       8.503743       231.3986 
 344   0.0000       8.592458       233.8127 
 345   0.0000       8.697900       236.6819 
 346   0.0000       8.776637       238.8244 
 347   0.0000       8.778727       238.8813 
 348   0.0000       8.907298       242.3799 
 349   0.0000       8.965869       243.9737 
 350   0.0000       9.034681       245.8462 
 351   0.0000       9.040756       246.0115 
 352   0.0000       9.120675       248.1862 
 353   0.0000       9.181879       249.8516 
 354   0.0000      22.149756       602.7255 
 355   0.0000      22.725580       618.3945 
 356   0.0000      22.804467       620.5411 
 357   0.0000      22.845309       621.6525 
 358   0.0000      22.924091       623.7962 
 359   0.0000      23.111856       628.9056 
 360   0.0000      23.526006       640.1752 
 361   0.0000      44.071681      1199.2514 
 362   0.0000      57.291758      1558.9880 
 363   0.0000      57.325027      1559.8933 
 364   0.0000      57.369841      1561.1127 

                    ********************************
                    * MULLIKEN POPULATION ANALYSIS *
                    ********************************

-----------------------
MULLIKEN ATOMIC CHARGES
-----------------------
   0 C :    0.047146
   1 C :   -0.250637
   2 C :   -0.246526
   3 H :    0.144513
   4 H :    0.144950
   5 C :   -0.276962
   6 C :   -0.278101
   7 H :    0.108325
   8 H :    0.108158
   9 C :    0.248738
  10 O :   -0.633140
  11 C :    0.451365
  12 F :   -0.186717
  13 F :   -0.185238
  14 F :   -0.195875
Sum of atomic charges:   -1.0000000

--------------------------------
MULLIKEN REDUCED ORBITAL CHARGES
--------------------------------
  0 C s       :     3.144887  s :     3.144887
      pz      :     0.767239  p :     2.678396
      px      :     1.113790
      py      :     0.797367
      dz2     :     0.040292  d :     0.119731
      dxz     :     0.011071
      dyz     :     0.026098
      dx2y2   :     0.017887
      dxy     :     0.024385
      f0      :     0.001564  f :     0.009840
      f+1     :     0.000811
      f-1     :     0.003012
      f+2     :     0.000967
      f-2     :     0.001168
      f+3     :     0.001478
      f-3     :     0.000841
  1 C s       :     3.234110  s :     3.234110
      pz      :     0.980540  p :     2.905291
      px      :     0.960256
      py      :     0.964495
      dz2     :     0.016764  d :     0.103818
      dxz     :     0.025859
      dyz     :     0.040362
      dx2y2   :     0.008689
      dxy     :     0.012145
      f0      :     0.000755  f :     0.007418
      f+1     :     0.001513
      f-1     :     0.002174
      f+2     :     0.000790
      f-2     :     0.000496
      f+3     :     0.001005
      f-3     :     0.000685
  2 C s       :     3.231636  s :     3.231636
      pz      :     0.975400  p :     2.903385
      px      :     0.959050
      py      :     0.968934
      dz2     :     0.018510  d :     0.104088
      dxz     :     0.027875
      dyz     :     0.038265
      dx2y2   :     0.008897
      dxy     :     0.010542
      f0      :     0.000822  f :     0.007417
      f+1     :     0.001489
      f-1     :     0.002143
      f+2     :     0.000739
      f-2     :     0.000641
      f+3     :     0.000904
      f-3     :     0.000680
  3 H s       :     0.833518  s :     0.833518
      pz      :     0.006535  p :     0.021969
      px      :     0.004592
      py      :     0.010842
  4 H s       :     0.833053  s :     0.833053
      pz      :     0.005974  p :     0.021997
      px      :     0.004603
      py      :     0.011420
  5 C s       :     3.237077  s :     3.237077
      pz      :     0.921885  p :     2.954240
      px      :     1.084880
      py      :     0.947475
      dz2     :     0.016768  d :     0.078603
      dxz     :     0.016857
      dyz     :     0.030558
      dx2y2   :     0.008172
      dxy     :     0.006248
      f0      :     0.001001  f :     0.007041
      f+1     :     0.001465
      f-1     :     0.002104
      f+2     :     0.000779
      f-2     :     0.000423
      f+3     :     0.000656
      f-3     :     0.000613
  6 C s       :     3.237137  s :     3.237137
      pz      :     0.922089  p :     2.955263
      px      :     1.085839
      py      :     0.947334
      dz2     :     0.016662  d :     0.078656
      dxz     :     0.016210
      dyz     :     0.030714
      dx2y2   :     0.008223
      dxy     :     0.006847
      f0      :     0.000923  f :     0.007045
      f+1     :     0.001449
      f-1     :     0.002154
      f+2     :     0.000805
      f-2     :     0.000363
      f+3     :     0.000730
      f-3     :     0.000621
  7 H s       :     0.869317  s :     0.869317
      pz      :     0.005538  p :     0.022358
      px      :     0.005556
      py      :     0.011263
  8 H s       :     0.869483  s :     0.869483
      pz      :     0.006110  p :     0.022359
      px      :     0.005555
      py      :     0.010694
  9 C s       :     2.955006  s :     2.955006
      pz      :     0.866538  p :     2.607274
      px      :     0.825408
      py      :     0.915327
      dz2     :     0.032561  d :     0.172086
      dxz     :     0.057694
      dyz     :     0.052233
      dx2y2   :     0.012526
      dxy     :     0.017071
      f0      :     0.002802  f :     0.016896
      f+1     :     0.003419
      f-1     :     0.007048
      f+2     :     0.000781
      f-2     :     0.001022
      f+3     :     0.001214
      f-3     :     0.000609
 10 O s       :     3.783116  s :     3.783116
      pz      :     1.369306  p :     4.820949
      px      :     1.600242
      py      :     1.851400
      dz2     :     0.012141  d :     0.027462
      dxz     :     0.008341
      dyz     :     0.006816
      dx2y2   :     0.000104
      dxy     :     0.000060
      f0      :     0.000660  f :     0.001613
      f+1     :     0.000492
      f-1     :     0.000442
      f+2     :     0.000008
      f-2     :     0.000007
      f+3     :     0.000002
      f-3     :     0.000002
 11 C s       :     2.999791  s :     2.999791
      pz      :     0.895902  p :     2.176506
      px      :     0.656581
      py      :     0.624023
      dz2     :     0.046300  d :     0.333302
      dxz     :     0.077117
      dyz     :     0.067585
      dx2y2   :     0.071234
      dxy     :     0.071066
      f0      :     0.001857  f :     0.039036
      f+1     :     0.006076
      f-1     :     0.006346
      f+2     :     0.005728
      f-2     :     0.005394
      f+3     :     0.004152
      f-3     :     0.009482
 12 F s       :     3.905336  s :     3.905336
      pz      :     1.821384  p :     5.265135
      px      :     1.815100
      py      :     1.628651
      dz2     :     0.002156  d :     0.015533
      dxz     :     0.001749
      dyz     :     0.004191
      dx2y2   :     0.003189
      dxy     :     0.004248
      f0      :     0.000083  f :     0.000713
      f+1     :     0.000034
      f-1     :     0.000101
      f+2     :     0.000089
      f-2     :     0.000153
      f+3     :     0.000152
      f-3     :     0.000102
 13 F s       :     3.905519  s :     3.905519
      pz      :     1.841829  p :     5.263366
      px      :     1.814147
      py      :     1.607391
      dz2     :     0.002169  d :     0.015634
      dxz     :     0.001516
      dyz     :     0.003944
      dx2y2   :     0.003474
      dxy     :     0.004532
      f0      :     0.000080  f :     0.000718
      f+1     :     0.000033
      f-1     :     0.000103
      f+2     :     0.000081
      f-2     :     0.000135
      f+3     :     0.000173
      f-3     :     0.000113
 14 F s       :     3.899951  s :     3.899951
      pz      :     1.845905  p :     5.280412
      px      :     1.533408
      py      :     1.901098
      dz2     :     0.002106  d :     0.014836
      dxz     :     0.004636
      dyz     :     0.000431
      dx2y2   :     0.005118
      dxy     :     0.002545
      f0      :     0.000077  f :     0.000677
      f+1     :     0.000122
      f-1     :     0.000004
      f+2     :     0.000165
      f-2     :     0.000039
      f+3     :     0.000164
      f-3     :     0.000105


                     *******************************
                     * LOEWDIN POPULATION ANALYSIS *
                     *******************************

----------------------
LOEWDIN ATOMIC CHARGES
----------------------
   0 C :   -0.209831
   1 C :   -0.141711
   2 C :   -0.141872
   3 H :    0.153281
   4 H :    0.153066
   5 C :   -0.177731
   6 C :   -0.178420
   7 H :    0.139508
   8 H :    0.139447
   9 C :   -0.425568
  10 O :   -0.165471
  11 C :   -0.641945
  12 F :    0.174431
  13 F :    0.177977
  14 F :    0.144841

-------------------------------
LOEWDIN REDUCED ORBITAL CHARGES
-------------------------------
  0 C s       :     2.703758  s :     2.703758
      pz      :     0.943628  p :     2.959202
      px      :     0.970033
      py      :     1.045541
      dz2     :     0.158808  d :     0.491001
      dxz     :     0.043321
      dyz     :     0.134930
      dx2y2   :     0.071882
      dxy     :     0.082060
      f0      :     0.008773  f :     0.055870
      f+1     :     0.003831
      f-1     :     0.019432
      f+2     :     0.006615
      f-2     :     0.007796
      f+3     :     0.003933
      f-3     :     0.005490
  1 C s       :     2.757857  s :     2.757857
      pz      :     1.051701  p :     2.924379
      px      :     0.875987
      py      :     0.996691
      dz2     :     0.093144  d :     0.415266
      dxz     :     0.084265
      dyz     :     0.155109
      dx2y2   :     0.043398
      dxy     :     0.039352
      f0      :     0.007339  f :     0.044209
      f+1     :     0.006675
      f-1     :     0.014511
      f+2     :     0.004449
      f-2     :     0.003337
      f+3     :     0.004074
      f-3     :     0.003826
  2 C s       :     2.757982  s :     2.757982
      pz      :     1.054470  p :     2.924151
      px      :     0.875459
      py      :     0.994222
      dz2     :     0.099195  d :     0.415558
      dxz     :     0.090665
      dyz     :     0.148234
      dx2y2   :     0.043902
      dxy     :     0.033562
      f0      :     0.007461  f :     0.044181
      f+1     :     0.006259
      f-1     :     0.014573
      f+2     :     0.004446
      f-2     :     0.004369
      f+3     :     0.003480
      f-3     :     0.003594
  3 H s       :     0.786774  s :     0.786774
      pz      :     0.017856  p :     0.059945
      px      :     0.013235
      py      :     0.028854
  4 H s       :     0.786900  s :     0.786900
      pz      :     0.016454  p :     0.060034
      px      :     0.013272
      py      :     0.030308
  5 C s       :     2.774162  s :     2.774162
      pz      :     1.050705  p :     3.002485
      px      :     0.964012
      py      :     0.987767
      dz2     :     0.097730  d :     0.361441
      dxz     :     0.056498
      dyz     :     0.144357
      dx2y2   :     0.043169
      dxy     :     0.019688
      f0      :     0.007703  f :     0.039644
      f+1     :     0.005726
      f-1     :     0.013766
      f+2     :     0.004494
      f-2     :     0.002743
      f+3     :     0.001941
      f-3     :     0.003270
  6 C s       :     2.774125  s :     2.774125
      pz      :     1.047529  p :     3.003257
      px      :     0.964888
      py      :     0.990840
      dz2     :     0.092340  d :     0.361396
      dxz     :     0.053577
      dyz     :     0.150105
      dx2y2   :     0.042867
      dxy     :     0.022507
      f0      :     0.007426  f :     0.039642
      f+1     :     0.005836
      f-1     :     0.013868
      f+2     :     0.004462
      f-2     :     0.002269
      f+3     :     0.002308
      f-3     :     0.003473
  7 H s       :     0.799726  s :     0.799726
      pz      :     0.015455  p :     0.060765
      px      :     0.015622
      py      :     0.029688
  8 H s       :     0.799785  s :     0.799785
      pz      :     0.016836  p :     0.060768
      px      :     0.015627
      py      :     0.028305
  9 C s       :     2.732484  s :     2.732484
      pz      :     0.950739  p :     2.783249
      px      :     0.785349
      py      :     1.047161
      dz2     :     0.204583  d :     0.802265
      dxz     :     0.181732
      dyz     :     0.292969
      dx2y2   :     0.060275
      dxy     :     0.062707
      f0      :     0.020591  f :     0.107571
      f+1     :     0.020633
      f-1     :     0.043703
      f+2     :     0.005696
      f-2     :     0.006651
      f+3     :     0.005345
      f-3     :     0.004951
 10 O s       :     3.426073  s :     3.426073
      pz      :     1.469609  p :     4.672548
      px      :     1.503242
      py      :     1.699697
      dz2     :     0.027710  d :     0.061808
      dxz     :     0.014167
      dyz     :     0.019735
      dx2y2   :     0.000125
      dxy     :     0.000071
      f0      :     0.002171  f :     0.005042
      f+1     :     0.001119
      f-1     :     0.001718
      f+2     :     0.000014
      f-2     :     0.000016
      f+3     :     0.000002
      f-3     :     0.000003
 11 C s       :     2.746924  s :     2.746924
      pz      :     0.980439  p :     2.503161
      px      :     0.773353
      py      :     0.749369
      dz2     :     0.222168  d :     1.137810
      dxz     :     0.221172
      dyz     :     0.205395
      dx2y2   :     0.249917
      dxy     :     0.239159
      f0      :     0.015280  f :     0.254050
      f+1     :     0.033692
      f-1     :     0.034350
      f+2     :     0.043051
      f-2     :     0.040874
      f+3     :     0.038413
      f-3     :     0.048390
 12 F s       :     3.602890  s :     3.602890
      pz      :     1.769753  p :     5.191849
      px      :     1.771005
      py      :     1.651091
      dz2     :     0.004187  d :     0.029322
      dxz     :     0.003072
      dyz     :     0.008430
      dx2y2   :     0.005733
      dxy     :     0.007900
      f0      :     0.000153  f :     0.001508
      f+1     :     0.000084
      f-1     :     0.000269
      f+2     :     0.000178
      f-2     :     0.000300
      f+3     :     0.000289
      f-3     :     0.000234
 13 F s       :     3.601129  s :     3.601129
      pz      :     1.782489  p :     5.189873
      px      :     1.770122
      py      :     1.637262
      dz2     :     0.004130  d :     0.029501
      dxz     :     0.002649
      dyz     :     0.008027
      dx2y2   :     0.006275
      dxy     :     0.008420
      f0      :     0.000148  f :     0.001521
      f+1     :     0.000081
      f-1     :     0.000270
      f+2     :     0.000163
      f-2     :     0.000270
      f+3     :     0.000329
      f-3     :     0.000259
 14 F s       :     3.616768  s :     3.616768
      pz      :     1.794458  p :     5.208807
      px      :     1.584325
      py      :     1.830024
      dz2     :     0.004051  d :     0.028166
      dxz     :     0.009580
      dyz     :     0.000551
      dx2y2   :     0.009660
      dxy     :     0.004323
      f0      :     0.000142  f :     0.001418
      f+1     :     0.000308
      f-1     :     0.000007
      f+2     :     0.000343
      f-2     :     0.000072
      f+3     :     0.000307
      f-3     :     0.000238


                      *****************************
                      * MAYER POPULATION ANALYSIS *
                      *****************************

  NA   - Mulliken gross atomic population
  ZA   - Total nuclear charge
  QA   - Mulliken gross atomic charge
  VA   - Mayer's total valence
  BVA  - Mayer's bonded valence
  FA   - Mayer's free valence

  ATOM       NA         ZA         QA         VA         BVA        FA
  0 C      5.9529     6.0000     0.0471     3.5131     3.5131    -0.0000
  1 C      6.2506     6.0000    -0.2506     3.9083     3.9083     0.0000
  2 C      6.2465     6.0000    -0.2465     3.9016     3.9016    -0.0000
  3 H      0.8555     1.0000     0.1445     0.9760     0.9760     0.0000
  4 H      0.8550     1.0000     0.1450     0.9761     0.9761    -0.0000
  5 C      6.2770     6.0000    -0.2770     3.7148     3.7148     0.0000
  6 C      6.2781     6.0000    -0.2781     3.7155     3.7155    -0.0000
  7 H      0.8917     1.0000     0.1083     0.9919     0.9919     0.0000
  8 H      0.8918     1.0000     0.1082     0.9920     0.9920    -0.0000
  9 C      5.7513     6.0000     0.2487     4.2056     4.2056     0.0000
 10 O      8.6331     8.0000    -0.6331     1.8556     1.8556    -0.0000
 11 C      5.5486     6.0000     0.4514     4.5376     4.5376    -0.0000
 12 F      9.1867     9.0000    -0.1867     1.0974     1.0974    -0.0000
 13 F      9.1852     9.0000    -0.1852     1.1004     1.1004     0.0000
 14 F      9.1959     9.0000    -0.1959     1.0654     1.0654    -0.0000

  Mayer bond orders larger than 0.100000
B(  0-C ,  1-C ) :   1.2817 B(  0-C ,  2-C ) :   1.2825 B(  0-C , 11-C ) :   1.0618 
B(  1-C ,  3-H ) :   0.9597 B(  1-C ,  5-C ) :   1.4545 B(  2-C ,  4-H ) :   0.9592 
B(  2-C ,  6-C ) :   1.4514 B(  5-C ,  7-H ) :   0.9857 B(  5-C ,  9-C ) :   1.1949 
B(  6-C ,  8-H ) :   0.9859 B(  6-C ,  9-C ) :   1.1963 B(  9-C , 10-O ) :   1.7079 
B( 11-C , 12-F ) :   1.1310 B( 11-C , 13-F ) :   1.1324 B( 11-C , 14-F ) :   1.1288 


-------
TIMINGS
-------

Total SCF time: 0 days 0 hours 0 min 29 sec 

Total time                  ....      29.288 sec
Sum of individual times     ....      27.954 sec  ( 95.4%)

Fock matrix formation       ....      25.279 sec  ( 86.3%)
  Split-RI-J                ....       2.422 sec  (  9.6% of F)
  Chain of spheres X        ....      12.820 sec  ( 50.7% of F)
  XC integration            ....       4.741 sec  ( 18.8% of F)
    Basis function eval.    ....       0.455 sec  (  9.6% of XC)
    Density eval.           ....       0.439 sec  (  9.3% of XC)
    XC-Functional eval.     ....       0.075 sec  (  1.6% of XC)
    XC-Potential eval.      ....       0.455 sec  (  9.6% of XC)
Diagonalization             ....       0.462 sec  (  1.6%)
Density matrix formation    ....       0.036 sec  (  0.1%)
Population analysis         ....       0.090 sec  (  0.3%)
Initial guess               ....       0.244 sec  (  0.8%)
Orbital Transformation      ....       0.000 sec  (  0.0%)
Orbital Orthonormalization  ....       0.000 sec  (  0.0%)
DIIS solution               ....       0.244 sec  (  0.8%)
SOSCF solution              ....       0.338 sec  (  1.2%)
Grid generation             ....       1.263 sec  (  4.3%)

Maximum memory used throughout the entire SCF-calculation: 82.3 MB


-------------------------------------------------------------------------------
                          DFT DISPERSION CORRECTION                            
                                                                               
                              DFTD3 V3.1  Rev 1                                
                          USING Becke-Johnson damping                          
-------------------------------------------------------------------------------
The PBE0 functional is recognized
Active option DFTDOPT                   ...         4   

molecular C6(AA) [au] = 2756.248001 


            DFT-D V3
 parameters
 s6 scaling factor         :     1.0000 
 a1 scaling factor         :     0.4145 
 s8 scaling factor         :     1.2177 
 a2 scaling factor         :     4.8593 
 ad hoc parameters k1-k3   :    16.0000     1.3333    -4.0000 

 Edisp/kcal,au: -8.396631002242  -0.013380881809 
 E6   /kcal   :  -5.205073462 
 E8   /kcal   :  -3.191557540 
 % E8         :  38.009977323 

-------------------------   ----------------
Dispersion correction           -0.013380882
-------------------------   ----------------


-------------------------   --------------------
FINAL SINGLE POINT ENERGY      -643.655285837467
-------------------------   --------------------



           ************************************************************
           *        Program running with 24 parallel MPI-processes    *
           *              working on a common directory               *
[...]
      4       0.049222  -0.006083   0.047322  -0.050843   0.058126   0.037165
      5      -0.042872  -0.053112   0.030956  -0.056213   0.056805   0.013202
      6      -0.006387   0.004163   0.001788   0.001940   0.000085  -0.001646
      7       0.041771   0.006537  -0.044609  -0.045985  -0.057006   0.033642
      8       0.036381   0.051827   0.036734   0.059147   0.063823  -0.011612
      9      -0.006666   0.026334  -0.016910  -0.008329   0.010944  -0.021338
     10      -0.135206  -0.249905   0.298474   0.173214  -0.160218   0.341224
     11      -0.353114  -0.461197   0.437503   0.316280  -0.290139   0.499653
     12       0.009621  -0.008661   0.004790  -0.004490  -0.001169  -0.004005
     13      -0.146673  -0.174475  -0.278244   0.148385   0.119130   0.313498
     14       0.404197   0.410780   0.480914  -0.321361  -0.264004  -0.535542
     15      -0.004064  -0.000783   0.000075   0.002701   0.004228  -0.003408
     16       0.065618   0.029193   0.004677  -0.062416  -0.091191   0.102633
     17       0.063057   0.024768  -0.028998  -0.001237  -0.008636  -0.086232
     18      -0.001008  -0.001836   0.000321   0.002267  -0.002651  -0.005078
     19       0.050347   0.033603  -0.005109  -0.063728   0.079960   0.112482
     20      -0.052811  -0.030804  -0.030306   0.004862  -0.023440   0.076592
     21      -0.001885   0.004840  -0.004504   0.005570   0.003909   0.000645
     22      -0.176403  -0.176020   0.193283  -0.316517   0.156104  -0.054943
     23       0.541524   0.424506  -0.391629   0.475401  -0.499773   0.231951
     24       0.018143   0.010730   0.013180   0.021072   0.017818   0.005009
     25      -0.192382  -0.191531  -0.228006  -0.347661  -0.187900  -0.080100
     26      -0.460352  -0.405231  -0.395749  -0.449961  -0.475747  -0.253096
     27       0.002683   0.001442  -0.000029  -0.010921  -0.000217   0.004940
     28      -0.070204  -0.035763  -0.000551   0.270606   0.006116  -0.124592
     29       0.001950   0.000263   0.019310  -0.009349  -0.038314   0.003453
     30      -0.000465  -0.000224   0.000240   0.001265   0.000090  -0.000056
     31       0.012112   0.005144  -0.000510  -0.030194  -0.000329   0.001447
     32      -0.001022   0.001280  -0.020307   0.001478  -0.002709  -0.000090
     33       0.024121  -0.014507  -0.015185   0.000303   0.041803  -0.001758
     34      -0.230225   0.296906   0.007383  -0.014251  -0.023273   0.067293
     35      -0.010562  -0.005931   0.023067   0.002285  -0.375865  -0.011698
     36       0.019015  -0.023921   0.001947   0.000960  -0.020526  -0.000797
     37       0.052267  -0.064601  -0.000299   0.002597  -0.026313  -0.006345
     38      -0.024174   0.028885  -0.001567  -0.000544   0.039281  -0.004456
     39      -0.031747   0.030325   0.003122  -0.000889  -0.022052   0.000330
     40       0.071702  -0.074966  -0.002937   0.002407   0.033172  -0.004780
     41       0.033104  -0.029721  -0.003060   0.000145   0.038704   0.006983
     42      -0.001004   0.001283   0.004798  -0.000119   0.012089   0.000418
     43       0.012538  -0.017772  -0.000374   0.001443   0.001650  -0.006177
     44       0.001273   0.000269   0.002158  -0.000104   0.022973   0.000451
                 36         37         38         39         40         41    
      0      -0.001606   0.003741   0.001460   0.017180  -0.003535   0.000048
      1      -0.005983  -0.091244  -0.034464  -0.428467  -0.006305  -0.000277
      2      -0.141756   0.002359  -0.209720   0.033957  -0.205113  -0.001284
      3      -0.003308   0.002487  -0.005363  -0.011918  -0.008214  -0.001373
      4       0.102419  -0.003286   0.106288   0.249085   0.113844   0.038883
      5      -0.037013  -0.269640   0.094269   0.118790   0.317608  -0.020759
      6       0.005043  -0.002981   0.001805  -0.008177   0.000159   0.000145
      7      -0.104055   0.015427  -0.067937   0.255538  -0.092110  -0.003301
      8      -0.027857   0.269310   0.081171  -0.151787   0.324850  -0.000632
      9       0.009758  -0.014589   0.009218   0.002244   0.014375   0.014520
     10      -0.140466   0.343223  -0.169593  -0.023768  -0.299170  -0.451250
     11      -0.468201   0.248296  -0.373257  -0.353148  -0.353396   0.273529
     12      -0.000349  -0.012239  -0.002773  -0.000825  -0.008597  -0.001680
     13       0.111597   0.324260   0.139383  -0.023898   0.272525   0.033843
     14      -0.479819  -0.269493  -0.332127   0.417627  -0.370950   0.017034
     15       0.001559  -0.002906   0.001561   0.006217   0.002851   0.002967
     16      -0.084634  -0.016062  -0.080358  -0.172687   0.014313  -0.064115
     17       0.160499   0.289113   0.120203   0.061673  -0.277999  -0.032664
     18      -0.005661   0.004780  -0.004245   0.008791   0.004637  -0.000029
     19       0.094482  -0.036198   0.065690  -0.190411  -0.033890   0.000800
     20       0.152282  -0.287572   0.109112  -0.070007  -0.277161  -0.000297
     21      -0.005448  -0.010082  -0.002038   0.003866   0.006278  -0.034592
     22       0.187841   0.296210   0.171621  -0.005597  -0.214686   0.748620
     23      -0.335473  -0.261423  -0.414397  -0.271732   0.125790   0.388524
     24       0.010732  -0.014450   0.012445  -0.006879  -0.011420   0.000408
     25      -0.211281   0.315419  -0.198483   0.049317   0.223885  -0.011876
     26      -0.324083   0.243807  -0.366185   0.341370   0.113177   0.005834
     27      -0.002874   0.002289   0.004277  -0.011591  -0.001193  -0.000019
     28       0.009006  -0.051691   0.003836   0.276706   0.005390   0.001139
     29       0.249042  -0.000800  -0.406210   0.025743   0.149520  -0.002294
     30       0.002460  -0.001416  -0.002183   0.001228  -0.000014  -0.000004
     31      -0.007075   0.033867   0.004787  -0.025627  -0.000382  -0.000010
     32      -0.213104   0.000786   0.196150  -0.015872  -0.013423   0.000366
     33      -0.005464  -0.001639  -0.002372  -0.002300  -0.003756   0.000084
     34       0.003470   0.038835   0.007805   0.060100   0.000236   0.000368
     35       0.065562  -0.000543   0.098974  -0.010906  -0.005967  -0.000020
     36       0.001201   0.000664   0.002428   0.001262  -0.001287  -0.000015
     37       0.000247  -0.001449   0.002838  -0.002675  -0.005774  -0.000172
     38      -0.001100  -0.002532  -0.006232  -0.007937   0.005870  -0.000067
     39       0.001300  -0.000384   0.002371  -0.001255  -0.001339  -0.000008
     40      -0.000751  -0.001406  -0.003807  -0.001432   0.005901   0.000007
     41      -0.001164   0.002595  -0.004978   0.009340   0.005066   0.000035
     42       0.002431  -0.000011  -0.002035   0.000181   0.008327   0.000007
     43      -0.000059  -0.002354  -0.000578  -0.005626   0.000187  -0.000014
     44       0.001009  -0.000073  -0.004198   0.000129   0.009849   0.000021
                 42         43         44    
      0       0.000030   0.000155  -0.000047
      1       0.000058  -0.003279  -0.000911
      2      -0.001122  -0.000726   0.002872
      3      -0.000056  -0.001875   0.000951
      4       0.001394   0.055759  -0.028666
      5       0.000026  -0.036360   0.017938
      6       0.001668  -0.001507  -0.002794
      7      -0.036659   0.032219   0.059147
      8      -0.016078   0.018166   0.032160
      9       0.000324   0.020615  -0.010397
     10      -0.011211  -0.641896   0.325100
     11       0.006483   0.395949  -0.199590
     12      -0.020767   0.018077   0.032899
     13       0.428181  -0.372449  -0.675668
     14       0.220347  -0.195998  -0.353984
     15      -0.000159  -0.001663   0.000972
     16       0.003440   0.035038  -0.020645
     17       0.001990   0.021336  -0.011801
     18      -0.002263  -0.000491  -0.001118
     19       0.063740   0.014504   0.032597
     20      -0.038428  -0.010928  -0.022685
     21       0.001719   0.018505  -0.010801
     22      -0.037447  -0.401729   0.235156
     23      -0.020860  -0.210997   0.122689
     24       0.026533   0.006013   0.013450
     25      -0.743100  -0.168189  -0.374128
     26       0.453422   0.104395   0.230176
     27       0.000083   0.000070   0.000047
     28      -0.001469  -0.001940  -0.000676
     29      -0.002173   0.001123  -0.003047
     30      -0.000006  -0.000004  -0.000014
     31       0.000047   0.000180   0.000090
     32       0.000377  -0.000323   0.000952
     33       0.000103  -0.000015  -0.000097
     34      -0.000360   0.000985   0.000356
     35       0.000028  -0.000255   0.000715
     36      -0.000007  -0.000007   0.000052
     37       0.000010  -0.000235   0.000180
     38       0.000029  -0.000110  -0.000160
     39      -0.000023  -0.000016   0.000064
     40       0.000169  -0.000094  -0.000313
     41      -0.000094   0.000205  -0.000020
     42      -0.000003   0.000041  -0.000120
     43       0.000014  -0.000030  -0.000019
     44       0.000013   0.000057  -0.000185


-----------
IR SPECTRUM
-----------

 Mode   freq       eps      Int      T**2         TX        TY        TZ
       cm**-1   L/(mol*cm) km/mol    a.u.
----------------------------------------------------------------------------
  6:     18.26   0.000023    0.12  0.000396  ( 0.001052  0.019837 -0.001244)
  7:     86.56   0.001355    6.85  0.004885  (-0.069767 -0.003045 -0.002794)
  8:    178.05   0.001088    5.50  0.001907  (-0.002126  0.043619 -0.000431)
  9:    206.22   0.000656    3.32  0.000993  (-0.031372 -0.001383 -0.002633)
 10:    315.73   0.000029    0.15  0.000029  (-0.002153 -0.001139 -0.004772)
 11:    385.20   0.001634    8.26  0.001324  (-0.001265  0.036196 -0.003457)
 12:    403.87   0.001546    7.81  0.001194  (-0.010590 -0.000427 -0.032893)
 13:    426.89   0.000033    0.17  0.000024  (-0.000746 -0.004768 -0.000861)
 14:    464.72   0.000457    2.31  0.000307  (-0.000821  0.017437  0.001479)
 15:    509.25   0.004233   21.39  0.002594  ( 0.049069  0.001767 -0.013538)
 16:    576.83   0.000005    0.03  0.000003  ( 0.000594 -0.000196  0.001592)
 17:    590.71   0.005771   29.17  0.003049  ( 0.045033  0.000854 -0.031941)
 18:    607.60   0.021854  110.44  0.011224  ( 0.006814  0.003877  0.105653)
 19:    641.05   0.000471    2.38  0.000229  ( 0.000757 -0.014866  0.002739)
 20:    753.45   0.002861   14.46  0.001185  (-0.019430 -0.001826 -0.028360)
 21:    759.27   0.001273    6.43  0.000523  (-0.004541  0.000015 -0.022414)
 22:    809.52   0.000052    0.27  0.000020  ( 0.001010  0.004373 -0.000297)
 23:    846.37   0.000642    3.25  0.000237  ( 0.007748  0.000722  0.013279)
 24:    857.59   0.027224  137.58  0.009906  ( 0.098798  0.004791  0.011062)
 25:    962.52   0.006766   34.19  0.002194  ( 0.041906  0.002630  0.020754)
 26:    969.24   0.000023    0.12  0.000008  ( 0.001366 -0.002349  0.000418)
 27:    996.61   0.000713    3.60  0.000223  ( 0.013651  0.000016  0.006068)
 28:   1041.56   0.095794  484.10  0.028701  (-0.133585 -0.005895 -0.104026)
 29:   1085.69   0.043418  219.41  0.012480  (-0.075285 -0.016676  0.080832)
 30:   1099.12   0.049033  247.79  0.013922  ( 0.010866 -0.117486 -0.000650)
 31:   1135.60   0.022634  114.38  0.006220  (-0.004043  0.078457 -0.006924)
 32:   1169.82   0.035765  180.74  0.009541  (-0.010217  0.005604  0.096979)
 33:   1278.92   0.000187    0.94  0.000046  ( 0.000072 -0.006472  0.001920)
 34:   1327.15   0.205507  1038.55  0.048322  ( 0.012714 -0.011108 -0.219174)
 35:   1339.03   0.010885   55.01  0.002537  (-0.001457  0.049585 -0.008720)
 36:   1419.82   0.095999  485.14  0.021100  (-0.003177  0.004823  0.145142)
 37:   1479.03   0.001347    6.81  0.000284  ( 0.000577 -0.016843 -0.000473)
 38:   1566.99   0.084567  427.37  0.016841  ( 0.000797  0.000029 -0.129772)
 39:   1571.94   0.018207   92.01  0.003615  (-0.002369  0.059611  0.007447)
 40:   1647.20   0.098069  495.60  0.018579  (-0.003921  0.004683  0.136169)
 41:   3168.17   0.004974   25.13  0.000490  ( 0.000301 -0.009594 -0.019944)
 42:   3168.82   0.004872   24.62  0.000480  (-0.000433  0.010387 -0.019281)
 43:   3187.54   0.008400   42.45  0.000822  (-0.001284  0.028649 -0.000062)
 44:   3190.57   0.000753    3.80  0.000074  ( 0.000224  0.008409 -0.001697)

* The epsilon (eps) is given for a Dirac delta lineshape.
** The dipole moment derivative (T) already includes vibrational overlap.

The first frequency considered to be a vibration is 6
The total number of vibrations considered is 39


--------------------------
THERMOCHEMISTRY AT 298.15K
--------------------------

Temperature         ... 298.15 K
Pressure            ... 1.00 atm
Total Mass          ... 161.10 AMU

Throughout the following assumptions are being made:
  (1) The electronic state is orbitally nondegenerate
  (2) There are no thermally accessible electronically excited states
  (3) Hindered rotations indicated by low frequency modes are not
      treated as such but are treated as vibrations and this may
      cause some error
  (4) All equations used are the standard statistical mechanics
      equations for an ideal gas
  (5) All vibrations are strictly harmonic

freq.      18.26  E(vib)   ...       0.57 
freq.      86.56  E(vib)   ...       0.48 
freq.     178.05  E(vib)   ...       0.37 
freq.     206.22  E(vib)   ...       0.35 
freq.     315.73  E(vib)   ...       0.25 
freq.     385.20  E(vib)   ...       0.20 
freq.     403.87  E(vib)   ...       0.19 
freq.     426.89  E(vib)   ...       0.18 
freq.     464.72  E(vib)   ...       0.16 
freq.     509.25  E(vib)   ...       0.14 
freq.     576.83  E(vib)   ...       0.11 
freq.     590.71  E(vib)   ...       0.10 
freq.     607.60  E(vib)   ...       0.10 
freq.     641.05  E(vib)   ...       0.09 
freq.     753.45  E(vib)   ...       0.06 
freq.     759.27  E(vib)   ...       0.06 
freq.     809.52  E(vib)   ...       0.05 
freq.     846.37  E(vib)   ...       0.04 
freq.     857.59  E(vib)   ...       0.04 
freq.     962.52  E(vib)   ...       0.03 
freq.     969.24  E(vib)   ...       0.03 
freq.     996.61  E(vib)   ...       0.02 
freq.    1041.56  E(vib)   ...       0.02 
freq.    1085.69  E(vib)   ...       0.02 
freq.    1099.12  E(vib)   ...       0.02 
freq.    1135.60  E(vib)   ...       0.01 
freq.    1169.82  E(vib)   ...       0.01 
freq.    1278.92  E(vib)   ...       0.01 
freq.    1327.15  E(vib)   ...       0.01 
freq.    1339.03  E(vib)   ...       0.01 
freq.    1419.82  E(vib)   ...       0.00 
freq.    1479.03  E(vib)   ...       0.00 
freq.    1566.99  E(vib)   ...       0.00 
freq.    1571.94  E(vib)   ...       0.00 
freq.    1647.20  E(vib)   ...       0.00 
freq.    3168.17  E(vib)   ...       0.00 
freq.    3168.82  E(vib)   ...       0.00 
freq.    3187.54  E(vib)   ...       0.00 
freq.    3190.57  E(vib)   ...       0.00 

------------
INNER ENERGY
------------

The inner energy is: U= E(el) + E(ZPE) + E(vib) + E(rot) + E(trans)
    E(el)   - is the total energy from the electronic structure calculation
              = E(kin-el) + E(nuc-el) + E(el-el) + E(nuc-nuc)
    E(ZPE)  - the the zero temperature vibrational energy from the frequency calculation
    E(vib)  - the the finite temperature correction to E(ZPE) due to population
              of excited vibrational states
    E(rot)  - is the rotational thermal energy
    E(trans)- is the translational thermal energy

Summary of contributions to the inner energy U:
Electronic energy                ...   -643.65528490 Eh
Zero point energy                ...      0.09623545 Eh      60.39 kcal/mol
Thermal vibrational correction   ...      0.00591523 Eh       3.71 kcal/mol
Thermal rotational correction    ...      0.00141627 Eh       0.89 kcal/mol
Thermal translational correction ...      0.00141627 Eh       0.89 kcal/mol
-----------------------------------------------------------------------
Total thermal energy                   -643.55030167 Eh


Summary of corrections to the electronic energy:
(perhaps to be used in another calculation)
Total thermal correction                  0.00874777 Eh       5.49 kcal/mol
Non-thermal (ZPE) correction              0.09623545 Eh      60.39 kcal/mol
-----------------------------------------------------------------------
Total correction                          0.10498323 Eh      65.88 kcal/mol


--------
ENTHALPY
--------

The enthalpy is H = U + kB*T
                kB is Boltzmann's constant
Total free energy                 ...   -643.55030167 Eh 
Thermal Enthalpy correction       ...      0.00094421 Eh       0.59 kcal/mol
-----------------------------------------------------------------------
Total Enthalpy                    ...   -643.54935747 Eh


Note: Only C1 symmetry has been detected, increase convergence thresholds 
      if your molecule has a higher symmetry. Symmetry factor of 1.0 is   
      used for the rotational entropy correction. 
 

Note: Rotational entropy computed according to Herzberg 
Infrared and Raman Spectra, Chapter V,1, Van Nostrand Reinhold, 1945 
Point Group:  C1, Symmetry Number:   1  
Rotational constants in cm-1:     0.095569     0.021260     0.019121 

Vibrational entropy computed according to the QRRHO of S. Grimme
Chem.Eur.J. 2012 18 9955


-------
ENTROPY
-------

The entropy contributions are T*S = T*(S(el)+S(vib)+S(rot)+S(trans))
     S(el)   - electronic entropy
     S(vib)  - vibrational entropy
     S(rot)  - rotational entropy
     S(trans)- translational entropy
The entropies will be listed as multiplied by the temperature to get
units of energy

Electronic entropy                ...      0.00000000 Eh      0.00 kcal/mol
Vibrational entropy               ...      0.01014950 Eh      6.37 kcal/mol
Rotational entropy                ...      0.01430528 Eh      8.98 kcal/mol
Translational entropy             ...      0.01954662 Eh     12.27 kcal/mol
-----------------------------------------------------------------------
Final entropy term                ...      0.04400140 Eh     27.61 kcal/mol

In case the symmetry of your molecule has not been determined correctly
or in case you have a reason to use a different symmetry number we print 
out the resulting rotational entropy values for sn=1,12 :
 --------------------------------------------------------
|  sn= 1 | S(rot)=       0.01430528 Eh      8.98 kcal/mol|
|  sn= 2 | S(rot)=       0.01365083 Eh      8.57 kcal/mol|
|  sn= 3 | S(rot)=       0.01326799 Eh      8.33 kcal/mol|
|  sn= 4 | S(rot)=       0.01299637 Eh      8.16 kcal/mol|
|  sn= 5 | S(rot)=       0.01278568 Eh      8.02 kcal/mol|
|  sn= 6 | S(rot)=       0.01261354 Eh      7.92 kcal/mol|
|  sn= 7 | S(rot)=       0.01246799 Eh      7.82 kcal/mol|
|  sn= 8 | S(rot)=       0.01234191 Eh      7.74 kcal/mol|
|  sn= 9 | S(rot)=       0.01223071 Eh      7.67 kcal/mol|
|  sn=10 | S(rot)=       0.01213123 Eh      7.61 kcal/mol|
|  sn=11 | S(rot)=       0.01204124 Eh      7.56 kcal/mol|
|  sn=12 | S(rot)=       0.01195908 Eh      7.50 kcal/mol|
 --------------------------------------------------------


-------------------
GIBBS FREE ENERGY
-------------------

The Gibbs free energy is G = H - T*S

Total enthalpy                    ...   -643.54935747 Eh 
Total entropy correction          ...     -0.04400140 Eh    -27.61 kcal/mol
-----------------------------------------------------------------------
Final Gibbs free energy         ...   -643.59335887 Eh

For completeness - the Gibbs free energy minus the electronic energy
G-E(el)                           ...      0.06192604 Eh     38.86 kcal/mol


Timings for individual modules:

Sum of individual times         ...      293.108 sec (=   4.885 min)
GTO integral calculation        ...        3.779 sec (=   0.063 min)   1.3 %
SCF iterations                  ...       61.581 sec (=   1.026 min)  21.0 %
SCF Gradient evaluation         ...       12.048 sec (=   0.201 min)   4.1 %
Geometry relaxation             ...        0.173 sec (=   0.003 min)   0.1 %
Analytical frequency calculation...      215.527 sec (=   3.592 min)  73.5 %
                             ****ORCA TERMINATED NORMALLY****
TOTAL RUN TIME: 0 days 0 hours 4 minutes 59 seconds 522 msec
