
                                 *****************
                                 * O   R   C   A *
                                 *****************

                                            #,                                       
                                            ###                                      
                                            ####                                     
                                            #####                                    
                                            ######                                   
                                           ########,                                 
                                     ,,################,,,,,                         
                               ,,#################################,,                 
                          ,,##########################################,,             
                       ,#########################################, ''#####,          
                    ,#############################################,,   '####,        
                  ,##################################################,,,,####,       
                ,###########''''           ''''###############################       
              ,#####''   ,,,,##########,,,,          '''####'''          '####       
            ,##' ,,,,###########################,,,                        '##       
           ' ,,###''''                  '''############,,,                           
         ,,##''                                '''############,,,,        ,,,,,,###''
      ,#''                                            '''#######################'''  
     '                                                          ''''####''''         
             ,#######,   #######,   ,#######,      ##                                
            ,#'     '#,  ##    ##  ,#'     '#,    #''#        ######   ,####,        
            ##       ##  ##   ,#'  ##            #'  '#       #        #'  '#        
            ##       ##  #######   ##           ,######,      #####,   #    #        
            '#,     ,#'  ##    ##  '#,     ,#' ,#      #,         ##   #,  ,#        
             '#######'   ##     ##  '#######'  #'      '#     #####' # '####'        



                  #######################################################
                  #                        -***-                        #
                  #          Department of theory and spectroscopy      #
                  #    Directorship and core code : Frank Neese         #
                  #        Max Planck Institute fuer Kohlenforschung    #
                  #                Kaiser Wilhelm Platz 1               #
                  #                 D-45470 Muelheim/Ruhr               #
                  #                      Germany                        #
                  #                                                     #
                  #                  All rights reserved                #
                  #                        -***-                        #
                  #######################################################


                         Program Version 5.0.4 -  RELEASE  -


 With contributions from (in alphabetic order):
   Daniel Aravena         : Magnetic Suceptibility
   Michael Atanasov       : Ab Initio Ligand Field Theory (pilot matlab implementation)
   Alexander A. Auer      : GIAO ZORA, VPT2 properties, NMR spectrum
   Ute Becker             : Parallelization
   Giovanni Bistoni       : ED, misc. LED, open-shell LED, HFLD
   Martin Brehm           : Molecular dynamics
   Dmytro Bykov           : SCF Hessian
   Vijay G. Chilkuri      : MRCI spin determinant printing, contributions to CSF-ICE
   Dipayan Datta          : RHF DLPNO-CCSD density
   Achintya Kumar Dutta   : EOM-CC, STEOM-CC
   Dmitry Ganyushin       : Spin-Orbit,Spin-Spin,Magnetic field MRCI
   Miquel Garcia          : C-PCM and meta-GGA Hessian, CC/C-PCM, Gaussian charge scheme
   Yang Guo               : DLPNO-NEVPT2, F12-NEVPT2, CIM, IAO-localization
   Andreas Hansen         : Spin unrestricted coupled pair/coupled cluster methods
   Benjamin Helmich-Paris : MC-RPA, TRAH-SCF, COSX integrals
   Lee Huntington         : MR-EOM, pCC
   Robert Izsak           : Overlap fitted RIJCOSX, COSX-SCS-MP3, EOM
   Marcus Kettner         : VPT2
   Christian Kollmar      : KDIIS, OOCD, Brueckner-CCSD(T), CCSD density, CASPT2, CASPT2-K
   Simone Kossmann        : Meta GGA functionals, TD-DFT gradient, OOMP2, MP2 Hessian
   Martin Krupicka        : Initial AUTO-CI
   Lucas Lang             : DCDCAS
   Marvin Lechner         : AUTO-CI (C++ implementation), FIC-MRCC
   Dagmar Lenk            : GEPOL surface, SMD
   Dimitrios Liakos       : Extrapolation schemes; Compound Job, initial MDCI parallelization
   Dimitrios Manganas     : Further ROCIS development; embedding schemes
   Dimitrios Pantazis     : SARC Basis sets
   Anastasios Papadopoulos: AUTO-CI, single reference methods and gradients
   Taras Petrenko         : DFT Hessian,TD-DFT gradient, ASA, ECA, R-Raman, ABS, FL, XAS/XES, NRVS
   Peter Pinski           : DLPNO-MP2, DLPNO-MP2 Gradient
   Christoph Reimann      : Effective Core Potentials
   Marius Retegan         : Local ZFS, SOC
   Christoph Riplinger    : Optimizer, TS searches, QM/MM, DLPNO-CCSD(T), (RO)-DLPNO pert. Triples
   Tobias Risthaus        : Range-separated hybrids, TD-DFT gradient, RPA, STAB
   Michael Roemelt        : Original ROCIS implementation
   Masaaki Saitow         : Open-shell DLPNO-CCSD energy and density
   Barbara Sandhoefer     : DKH picture change effects
   Avijit Sen             : IP-ROCIS
   Kantharuban Sivalingam : CASSCF convergence, NEVPT2, FIC-MRCI
   Bernardo de Souza      : ESD, SOC TD-DFT
   Georgi Stoychev        : AutoAux, RI-MP2 NMR, DLPNO-MP2 response
   Willem Van den Heuvel  : Paramagnetic NMR
   Boris Wezisla          : Elementary symmetry handling
   Frank Wennmohs         : Technical directorship


 We gratefully acknowledge several colleagues who have allowed us to
 interface, adapt or use parts of their codes:
   Stefan Grimme, W. Hujo, H. Kruse, P. Pracht,  : VdW corrections, initial TS optimization,
                  C. Bannwarth, S. Ehlert          DFT functionals, gCP, sTDA/sTD-DF
   Ed Valeev, F. Pavosevic, A. Kumar             : LibInt (2-el integral package), F12 methods
   Garnet Chan, S. Sharma, J. Yang, R. Olivares  : DMRG
   Ulf Ekstrom                                   : XCFun DFT Library
   Mihaly Kallay                                 : mrcc  (arbitrary order and MRCC methods)
   Jiri Pittner, Ondrej Demel                    : Mk-CCSD
   Frank Weinhold                                : gennbo (NPA and NBO analysis)
   Christopher J. Cramer and Donald G. Truhlar   : smd solvation model
   Lars Goerigk                                  : TD-DFT with DH, B97 family of functionals
   V. Asgeirsson, H. Jonsson                     : NEB implementation
   FAccTs GmbH                                   : IRC, NEB, NEB-TS, DLPNO-Multilevel, CI-OPT
                                                   MM, QMMM, 2- and 3-layer-ONIOM, Crystal-QMMM,
                                                   LR-CPCM, SF, NACMEs, symmetry and pop. for TD-DFT,
                                                   nearIR, NL-DFT gradient (VV10), updates on ESD,
                                                   ML-optimized integration grids
   S Lehtola, MJT Oliveira, MAL Marques          : LibXC Library
   Liviu Ungur et al                             : ANISO software


 Your calculation uses the libint2 library for the computation of 2-el integrals
 For citations please refer to: http://libint.valeyev.net

 Your ORCA version has been built with support for libXC version: 5.1.0
 For citations please refer to: https://tddft.org/programs/libxc/

 This ORCA versions uses:
   CBLAS   interface :  Fast vector & matrix operations
   LAPACKE interface :  Fast linear algebra routines
   SCALAPACK package :  Parallel linear algebra routines
   Shared memory     :  Shared parallel matrices
   BLAS/LAPACK       :  OpenBLAS 0.3.15  USE64BITINT DYNAMIC_ARCH NO_AFFINITY Haswell SINGLE_THREADED
        Core in use  :  Haswell
   Copyright (c) 2011-2014, The OpenBLAS Project


Your calculation utilizes the atom-pairwise dispersion correction
with the Becke-Johnson damping scheme (D3BJ)
Cite in your paper:
S.Grimme, S.Ehrlich, L.Goerigk, J Comput Chem, (2011), 32, 1456–1465 
S.Grimme, J.Antony, S.Ehrlich and H.Krieg, J.Chem.Phys., 132, (2010), 154104 
   

================================================================================

----- Orbital basis set information -----
Your calculation utilizes the basis: def2-TZVP
   F. Weigend and R. Ahlrichs, Phys. Chem. Chem. Phys. 7, 3297 (2005).

----- AuxJ basis set information -----
Your calculation utilizes the auxiliary basis: def2/J
   F. Weigend, Phys. Chem. Chem. Phys. 8, 1057 (2006).

================================================================================
                                        WARNINGS
                       Please study these warnings very carefully!
================================================================================


WARNING: Geometry Optimization
  ===> : Switching off AutoStart
         For restart on a previous wavefunction, please use MOREAD

INFO   : the flag for use of the SHARK integral package has been found!

================================================================================
                                       INPUT FILE
================================================================================
NAME = CHCH2-PhenO/CHCH2-PhenO.inp
|  1> %pal nprocs 24 end
|  2> %maxcore 3500
|  3> ! PBE0 D3BJ def2-TZVP TightSCF OPT FREQ TightOpt
|  4> ! CPCM(dmso)
|  5> %scf
|  6> MaxIter 800
|  7> end
|  8> %geom
|  9> MaxIter 800
| 10> MaxStep 0.2
| 11> end
| 12> *xyz -1 1
| 13> 
| 14> C      -0.00000000     -0.58515500     -1.60452500
| 15> C      -0.00000000      0.64112100     -0.92369600
| 16> C      -0.00000000     -1.74337800     -0.80860100
| 17> H      -0.00000000      1.55741100     -1.51063500
| 18> H      -0.00000100     -2.71854800     -1.28840300
| 19> C       0.00000000      0.72290600      0.45278200
| 20> C       0.00000000     -1.68234000      0.56542300
| 21> H       0.00000000      1.69323400      0.94207300
| 22> H      -0.00000000     -2.59918100      1.14925700
| 23> C       0.00000000     -0.44057200      1.28309100
| 24> O       0.00000000     -0.38503000      2.55484000
| 25> C      -0.00000000     -0.60307200     -3.05591300
| 26> H      -0.00000000      0.38682700     -3.51257600
| 27> C       0.00000000     -1.66081800     -3.87843800
| 28> H       0.00000100     -2.68313200     -3.51366200
| 29> H       0.00000000     -1.52547700     -4.95361100
| 30> *
| 31> 
| 32>                          ****END OF INPUT****
================================================================================

                       *****************************
                       * Geometry Optimization Run *
                       *****************************

Geometry optimization settings:
Update method            Update   .... BFGS
Choice of coordinates    CoordSys .... Z-matrix Internals
Initial Hessian          InHess   .... Almoef's Model

Convergence Tolerances:
Energy Change            TolE     ....  1.0000e-06 Eh
Max. Gradient            TolMAXG  ....  1.0000e-04 Eh/bohr
RMS Gradient             TolRMSG  ....  3.0000e-05 Eh/bohr
Max. Displacement        TolMAXD  ....  1.0000e-03 bohr
RMS Displacement         TolRMSD  ....  6.0000e-04 bohr
Strict Convergence                ....  False
------------------------------------------------------------------------------
                        ORCA OPTIMIZATION COORDINATE SETUP
------------------------------------------------------------------------------

The optimization will be done in new redundant internal coordinates
Making redundant internal coordinates   ...  (new redundants) done
Evaluating the initial hessian          ...  (Almloef) done
Evaluating the coordinates              ...  done
Calculating the B-matrix                .... done
Calculating the G-matrix                .... done
Diagonalizing the G-matrix              .... done
Small eigenvalue found = 2.619e-02
The first mode is                       ....   30
The number of degrees of freedom        ....   42

    -----------------------------------------------------------------
                    Redundant Internal Coordinates


    -----------------------------------------------------------------
         Definition                    Initial Value    Approx d2E/dq
    -----------------------------------------------------------------
      1. B(C   1,C   0)                  1.4026         0.596540   
      2. B(C   2,C   0)                  1.4053         0.590565   
      3. B(H   3,C   1)                  1.0882         0.362547   
      4. B(H   4,C   2)                  1.0868         0.364338   
      5. B(C   5,C   1)                  1.3789         0.650787   
      6. B(C   6,C   2)                  1.3754         0.659273   
      7. B(H   7,C   5)                  1.0867         0.364477   
      8. B(H   8,C   6)                  1.0869         0.364158   
      9. B(C   9,C   6)                  1.4342         0.531082   
     10. B(C   9,C   5)                  1.4294         0.540666   
     11. B(O  10,C   9)                  1.2730         0.860208   
     12. B(C  11,C   0)                  1.4515         0.498450   
     13. B(H  12,C  11)                  1.0902         0.359893   
     14. B(C  13,C  11)                  1.3399         0.751009   
     15. B(H  14,C  13)                  1.0854         0.366178   
     16. B(H  15,C  13)                  1.0837         0.368588   
     17. A(C   1,C   0,C   2)          116.4643         0.427321   
     18. A(C   1,C   0,C  11)          119.7463         0.414582   
     19. A(C   2,C   0,C  11)          123.7894         0.413841   
     20. A(H   3,C   1,C   5)          119.2417         0.356229   
     21. A(C   0,C   1,H   3)          118.3189         0.351016   
     22. A(C   0,C   1,C   5)          122.4394         0.434839   
     23. A(H   4,C   2,C   6)          118.7416         0.357313   
     24. A(C   0,C   2,H   4)          119.3053         0.350712   
     25. A(C   0,C   2,C   6)          121.9531         0.435065   
     26. A(H   7,C   5,C   9)          117.7270         0.345556   
     27. A(C   1,C   5,C   9)          122.1130         0.427226   
     28. A(C   1,C   5,H   7)          120.1600         0.356550   
     29. A(H   8,C   6,C   9)          117.4861         0.344469   
     30. A(C   2,C   6,C   9)          122.5689         0.426849   
     31. A(C   2,C   6,H   8)          119.9450         0.357283   
     32. A(C   5,C   9,O  10)          123.0126         0.446308   
     33. A(C   5,C   9,C   6)          114.4613         0.412018   
     34. A(C   6,C   9,O  10)          122.5261         0.444865   
     35. A(H  12,C  11,C  13)          117.3657         0.364576   
     36. A(C   0,C  11,C  13)          128.5766         0.432001   
     37. A(C   0,C  11,H  12)          114.0577         0.340158   
     38. A(H  14,C  13,H  15)          116.8117         0.292677   
     39. A(C  11,C  13,H  15)          120.6948         0.366069   
     40. A(C  11,C  13,H  14)          122.4935         0.365658   
     41. D(H   3,C   1,C   0,C  11)      0.0000         0.024517   
     42. D(C   5,C   1,C   0,C   2)      0.0000         0.024517   
     43. D(H   3,C   1,C   0,C   2)    180.0000         0.024517   
     44. D(C   5,C   1,C   0,C  11)    180.0000         0.024517   
     45. D(H   4,C   2,C   0,C   1)    179.9999         0.024003   
     46. D(C   6,C   2,C   0,C  11)    180.0000         0.024003   
     47. D(H   4,C   2,C   0,C  11)     -0.0001         0.024003   
     48. D(C   6,C   2,C   0,C   1)      0.0000         0.024003   
     49. D(C   9,C   5,C   1,H   3)    180.0000         0.029494   
     50. D(C   9,C   5,C   1,C   0)      0.0000         0.029494   
     51. D(H   7,C   5,C   1,H   3)      0.0000         0.029494   
     52. D(H   7,C   5,C   1,C   0)    180.0000         0.029494   
     53. D(C   9,C   6,C   2,C   0)      0.0000         0.030324   
     54. D(H   8,C   6,C   2,H   4)      0.0001         0.030324   
     55. D(H   8,C   6,C   2,C   0)    180.0000         0.030324   
     56. D(C   9,C   6,C   2,H   4)   -179.9999         0.030324   
     57. D(O  10,C   9,C   6,H   8)      0.0000         0.019254   
     58. D(C   5,C   9,C   6,H   8)    180.0000         0.019254   
     59. D(C   5,C   9,C   6,C   2)      0.0000         0.019254   
     60. D(O  10,C   9,C   5,H   7)      0.0000         0.019975   
     61. D(O  10,C   9,C   5,C   1)    180.0000         0.019975   
     62. D(O  10,C   9,C   6,C   2)    180.0000         0.019254   
     63. D(C   6,C   9,C   5,H   7)    180.0000         0.019975   
     64. D(C   6,C   9,C   5,C   1)      0.0000         0.019975   
     65. D(C  13,C  11,C   0,C   2)      0.0000         0.016922   
     66. D(C  13,C  11,C   0,C   1)    180.0000         0.016922   
     67. D(H  12,C  11,C   0,C   2)    180.0000         0.016922   
     68. D(H  12,C  11,C   0,C   1)      0.0000         0.016922   
     69. D(H  15,C  13,C  11,C   0)    180.0000         0.040233   
     70. D(H  14,C  13,C  11,H  12)    179.9999         0.040233   
     71. D(H  14,C  13,C  11,C   0)     -0.0001         0.040233   
     72. D(H  15,C  13,C  11,H  12)      0.0000         0.040233   
    -----------------------------------------------------------------

Number of atoms                         .... 16
Number of degrees of freedom            .... 72

         *************************************************************
         *                GEOMETRY OPTIMIZATION CYCLE   1            *
         *************************************************************
---------------------------------
CARTESIAN COORDINATES (ANGSTROEM)
---------------------------------
  C     -0.000000   -0.585155   -1.604525
  C     -0.000000    0.641121   -0.923696
  C     -0.000000   -1.743378   -0.808601
  H     -0.000000    1.557411   -1.510635
  H     -0.000001   -2.718548   -1.288403
  C      0.000000    0.722906    0.452782
  C      0.000000   -1.682340    0.565423
  H      0.000000    1.693234    0.942073
  H     -0.000000   -2.599181    1.149257
  C      0.000000   -0.440572    1.283091
  O      0.000000   -0.385030    2.554840
  C     -0.000000   -0.603072   -3.055913
  H     -0.000000    0.386827   -3.512576
  C      0.000000   -1.660818   -3.878438
  H      0.000001   -2.683132   -3.513662
  H      0.000000   -1.525477   -4.953611

----------------------------
CARTESIAN COORDINATES (A.U.)
----------------------------
  NO LB      ZA    FRAG     MASS         X           Y           Z
   0 C     6.0000    0    12.011   -0.000000   -1.105783   -3.032113
   1 C     6.0000    0    12.011   -0.000000    1.211543   -1.745532
   2 C     6.0000    0    12.011   -0.000000   -3.294507   -1.528034
   3 H     1.0000    0     1.008   -0.000000    2.943080   -2.854686
   4 H     1.0000    0     1.008   -0.000002   -5.137311   -2.434729
   5 C     6.0000    0    12.011    0.000000    1.366094    0.855634
   6 C     6.0000    0    12.011    0.000000   -3.179162    1.068495
   7 H     1.0000    0     1.008    0.000000    3.199749    1.780260
   8 H     1.0000    0     1.008   -0.000000   -4.911740    2.171781
   9 C     6.0000    0    12.011    0.000000   -0.832560    2.424691
  10 O     8.0000    0    15.999    0.000000   -0.727601    4.827948
  11 C     6.0000    0    12.011   -0.000000   -1.139641   -5.774839
  12 H     1.0000    0     1.008   -0.000000    0.730997   -6.637807
  13 C     6.0000    0    12.011    0.000000   -3.138491   -7.329186
  14 H     1.0000    0     1.008    0.000002   -5.070385   -6.639859
  15 H     1.0000    0     1.008    0.000000   -2.882734   -9.360968

--------------------------------
INTERNAL COORDINATES (ANGSTROEM)
--------------------------------
 C      0   0   0     0.000000000000     0.00000000     0.00000000
 C      1   0   0     1.402597930776     0.00000000     0.00000000
 C      1   2   0     1.405338226729   116.46432583     0.00000000
 H      2   1   3     1.088156585157   118.31893341   180.00000085
 H      3   1   2     1.086814836163   119.30532604   179.99993954
 C      2   1   3     1.378905533642   122.43935086     0.00000000
 C      3   1   2     1.375379071391   121.95305244     0.00000000
 H      6   2   1     1.086711603999   120.15996779   180.00000000
 H      7   3   1     1.086949657913   119.94495707   180.00000000
 C      6   2   1     1.429368424153   122.11302519     0.00000000
 O     10   6   2     1.272961284865   123.01259104   180.00000000
 C      1   2   3     1.451498586094   119.74632005   180.00000121
 H     12   1   2     1.090156468481   114.05768891     0.00000000
 C     12   1   2     1.339915660085   128.57663463   180.00000085
 H     14  12   1     1.085443432323   122.49351639     0.00000000
 H     14  12   1     1.083657771720   120.69480704   180.00000085

---------------------------
INTERNAL COORDINATES (A.U.)
---------------------------
 C      0   0   0     0.000000000000     0.00000000     0.00000000
 C      1   0   0     2.650525965171     0.00000000     0.00000000
 C      1   2   0     2.655704374048   116.46432583     0.00000000
 H      2   1   3     2.056317936770   118.31893341   180.00000085
 H      3   1   2     2.053782398631   119.30532604   179.99993954
 C      2   1   3     2.605753823132   122.43935086     0.00000000
 C      3   1   2     2.599089775256   121.95305244     0.00000000
 H      6   2   1     2.053587318111   120.15996779   180.00000000
 H      7   3   1     2.054037174815   119.94495707   180.00000000
 C      6   2   1     2.701114866123   122.11302519     0.00000000
 O     10   6   2     2.405548207479   123.01259104   180.00000000
 C      1   2   3     2.742934811492   119.74632005   180.00000121
 H     12   1   2     2.060097168551   114.05768891     0.00000000
 C     12   1   2     2.532073640113   128.57663463   180.00000085
 H     14  12   1     2.051190820954   122.49351639     0.00000000
 H     14  12   1     2.047816411447   120.69480704   180.00000085

---------------------
BASIS SET INFORMATION
---------------------
There are 3 groups of distinct atoms

 Group   1 Type C   : 11s6p2d1f contracted to 5s3p2d1f pattern {62111/411/11/1}
 Group   2 Type H   : 5s1p contracted to 3s1p pattern {311/1}
 Group   3 Type O   : 11s6p2d1f contracted to 5s3p2d1f pattern {62111/411/11/1}

Atom   0C    basis set group =>   1
Atom   1C    basis set group =>   1
Atom   2C    basis set group =>   1
Atom   3H    basis set group =>   2
Atom   4H    basis set group =>   2
Atom   5C    basis set group =>   1
Atom   6C    basis set group =>   1
Atom   7H    basis set group =>   2
Atom   8H    basis set group =>   2
Atom   9C    basis set group =>   1
Atom  10O    basis set group =>   3
Atom  11C    basis set group =>   1
Atom  12H    basis set group =>   2
Atom  13C    basis set group =>   1
Atom  14H    basis set group =>   2
Atom  15H    basis set group =>   2
---------------------------------
AUXILIARY/J BASIS SET INFORMATION
---------------------------------
There are 3 groups of distinct atoms

 Group   1 Type C   : 12s5p4d2f1g contracted to 6s4p3d1f1g pattern {711111/2111/211/2/1}
 Group   2 Type H   : 5s2p1d contracted to 3s1p1d pattern {311/2/1}
 Group   3 Type O   : 12s5p4d2f1g contracted to 6s4p3d1f1g pattern {711111/2111/211/2/1}

Atom   0C    basis set group =>   1
Atom   1C    basis set group =>   1
Atom   2C    basis set group =>   1
Atom   3H    basis set group =>   2
Atom   4H    basis set group =>   2
Atom   5C    basis set group =>   1
Atom   6C    basis set group =>   1
Atom   7H    basis set group =>   2
Atom   8H    basis set group =>   2
Atom   9C    basis set group =>   1
Atom  10O    basis set group =>   3
Atom  11C    basis set group =>   1
Atom  12H    basis set group =>   2
Atom  13C    basis set group =>   1
Atom  14H    basis set group =>   2
Atom  15H    basis set group =>   2


           ************************************************************
           *        Program running with 24 parallel MPI-processes    *
           *              working on a common directory               *
           ************************************************************
------------------------------------------------------------------------------
                           ORCA GTO INTEGRAL CALCULATION
                           -- RI-GTO INTEGRALS CHOSEN --
------------------------------------------------------------------------------
------------------------------------------------------------------------------
                   ___                                                        
                  /   \      - P O W E R E D   B Y -                         
                 /     \                                                     
                 |  |  |   _    _      __       _____    __    __             
                 |  |  |  | |  | |    /  \     |  _  \  |  |  /  |          
                  \  \/   | |  | |   /    \    | | | |  |  | /  /          
                 / \  \   | |__| |  /  /\  \   | |_| |  |  |/  /          
                |  |  |   |  __  | /  /__\  \  |    /   |      \           
                |  |  |   | |  | | |   __   |  |    \   |  |\   \          
                \     /   | |  | | |  |  |  |  | |\  \  |  | \   \       
                 \___/    |_|  |_| |__|  |__|  |_| \__\ |__|  \__/        
                                                                              
                      - O R C A' S   B I G   F R I E N D -                    
                                      &                                       
                       - I N T E G R A L  F E E D E R -                       
                                                                              
 v1 FN, 2020, v2 2021                                                         
------------------------------------------------------------------------------


Reading SHARK input file CHCH2-PhenO/CHCH2-PhenO.SHARKINP.tmp ... ok
----------------------
SHARK INTEGRAL PACKAGE
----------------------

Number of atoms                             ...     16
Number of basis functions                   ...    321
Number of shells                            ...    127
Maximum angular momentum                    ...      3
Integral batch strategy                     ... SHARK/LIBINT Hybrid
RI-J (if used) integral strategy            ... SPLIT-RIJ (Revised 2003 algorithm where possible)
Printlevel                                  ...      1
Contraction scheme used                     ... SEGMENTED contraction
Coulomb Range Separation                    ... NOT USED
Exchange Range Separation                   ... NOT USED
Finite Nucleus Model                        ... NOT USED
Auxiliary Coulomb fitting basis             ... AVAILABLE
   # of basis functions in Aux-J            ...    518
   # of shells in Aux-J                     ...    170
   Maximum angular momentum in Aux-J        ...      4
Auxiliary J/K fitting basis                 ... NOT available
Auxiliary Correlation fitting basis         ... NOT available
Auxiliary 'external' fitting basis          ... NOT available
Integral threshold                          ...     2.500000e-11
Primitive cut-off                           ...     2.500000e-12
Primitive pair pre-selection threshold      ...     2.500000e-12

Calculating pre-screening integrals         ... done (  0.1 sec) Dimension = 127
Organizing shell pair data                  ... done (  0.1 sec)
Shell pair information
Total number of shell pairs                 ...      8128
Shell pairs after pre-screening             ...      7268
Total number of primitive shell pairs       ...     24972
Primitive shell pairs kept                  ...     16630
          la=0 lb=0:   1887 shell pairs
          la=1 lb=0:   2026 shell pairs
          la=1 lb=1:    559 shell pairs
          la=2 lb=0:   1068 shell pairs
          la=2 lb=1:    573 shell pairs
          la=2 lb=2:    159 shell pairs
          la=3 lb=0:    522 shell pairs
          la=3 lb=1:    283 shell pairs
          la=3 lb=2:    149 shell pairs
          la=3 lb=3:     42 shell pairs

Calculating one electron integrals          ... done (  0.0 sec)
Calculating RI/J V-Matrix + Cholesky decomp.... done (  0.1 sec)
Calculating Nuclear repulsion               ... done (  0.0 sec) ENN=    385.572608061046 Eh

SHARK setup successfully completed in   0.6 seconds

Maximum memory used throughout the entire GTOINT-calculation: 20.7 MB


           ************************************************************
           *        Program running with 24 parallel MPI-processes    *
           *              working on a common directory               *
           ************************************************************
-------------------------------------------------------------------------------
                                 ORCA SCF
-------------------------------------------------------------------------------

------------
SCF SETTINGS
------------
Hamiltonian:
 Density Functional     Method          .... DFT(GTOs)
 Exchange Functional    Exchange        .... PBE
   PBE kappa parameter   XKappa         ....  0.804000
   PBE mue parameter    XMuePBE         ....  0.219520
 Correlation Functional Correlation     .... PBE
   PBE beta parameter  CBetaPBE         ....  0.066725
 LDA part of GGA corr.  LDAOpt          .... PW91-LDA
 Gradients option       PostSCFGGA      .... off
 Hybrid DFT is turned on
   Fraction HF Exchange ScalHFX         ....  0.250000
   Scaling of DF-GGA-X  ScalDFX         ....  0.750000
   Scaling of DF-GGA-C  ScalDFC         ....  1.000000
   Scaling of DF-LDA-C  ScalLDAC        ....  1.000000
   Perturbative correction              ....  0.000000
   Density functional embedding theory  .... OFF
   NL short-range parameter             ....  6.900000
 RI-approximation to the Coulomb term is turned on
   Number of AuxJ basis functions       .... 518
   RIJ-COSX (HFX calculated with COS-X)).... on


General Settings:
 Integral files         IntName         .... CHCH2-PhenO/CHCH2-PhenO
 Hartree-Fock type      HFTyp           .... RHF
 Total Charge           Charge          ....   -1
 Multiplicity           Mult            ....    1
 Number of Electrons    NEL             ....   64
 Basis Dimension        Dim             ....  321
 Nuclear Repulsion      ENuc            ....    385.5726080610 Eh

Convergence Acceleration:
 DIIS                   CNVDIIS         .... on
   Start iteration      DIISMaxIt       ....    12
   Startup error        DIISStart       ....  0.200000
   # of expansion vecs  DIISMaxEq       ....     5
   Bias factor          DIISBfac        ....   1.050
   Max. coefficient     DIISMaxC        ....  10.000
 Trust-Rad. Augm. Hess. CNVTRAH         .... auto
   Auto Start mean grad. ratio tolernc. ....  1.125000
   Auto Start start iteration           ....    20
   Auto Start num. interpolation iter.  ....    10
   Max. Number of Micro iterations      ....    16
   Max. Number of Macro iterations      .... Maxiter - #DIIS iter
   Number of Davidson start vectors     ....     2
   Converg. threshold I  (grad. norm)   ....   1.000e-05
   Converg. threshold II (energy diff.) ....   1.000e-08
   Grad. Scal. Fac. for Micro threshold ....   0.100
   Minimum threshold for Micro iter.    ....   0.010
   NR start threshold (gradient norm)   ....   0.001
   Initial trust radius                 ....   0.400
   Minimum AH scaling param. (alpha)    ....   1.000
   Maximum AH scaling param. (alpha)    .... 1000.000
   Orbital update algorithm             .... Taylor
   White noise on init. David. guess    .... on
   Maximum white noise                  ....   0.010
   Quad. conv. algorithm                .... NR
 SOSCF                  CNVSOSCF        .... on
   Start iteration      SOSCFMaxIt      ....   150
   Startup grad/error   SOSCFStart      ....  0.003300
 Level Shifting         CNVShift        .... on
   Level shift para.    LevelShift      ....    0.2500
   Turn off err/grad.   ShiftErr        ....    0.0010
 Zerner damping         CNVZerner       .... off
 Static damping         CNVDamp         .... on
   Fraction old density DampFac         ....    0.7000
   Max. Damping (<1)    DampMax         ....    0.9800
   Min. Damping (>=0)   DampMin         ....    0.0000
   Turn off err/grad.   DampErr         ....    0.1000
 Fernandez-Rico         CNVRico         .... off

SCF Procedure:
 Maximum # iterations   MaxIter         ....   800
 SCF integral mode      SCFMode         .... Direct
   Integral package                     .... SHARK and LIBINT hybrid scheme
 Reset frequency        DirectResetFreq ....    20
 Integral Threshold     Thresh          ....  2.500e-11 Eh
 Primitive CutOff       TCut            ....  2.500e-12 Eh

Convergence Tolerance:
 Convergence Check Mode ConvCheckMode   .... Total+1el-Energy
 Convergence forced     ConvForced      .... 0
 Energy Change          TolE            ....  1.000e-08 Eh
 1-El. energy change                    ....  1.000e-05 Eh
 Orbital Gradient       TolG            ....  1.000e-05
 Orbital Rotation angle TolX            ....  1.000e-05
 DIIS Error             TolErr          ....  5.000e-07


Diagonalization of the overlap matrix:
Smallest eigenvalue                        ... 1.051e-05
Time for diagonalization                   ...    0.037 sec
Threshold for overlap eigenvalues          ... 1.000e-08
Number of eigenvalues below threshold      ... 0
Time for construction of square roots      ...    0.022 sec
Total time needed                          ...    0.062 sec

Time for model grid setup =    0.133 sec

------------------------------
INITIAL GUESS: MODEL POTENTIAL
------------------------------
Loading Hartree-Fock densities                     ... done
Calculating cut-offs                               ... done
Initializing the effective Hamiltonian             ... done
Setting up the integral package (SHARK)            ... done
Starting the Coulomb interaction                   ... done (   0.1 sec)
Reading the grid                                   ... done
Mapping shells                                     ... done
Starting the XC term evaluation                    ... done (   0.0 sec)
  promolecular density results
     # of electrons  =     62.998197743
     EX              =    -51.070422080
     EC              =     -2.076630259
     EX+EC           =    -53.147052339
Transforming the Hamiltonian                       ... done (   0.0 sec)
Diagonalizing the Hamiltonian                      ... done (   0.0 sec)
Back transforming the eigenvectors                 ... done (   0.0 sec)
Now organizing SCF variables                       ... done
                      ------------------
                      INITIAL GUESS DONE (   0.4 sec)
                      ------------------
-------------------
DFT GRID GENERATION
-------------------

General Integration Accuracy     IntAcc      ... 4.388
Radial Grid Type                 RadialGrid  ... OptM3 with GC (2021)
Angular Grid (max. ang.)         AngularGrid ... 4 (Lebedev-302)
Angular grid pruning method      GridPruning ... 4 (adaptive)
Weight generation scheme         WeightScheme... Becke
Basis function cutoff            BFCut       ... 1.0000e-11
Integration weight cutoff        WCut        ... 1.0000e-14
Angular grids for H and He will be reduced by one unit
Partially contracted basis set               ... off
Rotationally invariant grid construction     ... off

Total number of grid points                  ...    76708
Total number of batches                      ...     1207
Average number of points per batch           ...       63
Average number of grid points per atom       ...     4794
Time for grid setup =    0.408 sec

--------------------
COSX GRID GENERATION
--------------------

GRIDX 1
-------
General Integration Accuracy     IntAcc      ... 3.816
Radial Grid Type                 RadialGrid  ... OptM3 with GC (2021)
Angular Grid (max. ang.)         AngularGrid ... 1 (Lebedev-50)
Angular grid pruning method      GridPruning ... 4 (adaptive)
Weight generation scheme         WeightScheme... Becke
Basis function cutoff            BFCut       ... 1.0000e-11
Integration weight cutoff        WCut        ... 1.0000e-14
Angular grids for H and He will be reduced by one unit
Partially contracted basis set               ... on
Rotationally invariant grid construction     ... off

Total number of grid points                  ...     9815
Total number of batches                      ...      159
Average number of points per batch           ...       61
Average number of grid points per atom       ...      613
UseSFitting                                  ... on

GRIDX 2
-------
General Integration Accuracy     IntAcc      ... 4.020
Radial Grid Type                 RadialGrid  ... OptM3 with GC (2021)
Angular Grid (max. ang.)         AngularGrid ... 2 (Lebedev-110)
Angular grid pruning method      GridPruning ... 4 (adaptive)
Weight generation scheme         WeightScheme... Becke
Basis function cutoff            BFCut       ... 1.0000e-11
Integration weight cutoff        WCut        ... 1.0000e-14
Angular grids for H and He will be reduced by one unit
Partially contracted basis set               ... on
Rotationally invariant grid construction     ... off

Total number of grid points                  ...    21531
Total number of batches                      ...      346
Average number of points per batch           ...       62
Average number of grid points per atom       ...     1346
UseSFitting                                  ... on

GRIDX 3
-------
General Integration Accuracy     IntAcc      ... 4.338
Radial Grid Type                 RadialGrid  ... OptM3 with GC (2021)
Angular Grid (max. ang.)         AngularGrid ... 3 (Lebedev-194)
Angular grid pruning method      GridPruning ... 4 (adaptive)
Weight generation scheme         WeightScheme... Becke
Basis function cutoff            BFCut       ... 1.0000e-11
Integration weight cutoff        WCut        ... 1.0000e-14
Angular grids for H and He will be reduced by one unit
Partially contracted basis set               ... on
Rotationally invariant grid construction     ... off

Total number of grid points                  ...    47380
Total number of batches                      ...      747
Average number of points per batch           ...       63
Average number of grid points per atom       ...     2961
UseSFitting                                  ... on

Time for X-Grid setup             =    0.614 sec


--------------------
CPCM SOLVATION MODEL
--------------------
CPCM parameters:
  Epsilon                                         ...      47.2000
  Refrac                                          ...       1.4790
  Rsolv                                           ...       1.3000
  Surface type                                    ... GAUSSIAN VDW
  Epsilon function type                           ...         CPCM
Radii:
 Radius for C  used is    3.8550 Bohr (=   2.0400 Ang.)
 Radius for H  used is    2.4944 Bohr (=   1.3200 Ang.)
 Radius for O  used is    3.4469 Bohr (=   1.8240 Ang.)
Calculating surface                               ...        done! (  0.0s)
GEPOL surface points                              ...          916
GEPOL Volume                                      ...    1067.7740
GEPOL Surface-area                                ...     600.3625
Calculating surface distance matrix               ...        done! (  0.0s)
Performing Cholesky decomposition & store         ...        done! (  0.0s)
Overall time for CPCM initialization              ...                 0.1s
--------------
SCF ITERATIONS
--------------
ITER       Energy         Delta-E        Max-DP      RMS-DP      [F,P]     Damp
               ***  Starting incremental Fock matrix formation  ***
  0   -383.7775676589   0.000000000000 0.44321485  0.00483610  0.3279763 0.7000
  1   -383.9165826433  -0.139014984458 0.42298986  0.00453075  0.1415228 0.7000
                               ***Turning on DIIS***
  2   -383.9768791216  -0.060296478274 0.43988113  0.00531514  0.0441238 0.0000
  3   -384.0665983174  -0.089719195764 0.43158342  0.00443522  0.0814486 0.0000
  4   -384.0872603537  -0.020662036306 0.07708938  0.00081954  0.0157955 0.0000
  5   -384.0883526106  -0.001092256959 0.04600154  0.00049950  0.0114784 0.0000
                      *** Initiating the SOSCF procedure ***
                           *** Shutting down DIIS ***
                      *** Re-Reading the Fockian *** 
                      *** Removing any level shift *** 
ITER      Energy       Delta-E        Grad      Rot      Max-DP    RMS-DP
  6   -384.08850570  -0.0001530922  0.000384  0.000384  0.022301  0.000254
               *** Restarting incremental Fock matrix formation ***
  7   -384.08850325   0.0000024552  0.000137  0.000795  0.006418  0.000067
  8   -384.08850200   0.0000012447  0.000232  0.000500  0.003956  0.000042
  9   -384.08850422  -0.0000022144  0.000040  0.000124  0.000261  0.000004
 10   -384.08850418   0.0000000331  0.000038  0.000052  0.000063  0.000001
 11   -384.08850427  -0.0000000811  0.000003  0.000011  0.000213  0.000004
 12   -384.08850426   0.0000000021  0.000005  0.000006  0.000167  0.000002
                  ***Gradient check signals convergence***
              ***Rediagonalizing the Fockian in SOSCF/NRSCF***

               *****************************************************
               *                     SUCCESS                       *
               *           SCF CONVERGED AFTER  13 CYCLES          *
               *****************************************************

Old exchange energy                            =    -13.105682673 Eh
New exchange energy                            =    -13.105661997 Eh
Exchange energy change after final integration =      0.000020677 Eh
Total energy after final integration           =   -384.088483590 Eh
Final COS-X integration done in                =     1.621 sec

----------------
TOTAL SCF ENERGY
----------------

Total Energy       :         -384.08848359 Eh          -10451.57899 eV

Components:
Nuclear Repulsion  :          385.57260806 Eh           10491.96407 eV
Electronic Energy  :         -769.66109165 Eh          -20943.54305 eV
One Electron Energy:        -1295.39081287 Eh          -35249.37606 eV
Two Electron Energy:          525.72972122 Eh           14305.83301 eV
Max COSX asymmetry :            0.00000300 Eh               0.00008 eV
CPCM Dielectric    :           -0.09573975 Eh              -2.60521 eV

Virial components:
Potential Energy   :         -766.38053326 Eh          -20854.27452 eV
Kinetic Energy     :          382.29204967 Eh           10402.69553 eV
Virial Ratio       :            2.00469911


DFT components:
N(Alpha)           :       32.000024174683 electrons
N(Beta)            :       32.000024174683 electrons
N(Total)           :       64.000048349366 electrons
E(X)               :      -39.224351243445 Eh       
E(C)               :       -2.121257936512 Eh       
E(XC)              :      -41.345609179957 Eh       
DFET-embed. en.    :        0.000000000000 Eh       
CPCM Solvation Model Properties:
Surface-charge          :            0.96688996
Charge-correction       :           -0.00450177 Eh              -0.12250 eV
Free-energy (cav+disp)  :  This term is not implemented in the current solvation scheme

---------------
SCF CONVERGENCE
---------------

  Last Energy change         ...   -3.6135e-09  Tolerance :   1.0000e-08
  Last MAX-Density change    ...    8.8818e-16  Tolerance :   1.0000e-07
  Last RMS-Density change    ...    1.6274e-17  Tolerance :   5.0000e-09
  Last Orbital Gradient      ...    5.6717e-07  Tolerance :   1.0000e-05
  Last Orbital Rotation      ...    1.7549e-06  Tolerance :   1.0000e-05

             **** THE GBW FILE WAS UPDATED (CHCH2-PhenO/CHCH2-PhenO.gbw) ****
             **** DENSITY CHCH2-PhenO/CHCH2-PhenO.scfp WAS UPDATED ****
             **** ENERGY FILE WAS UPDATED (CHCH2-PhenO/CHCH2-PhenO.en.tmp) ****
             **** THE GBW FILE WAS UPDATED (CHCH2-PhenO/CHCH2-PhenO.gbw) ****
             **** DENSITY CHCH2-PhenO/CHCH2-PhenO.scfp WAS UPDATED ****
----------------
ORBITAL ENERGIES
----------------

  NO   OCC          E(Eh)            E(eV) 
   0   2.0000     -19.117495      -520.2135 
   1   2.0000     -10.247123      -278.8384 
   2   2.0000     -10.216441      -278.0035 
   3   2.0000     -10.207300      -277.7547 
   4   2.0000     -10.207236      -277.7530 
   5   2.0000     -10.200832      -277.5788 
   6   2.0000     -10.195529      -277.4345 
   7   2.0000     -10.190773      -277.3050 
   8   2.0000     -10.187583      -277.2182 
   9   2.0000      -0.983968       -26.7751 
  10   2.0000      -0.854702       -23.2576 
  11   2.0000      -0.783463       -21.3191 
  12   2.0000      -0.747043       -20.3281 
  13   2.0000      -0.705049       -19.1854 
  14   2.0000      -0.611412       -16.6374 
  15   2.0000      -0.593718       -16.1559 
  16   2.0000      -0.554596       -15.0913 
  17   2.0000      -0.493283       -13.4229 
  18   2.0000      -0.466165       -12.6850 
  19   2.0000      -0.442367       -12.0374 
  20   2.0000      -0.425443       -11.5769 
  21   2.0000      -0.407210       -11.0807 
  22   2.0000      -0.401967       -10.9381 
  23   2.0000      -0.388943       -10.5837 
  24   2.0000      -0.367845       -10.0096 
  25   2.0000      -0.343826        -9.3560 
  26   2.0000      -0.336679        -9.1615 
  27   2.0000      -0.328773        -8.9464 
  28   2.0000      -0.268289        -7.3005 
  29   2.0000      -0.251498        -6.8436 
  30   2.0000      -0.222872        -6.0646 
  31   2.0000      -0.174134        -4.7384 
  32   0.0000      -0.008129        -0.2212 
  33   0.0000       0.015331         0.4172 
  34   0.0000       0.082689         2.2501 
  35   0.0000       0.083931         2.2839 
  36   0.0000       0.089346         2.4312 
  37   0.0000       0.100082         2.7234 
  38   0.0000       0.120724         3.2851 
  39   0.0000       0.125819         3.4237 
  40   0.0000       0.142460         3.8765 
  41   0.0000       0.166461         4.5296 
  42   0.0000       0.171011         4.6534 
  43   0.0000       0.180377         4.9083 
  44   0.0000       0.187896         5.1129 
  45   0.0000       0.206044         5.6067 
  46   0.0000       0.214153         5.8274 
  47   0.0000       0.214350         5.8328 
  48   0.0000       0.226662         6.1678 
  49   0.0000       0.235973         6.4212 
  50   0.0000       0.252925         6.8824 
  51   0.0000       0.261812         7.1243 
  52   0.0000       0.278971         7.5912 
  53   0.0000       0.285492         7.7686 
  54   0.0000       0.301289         8.1985 
  55   0.0000       0.310476         8.4485 
  56   0.0000       0.316164         8.6033 
  57   0.0000       0.327474         8.9110 
  58   0.0000       0.338459         9.2099 
  59   0.0000       0.359959         9.7950 
  60   0.0000       0.361536         9.8379 
  61   0.0000       0.365520         9.9463 
  62   0.0000       0.372546        10.1375 
  63   0.0000       0.384852        10.4724 
  64   0.0000       0.387557        10.5460 
  65   0.0000       0.406738        11.0679 
  66   0.0000       0.418480        11.3874 
  67   0.0000       0.431630        11.7452 
  68   0.0000       0.440855        11.9963 
  69   0.0000       0.449021        12.2185 
  70   0.0000       0.452696        12.3185 
  71   0.0000       0.475648        12.9430 
  72   0.0000       0.479904        13.0588 
  73   0.0000       0.493727        13.4350 
  74   0.0000       0.500251        13.6125 
  75   0.0000       0.509165        13.8551 
  76   0.0000       0.511931        13.9303 
  77   0.0000       0.520308        14.1583 
  78   0.0000       0.532907        14.5011 
  79   0.0000       0.544563        14.8183 
  80   0.0000       0.590345        16.0641 
  81   0.0000       0.599913        16.3245 
  82   0.0000       0.602846        16.4043 
  83   0.0000       0.618203        16.8221 
  84   0.0000       0.621331        16.9073 
  85   0.0000       0.624754        17.0004 
  86   0.0000       0.653322        17.7778 
  87   0.0000       0.680262        18.5109 
  88   0.0000       0.681401        18.5419 
  89   0.0000       0.692353        18.8399 
  90   0.0000       0.700251        19.0548 
  91   0.0000       0.742811        20.2129 
  92   0.0000       0.750714        20.4280 
  93   0.0000       0.757045        20.6002 
  94   0.0000       0.764440        20.8015 
  95   0.0000       0.773720        21.0540 
  96   0.0000       0.814124        22.1535 
  97   0.0000       0.817891        22.2559 
  98   0.0000       0.824399        22.4330 
  99   0.0000       0.856885        23.3170 
 100   0.0000       0.878370        23.9017 
 101   0.0000       0.884632        24.0721 
 102   0.0000       0.885979        24.1087 
 103   0.0000       0.899258        24.4701 
 104   0.0000       0.899702        24.4821 
 105   0.0000       0.920332        25.0435 
 106   0.0000       0.968500        26.3542 
 107   0.0000       0.984659        26.7939 
 108   0.0000       0.998298        27.1651 
 109   0.0000       1.020392        27.7663 
 110   0.0000       1.047129        28.4938 
 111   0.0000       1.053023        28.6542 
 112   0.0000       1.067705        29.0537 
 113   0.0000       1.089441        29.6452 
 114   0.0000       1.131232        30.7824 
 115   0.0000       1.146999        31.2114 
 116   0.0000       1.159400        31.5489 
 117   0.0000       1.208860        32.8947 
 118   0.0000       1.232140        33.5282 
 119   0.0000       1.234290        33.5867 
 120   0.0000       1.235732        33.6260 
 121   0.0000       1.252361        34.0785 
 122   0.0000       1.282931        34.9103 
 123   0.0000       1.294881        35.2355 
 124   0.0000       1.322313        35.9820 
 125   0.0000       1.330279        36.1987 
 126   0.0000       1.342182        36.5226 
 127   0.0000       1.357783        36.9472 
 128   0.0000       1.367972        37.2244 
 129   0.0000       1.428919        38.8829 
 130   0.0000       1.434764        39.0419 
 131   0.0000       1.472331        40.0642 
 132   0.0000       1.489264        40.5249 
 133   0.0000       1.505534        40.9677 
 134   0.0000       1.509902        41.0865 
 135   0.0000       1.529641        41.6236 
 136   0.0000       1.546843        42.0917 
 137   0.0000       1.556001        42.3410 
 138   0.0000       1.566797        42.6347 
 139   0.0000       1.596550        43.4443 
 140   0.0000       1.603906        43.6445 
 141   0.0000       1.625076        44.2206 
 142   0.0000       1.649721        44.8912 
 143   0.0000       1.671275        45.4777 
 144   0.0000       1.674429        45.5635 
 145   0.0000       1.695250        46.1301 
 146   0.0000       1.699048        46.2335 
 147   0.0000       1.704214        46.3740 
 148   0.0000       1.729170        47.0531 
 149   0.0000       1.761507        47.9330 
 150   0.0000       1.778567        48.3973 
 151   0.0000       1.787445        48.6388 
 152   0.0000       1.830240        49.8034 
 153   0.0000       1.843870        50.1743 
 154   0.0000       1.858646        50.5763 
 155   0.0000       1.861007        50.6406 
 156   0.0000       1.890636        51.4468 
 157   0.0000       1.939097        52.7655 
 158   0.0000       1.941486        52.8305 
 159   0.0000       1.962730        53.4086 
 160   0.0000       1.969221        53.5852 
 161   0.0000       2.029559        55.2271 
 162   0.0000       2.036493        55.4158 
 163   0.0000       2.083321        56.6901 
 164   0.0000       2.090146        56.8758 
 165   0.0000       2.135238        58.1028 
 166   0.0000       2.151223        58.5377 
 167   0.0000       2.165794        58.9343 
 168   0.0000       2.191275        59.6276 
 169   0.0000       2.193468        59.6873 
 170   0.0000       2.215883        60.2972 
 171   0.0000       2.261767        61.5458 
 172   0.0000       2.279432        62.0265 
 173   0.0000       2.285238        62.1845 
 174   0.0000       2.339075        63.6495 
 175   0.0000       2.368880        64.4605 
 176   0.0000       2.374337        64.6090 
 177   0.0000       2.400202        65.3128 
 178   0.0000       2.419602        65.8407 
 179   0.0000       2.455395        66.8147 
 180   0.0000       2.474480        67.3340 
 181   0.0000       2.497975        67.9734 
 182   0.0000       2.536838        69.0309 
 183   0.0000       2.554727        69.5176 
 184   0.0000       2.569188        69.9112 
 185   0.0000       2.596533        70.6553 
 186   0.0000       2.614484        71.1437 
 187   0.0000       2.628755        71.5320 
 188   0.0000       2.638968        71.8100 
 189   0.0000       2.660628        72.3994 
 190   0.0000       2.689953        73.1973 
 191   0.0000       2.692840        73.2759 
 192   0.0000       2.695938        73.3602 
 193   0.0000       2.729363        74.2697 
 194   0.0000       2.764327        75.2212 
 195   0.0000       2.768570        75.3366 
 196   0.0000       2.778939        75.6188 
 197   0.0000       2.793295        76.0094 
 198   0.0000       2.795028        76.0566 
 199   0.0000       2.809938        76.4623 
 200   0.0000       2.816543        76.6420 
 201   0.0000       2.846357        77.4533 
 202   0.0000       2.854994        77.6883 
 203   0.0000       2.858943        77.7958 
 204   0.0000       2.878601        78.3307 
 205   0.0000       2.892748        78.7157 
 206   0.0000       2.918394        79.4135 
 207   0.0000       2.936249        79.8994 
 208   0.0000       2.948518        80.2333 
 209   0.0000       2.959164        80.5230 
 210   0.0000       2.969307        80.7990 
 211   0.0000       3.001621        81.6783 
 212   0.0000       3.021745        82.2259 
 213   0.0000       3.050917        83.0197 
 214   0.0000       3.061500        83.3076 
 215   0.0000       3.068770        83.5055 
 216   0.0000       3.085954        83.9731 
 217   0.0000       3.100774        84.3763 
 218   0.0000       3.107869        84.5694 
 219   0.0000       3.121680        84.9452 
 220   0.0000       3.157500        85.9199 
 221   0.0000       3.165585        86.1399 
 222   0.0000       3.168928        86.2309 
 223   0.0000       3.182351        86.5962 
 224   0.0000       3.214457        87.4698 
 225   0.0000       3.219518        87.6075 
 226   0.0000       3.222543        87.6899 
 227   0.0000       3.242267        88.2266 
 228   0.0000       3.248581        88.3984 
 229   0.0000       3.276473        89.1574 
 230   0.0000       3.283627        89.3520 
 231   0.0000       3.298042        89.7443 
 232   0.0000       3.311331        90.1059 
 233   0.0000       3.344550        91.0098 
 234   0.0000       3.368090        91.6504 
 235   0.0000       3.373169        91.7886 
 236   0.0000       3.385626        92.1276 
 237   0.0000       3.386701        92.1568 
 238   0.0000       3.435843        93.4941 
 239   0.0000       3.438806        93.5747 
 240   0.0000       3.440042        93.6083 
 241   0.0000       3.455821        94.0377 
 242   0.0000       3.466023        94.3153 
 243   0.0000       3.488947        94.9391 
 244   0.0000       3.516424        95.6868 
 245   0.0000       3.521102        95.8141 
 246   0.0000       3.535414        96.2035 
 247   0.0000       3.539736        96.3211 
 248   0.0000       3.569308        97.1258 
 249   0.0000       3.588692        97.6533 
 250   0.0000       3.604227        98.0760 
 251   0.0000       3.608796        98.2003 
 252   0.0000       3.626185        98.6735 
 253   0.0000       3.661262        99.6280 
 254   0.0000       3.738745       101.7364 
 255   0.0000       3.786626       103.0393 
 256   0.0000       3.807103       103.5965 
 257   0.0000       3.823727       104.0489 
 258   0.0000       3.838868       104.4609 
 259   0.0000       3.876327       105.4802 
 260   0.0000       3.917522       106.6012 
 261   0.0000       3.965730       107.9130 
 262   0.0000       3.982862       108.3792 
 263   0.0000       4.042386       109.9989 
 264   0.0000       4.060542       110.4930 
 265   0.0000       4.073025       110.8326 
 266   0.0000       4.113262       111.9275 
 267   0.0000       4.127473       112.3142 
 268   0.0000       4.139949       112.6537 
 269   0.0000       4.180826       113.7661 
 270   0.0000       4.188942       113.9869 
 271   0.0000       4.216993       114.7502 
 272   0.0000       4.245210       115.5180 
 273   0.0000       4.266124       116.0871 
 274   0.0000       4.304870       117.1415 
 275   0.0000       4.324771       117.6830 
 276   0.0000       4.368446       118.8715 
 277   0.0000       4.378413       119.1427 
 278   0.0000       4.403638       119.8291 
 279   0.0000       4.438578       120.7798 
 280   0.0000       4.552463       123.8788 
 281   0.0000       4.565152       124.2241 
 282   0.0000       4.632354       126.0528 
 283   0.0000       4.671155       127.1086 
 284   0.0000       4.685048       127.4866 
 285   0.0000       4.708964       128.1374 
 286   0.0000       4.771718       129.8450 
 287   0.0000       4.796196       130.5111 
 288   0.0000       4.847769       131.9145 
 289   0.0000       4.877292       132.7179 
 290   0.0000       4.924389       133.9995 
 291   0.0000       4.948278       134.6495 
 292   0.0000       4.965419       135.1159 
 293   0.0000       5.123741       139.4241 
 294   0.0000       5.188075       141.1747 
 295   0.0000       5.271109       143.4342 
 296   0.0000       5.276166       143.5718 
 297   0.0000       5.332284       145.0988 
 298   0.0000       5.396082       146.8348 
 299   0.0000       5.500442       149.6746 
 300   0.0000       5.532525       150.5477 
 301   0.0000       5.605676       152.5382 
 302   0.0000       5.725038       155.7862 
 303   0.0000       5.802276       157.8880 
 304   0.0000       6.091448       165.7567 
 305   0.0000       6.400137       174.1566 
 306   0.0000       6.458726       175.7509 
 307   0.0000       6.657609       181.1627 
 308   0.0000       6.673593       181.5977 
 309   0.0000       6.877891       187.1569 
 310   0.0000       7.122994       193.8265 
 311   0.0000       7.129601       194.0063 
 312   0.0000      22.125714       602.0713 
 313   0.0000      22.490694       612.0029 
 314   0.0000      22.737358       618.7150 
 315   0.0000      22.791965       620.2009 
 316   0.0000      22.873697       622.4249 
 317   0.0000      22.925783       623.8423 
 318   0.0000      23.137760       629.6104 
 319   0.0000      23.540510       640.5698 
 320   0.0000      44.076215      1199.3748 

                    ********************************
                    * MULLIKEN POPULATION ANALYSIS *
                    ********************************

-----------------------
MULLIKEN ATOMIC CHARGES
-----------------------
   0 C :    0.189719
   1 C :   -0.235473
   2 C :   -0.260683
   3 H :    0.128678
   4 H :    0.126361
   5 C :   -0.297679
   6 C :   -0.270659
   7 H :    0.100201
   8 H :    0.102357
   9 C :    0.249389
  10 O :   -0.643562
  11 C :   -0.214684
  12 H :    0.129449
  13 C :   -0.390360
  14 H :    0.138906
  15 H :    0.148041
Sum of atomic charges:   -1.0000000

--------------------------------
MULLIKEN REDUCED ORBITAL CHARGES
--------------------------------
  0 C s       :     3.103033  s :     3.103033
      pz      :     0.738207  p :     2.560607
      px      :     1.031058
      py      :     0.791342
      dz2     :     0.035639  d :     0.136833
      dxz     :     0.023348
      dyz     :     0.039396
      dx2y2   :     0.016724
      dxy     :     0.021726
      f0      :     0.001288  f :     0.009809
      f+1     :     0.001003
      f-1     :     0.003398
      f+2     :     0.000892
      f-2     :     0.001124
      f+3     :     0.001320
      f-3     :     0.000784
  1 C s       :     3.220523  s :     3.220523
      pz      :     0.965711  p :     2.903541
      px      :     0.972343
      py      :     0.965488
      dz2     :     0.018876  d :     0.104098
      dxz     :     0.025806
      dyz     :     0.038996
      dx2y2   :     0.009115
      dxy     :     0.011306
      f0      :     0.000789  f :     0.007310
      f+1     :     0.001497
      f-1     :     0.002209
      f+2     :     0.000777
      f-2     :     0.000459
      f+3     :     0.000949
      f-3     :     0.000630
  2 C s       :     3.240036  s :     3.240036
      pz      :     0.973099  p :     2.913563
      px      :     0.969371
      py      :     0.971093
      dz2     :     0.020535  d :     0.099871
      dxz     :     0.025591
      dyz     :     0.035845
      dx2y2   :     0.008929
      dxy     :     0.008971
      f0      :     0.000874  f :     0.007213
      f+1     :     0.001479
      f-1     :     0.002122
      f+2     :     0.000702
      f-2     :     0.000609
      f+3     :     0.000775
      f-3     :     0.000652
  3 H s       :     0.849547  s :     0.849547
      pz      :     0.006527  p :     0.021775
      px      :     0.004711
      py      :     0.010537
  4 H s       :     0.851435  s :     0.851435
      pz      :     0.005821  p :     0.022204
      px      :     0.004659
      py      :     0.011724
  5 C s       :     3.245827  s :     3.245827
      pz      :     0.921106  p :     2.965763
      px      :     1.097197
      py      :     0.947459
      dz2     :     0.016905  d :     0.079065
      dxz     :     0.017388
      dyz     :     0.030437
      dx2y2   :     0.008267
      dxy     :     0.006068
      f0      :     0.001025  f :     0.007024
      f+1     :     0.001451
      f-1     :     0.002055
      f+2     :     0.000774
      f-2     :     0.000449
      f+3     :     0.000654
      f-3     :     0.000615
  6 C s       :     3.233762  s :     3.233762
      pz      :     0.924545  p :     2.949983
      px      :     1.077582
      py      :     0.947856
      dz2     :     0.015946  d :     0.079883
      dxz     :     0.016557
      dyz     :     0.032104
      dx2y2   :     0.008184
      dxy     :     0.007092
      f0      :     0.000898  f :     0.007031
      f+1     :     0.001451
      f-1     :     0.002166
      f+2     :     0.000814
      f-2     :     0.000356
      f+3     :     0.000739
      f-3     :     0.000607
  7 H s       :     0.877467  s :     0.877467
      pz      :     0.005401  p :     0.022332
      px      :     0.005639
      py      :     0.011292
  8 H s       :     0.875395  s :     0.875395
      pz      :     0.006245  p :     0.022248
      px      :     0.005485
      py      :     0.010519
  9 C s       :     2.945239  s :     2.945239
      pz      :     0.864358  p :     2.620723
      px      :     0.834734
      py      :     0.921631
      dz2     :     0.032153  d :     0.167824
      dxz     :     0.056539
      dyz     :     0.049276
      dx2y2   :     0.012395
      dxy     :     0.017462
      f0      :     0.002801  f :     0.016825
      f+1     :     0.003384
      f-1     :     0.007000
      f+2     :     0.000788
      f-2     :     0.001055
      f+3     :     0.001203
      f-3     :     0.000595
 10 O s       :     3.782699  s :     3.782699
      pz      :     1.372361  p :     4.832018
      px      :     1.607735
      py      :     1.851922
      dz2     :     0.012157  d :     0.027248
      dxz     :     0.008200
      dyz     :     0.006718
      dx2y2   :     0.000107
      dxy     :     0.000067
      f0      :     0.000660  f :     0.001596
      f+1     :     0.000482
      f-1     :     0.000435
      f+2     :     0.000008
      f-2     :     0.000007
      f+3     :     0.000002
      f-3     :     0.000002
 11 C s       :     3.246966  s :     3.246966
      pz      :     0.899002  p :     2.861098
      px      :     0.953653
      py      :     1.008443
      dz2     :     0.023206  d :     0.099582
      dxz     :     0.030867
      dyz     :     0.026437
      dx2y2   :     0.010585
      dxy     :     0.008488
      f0      :     0.001161  f :     0.007038
      f+1     :     0.001185
      f-1     :     0.001981
      f+2     :     0.000565
      f-2     :     0.000685
      f+3     :     0.000886
      f-3     :     0.000575
 12 H s       :     0.849006  s :     0.849006
      pz      :     0.005473  p :     0.021545
      px      :     0.004463
      py      :     0.011609
 13 C s       :     3.240303  s :     3.240303
      pz      :     1.013675  p :     3.094702
      px      :     1.098969
      py      :     0.982058
      dz2     :     0.020912  d :     0.050596
      dxz     :     0.004609
      dyz     :     0.008213
      dx2y2   :     0.010796
      dxy     :     0.006066
      f0      :     0.000950  f :     0.004758
      f+1     :     0.000246
      f-1     :     0.000947
      f+2     :     0.000544
      f-2     :     0.000516
      f+3     :     0.000870
      f-3     :     0.000684
 14 H s       :     0.838516  s :     0.838516
      pz      :     0.004814  p :     0.022578
      px      :     0.005528
      py      :     0.012236
 15 H s       :     0.829540  s :     0.829540
      pz      :     0.012856  p :     0.022419
      px      :     0.005885
      py      :     0.003677


                     *******************************
                     * LOEWDIN POPULATION ANALYSIS *
                     *******************************

----------------------
LOEWDIN ATOMIC CHARGES
----------------------
   0 C :   -0.216370
   1 C :   -0.149937
   2 C :   -0.140334
   3 H :    0.148510
   4 H :    0.148422
   5 C :   -0.192869
   6 C :   -0.181898
   7 H :    0.136187
   8 H :    0.137061
   9 C :   -0.430822
  10 O :   -0.178419
  11 C :   -0.194943
  12 H :    0.152276
  13 C :   -0.276941
  14 H :    0.119128
  15 H :    0.120950

-------------------------------
LOEWDIN REDUCED ORBITAL CHARGES
-------------------------------
  0 C s       :     2.697892  s :     2.697892
      pz      :     0.984100  p :     2.937935
      px      :     0.923442
      py      :     1.030393
      dz2     :     0.143705  d :     0.523275
      dxz     :     0.068817
      dyz     :     0.165423
      dx2y2   :     0.069707
      dxy     :     0.075622
      f0      :     0.007274  f :     0.057268
      f+1     :     0.004908
      f-1     :     0.022018
      f+2     :     0.006378
      f-2     :     0.007563
      f+3     :     0.003850
      f-3     :     0.005276
  1 C s       :     2.759780  s :     2.759780
      pz      :     1.051117  p :     2.931422
      px      :     0.884201
      py      :     0.996103
      dz2     :     0.095662  d :     0.415694
      dxz     :     0.083162
      dyz     :     0.156524
      dx2y2   :     0.043991
      dxy     :     0.036356
      f0      :     0.007289  f :     0.043042
      f+1     :     0.006668
      f-1     :     0.014500
      f+2     :     0.004480
      f-2     :     0.002796
      f+3     :     0.003596
      f-3     :     0.003713
  2 C s       :     2.758153  s :     2.758153
      pz      :     1.052936  p :     2.931223
      px      :     0.884516
      py      :     0.993770
      dz2     :     0.103636  d :     0.407883
      dxz     :     0.084683
      dyz     :     0.144813
      dx2y2   :     0.046083
      dxy     :     0.028668
      f0      :     0.007608  f :     0.043076
      f+1     :     0.006124
      f-1     :     0.014520
      f+2     :     0.004403
      f-2     :     0.004091
      f+3     :     0.002832
      f-3     :     0.003496
  3 H s       :     0.792520  s :     0.792520
      pz      :     0.017738  p :     0.058970
      px      :     0.013482
      py      :     0.027750
  4 H s       :     0.792050  s :     0.792050
      pz      :     0.016008  p :     0.059528
      px      :     0.013358
      py      :     0.030163
  5 C s       :     2.774401  s :     2.774401
      pz      :     1.053786  p :     3.014950
      px      :     0.974595
      py      :     0.986570
      dz2     :     0.099153  d :     0.363862
      dxz     :     0.059021
      dyz     :     0.142538
      dx2y2   :     0.044111
      dxy     :     0.019039
      f0      :     0.007738  f :     0.039656
      f+1     :     0.005678
      f-1     :     0.013587
      f+2     :     0.004583
      f-2     :     0.002923
      f+3     :     0.001870
      f-3     :     0.003278
  6 C s       :     2.775428  s :     2.775428
      pz      :     1.051421  p :     3.000681
      px      :     0.958968
      py      :     0.990291
      dz2     :     0.090985  d :     0.366086
      dxz     :     0.055327
      dyz     :     0.153188
      dx2y2   :     0.042962
      dxy     :     0.023624
      f0      :     0.007375  f :     0.039703
      f+1     :     0.005940
      f-1     :     0.013835
      f+2     :     0.004494
      f-2     :     0.002181
      f+3     :     0.002394
      f-3     :     0.003483
  7 H s       :     0.803137  s :     0.803137
      pz      :     0.015154  p :     0.060676
      px      :     0.015894
      py      :     0.029628
  8 H s       :     0.802506  s :     0.802506
      pz      :     0.017152  p :     0.060433
      px      :     0.015448
      py      :     0.027834
  9 C s       :     2.732524  s :     2.732524
      pz      :     0.949555  p :     2.790863
      px      :     0.791972
      py      :     1.049336
      dz2     :     0.205013  d :     0.800304
      dxz     :     0.180194
      dyz     :     0.290643
      dx2y2   :     0.060229
      dxy     :     0.064226
      f0      :     0.020624  f :     0.107131
      f+1     :     0.020503
      f-1     :     0.043252
      f+2     :     0.005795
      f-2     :     0.006862
      f+3     :     0.005183
      f-3     :     0.004913
 10 O s       :     3.428469  s :     3.428469
      pz      :     1.469446  p :     4.683414
      px      :     1.511036
      py      :     1.702933
      dz2     :     0.027429  d :     0.061551
      dxz     :     0.014362
      dyz     :     0.019545
      dx2y2   :     0.000135
      dxy     :     0.000079
      f0      :     0.002137  f :     0.004985
      f+1     :     0.001122
      f-1     :     0.001689
      f+2     :     0.000016
      f-2     :     0.000017
      f+3     :     0.000002
      f-3     :     0.000003
 11 C s       :     2.777338  s :     2.777338
      pz      :     1.030683  p :     2.951741
      px      :     0.873453
      py      :     1.047604
      dz2     :     0.117722  d :     0.424509
      dxz     :     0.094707
      dyz     :     0.132686
      dx2y2   :     0.051022
      dxy     :     0.028373
      f0      :     0.007280  f :     0.041356
      f+1     :     0.005048
      f-1     :     0.013572
      f+2     :     0.005185
      f-2     :     0.004112
      f+3     :     0.002478
      f-3     :     0.003681
 12 H s       :     0.789852  s :     0.789852
      pz      :     0.015250  p :     0.057872
      px      :     0.012580
      py      :     0.030042
 13 C s       :     2.853407  s :     2.853407
      pz      :     1.048750  p :     3.161063
      px      :     1.032624
      py      :     1.079689
      dz2     :     0.097380  d :     0.235850
      dxz     :     0.012339
      dyz     :     0.056715
      dx2y2   :     0.050755
      dxy     :     0.018661
      f0      :     0.004251  f :     0.026621
      f+1     :     0.000298
      f-1     :     0.007725
      f+2     :     0.005162
      f-2     :     0.003413
      f+3     :     0.001903
      f-3     :     0.003869
 14 H s       :     0.816474  s :     0.816474
      pz      :     0.015655  p :     0.064397
      px      :     0.016026
      py      :     0.032716
 15 H s       :     0.814476  s :     0.814476
      pz      :     0.035335  p :     0.064574
      px      :     0.016791
      py      :     0.012448


                      *****************************
                      * MAYER POPULATION ANALYSIS *
                      *****************************

  NA   - Mulliken gross atomic population
  ZA   - Total nuclear charge
  QA   - Mulliken gross atomic charge
  VA   - Mayer's total valence
  BVA  - Mayer's bonded valence
  FA   - Mayer's free valence

  ATOM       NA         ZA         QA         VA         BVA        FA
  0 C      5.8103     6.0000     0.1897     3.5789     3.5789     0.0000
  1 C      6.2355     6.0000    -0.2355     3.8514     3.8514     0.0000
  2 C      6.2607     6.0000    -0.2607     3.8617     3.8617     0.0000
  3 H      0.8713     1.0000     0.1287     0.9720     0.9720    -0.0000
  4 H      0.8736     1.0000     0.1264     0.9751     0.9751     0.0000
  5 C      6.2977     6.0000    -0.2977     3.7022     3.7022     0.0000
  6 C      6.2707     6.0000    -0.2707     3.7186     3.7186    -0.0000
  7 H      0.8998     1.0000     0.1002     0.9930     0.9930     0.0000
  8 H      0.8976     1.0000     0.1024     0.9929     0.9929    -0.0000
  9 C      5.7506     6.0000     0.2494     4.1981     4.1981    -0.0000
 10 O      8.6436     8.0000    -0.6436     1.8436     1.8436    -0.0000
 11 C      6.2147     6.0000    -0.2147     3.8904     3.8904     0.0000
 12 H      0.8706     1.0000     0.1294     0.9705     0.9705     0.0000
 13 C      6.3904     6.0000    -0.3904     3.8860     3.8860     0.0000
 14 H      0.8611     1.0000     0.1389     0.9725     0.9725    -0.0000
 15 H      0.8520     1.0000     0.1480     0.9662     0.9662     0.0000

  Mayer bond orders larger than 0.100000
B(  0-C ,  1-C ) :   1.2822 B(  0-C ,  2-C ) :   1.2569 B(  0-C , 11-C ) :   1.0401 
B(  1-C ,  3-H ) :   0.9652 B(  1-C ,  5-C ) :   1.4244 B(  2-C ,  4-H ) :   0.9632 
B(  2-C ,  6-C ) :   1.4718 B(  5-C ,  7-H ) :   0.9921 B(  5-C ,  9-C ) :   1.2094 
B(  6-C ,  8-H ) :   0.9861 B(  6-C ,  9-C ) :   1.1817 B(  9-C , 10-O ) :   1.7024 
B( 11-C , 12-H ) :   0.9649 B( 11-C , 13-C ) :   1.8392 B( 13-C , 14-H ) :   0.9528 
B( 13-C , 15-H ) :   0.9645 

-------
TIMINGS
-------

Total SCF time: 0 days 0 hours 0 min 27 sec 

Total time                  ....      27.518 sec
Sum of individual times     ....      26.120 sec  ( 94.9%)

Fock matrix formation       ....      23.723 sec  ( 86.2%)
  Split-RI-J                ....       2.334 sec  (  9.8% of F)
  Chain of spheres X        ....      10.634 sec  ( 44.8% of F)
  XC integration            ....       4.612 sec  ( 19.4% of F)
    Basis function eval.    ....       0.423 sec  (  9.2% of XC)
    Density eval.           ....       0.403 sec  (  8.7% of XC)
    XC-Functional eval.     ....       0.076 sec  (  1.6% of XC)
    XC-Potential eval.      ....       0.427 sec  (  9.3% of XC)
Diagonalization             ....       0.347 sec  (  1.3%)
Density matrix formation    ....       0.030 sec  (  0.1%)
Population analysis         ....       0.074 sec  (  0.3%)
Initial guess               ....       0.235 sec  (  0.9%)
Orbital Transformation      ....       0.000 sec  (  0.0%)
Orbital Orthonormalization  ....       0.000 sec  (  0.0%)
DIIS solution               ....       0.225 sec  (  0.8%)
SOSCF solution              ....       0.331 sec  (  1.2%)
Grid generation             ....       1.155 sec  (  4.2%)

Maximum memory used throughout the entire SCF-calculation: 78.7 MB


-------------------------------------------------------------------------------
                          DFT DISPERSION CORRECTION                            
                                                                               
                              DFTD3 V3.1  Rev 1                                
                          USING Becke-Johnson damping                          
-------------------------------------------------------------------------------
The PBE0 functional is recognized
Active option DFTDOPT                   ...         4   

molecular C6(AA) [au] = 3141.287154 


            DFT-D V3
 parameters
 s6 scaling factor         :     1.0000 
 a1 scaling factor         :     0.4145 
 s8 scaling factor         :     1.2177 
 a2 scaling factor         :     4.8593 
 ad hoc parameters k1-k3   :    16.0000     1.3333    -4.0000 

 Edisp/kcal,au: -9.078498406436  -0.014467506569 
 E6   /kcal   :  -5.637012805 
 E8   /kcal   :  -3.441485601 
 % E8         :  37.908092808 

-------------------------   ----------------
Dispersion correction           -0.014467507
-------------------------   ----------------


-------------------------   --------------------
FINAL SINGLE POINT ENERGY      -384.102951096893
-------------------------   --------------------



           ************************************************************
           *        Program running with 24 parallel MPI-processes    *
           *              working on a common directory               *
           ************************************************************
------------------------------------------------------------------------------
                         ORCA SCF GRADIENT CALCULATION
------------------------------------------------------------------------------

 ... reading COSX grid (gridx3)
Gradient of the Kohn-Sham DFT energy:
Kohn-Sham wavefunction type      ... RKS
Hartree-Fock exchange scaling    ...    0.250
Number of operators              ...    1
Number of atoms                  ...   16
Basis set dimensions             ...  321
Integral neglect threshold       ... 2.5e-11
Integral primitive cutoff        ... 2.5e-12
SHARK Integral package           ... ON

Nuc. rep. gradient       (SHARK) ... done (  0.0 sec)
HCore & Overlap gradient (SHARK) ... done (  0.0 sec)
RI-J gradient            (SHARK) ... done (  0.4 sec)
COSX-gradient                    ... done (  2.1 sec)
Exchange-correlation gradient    ... done
Dispersion correction            ... done

------------------
CARTESIAN GRADIENT
------------------

   1   C   :   -0.000000044   -0.000119494    0.000128712
   2   C   :    0.000000029   -0.000117214    0.000082596
   3   C   :    0.000000119    0.000203236    0.000088163
   4   H   :    0.000000002    0.000020900   -0.000037498
   5   H   :   -0.000000045   -0.000050257   -0.000048683
   6   C   :   -0.000000037   -0.000082277   -0.000280271
   7   C   :   -0.000000054    0.000154984   -0.000031049
   8   H   :    0.000000008   -0.000006033    0.000101597
   9   H   :    0.000000013   -0.000099563   -0.000068051
  10   C   :   -0.000000010   -0.000029689    0.000078726
  11   O   :    0.000000012    0.000004097   -0.000200158
  12   C   :    0.000000007   -0.000030835   -0.000002979
  13   H   :    0.000000019    0.000077758    0.000029815
  14   C   :   -0.000000061    0.000152664    0.000218108
  15   H   :    0.000000039   -0.000081769   -0.000105547
  16   H   :    0.000000004   -0.000053391   -0.000051614

Difference to translation invariance:
           :    0.0000000031   -0.0000568851   -0.0000981334

Difference to rotation invariance:
           :    0.0005660498   -0.0000000343    0.0000000066

Norm of the cartesian gradient     ...    0.0006258616
RMS gradient                       ...    0.0000903353
MAX gradient                       ...    0.0002802706

-------
TIMINGS
-------

Total SCF gradient time            ...        4.999 sec

One electron gradient       ....       0.048 sec  (  1.0%)
RI-J Coulomb gradient       ....       0.443 sec  (  8.9%)
COSX gradient               ....       2.141 sec  ( 42.8%)
XC gradient                 ....       0.771 sec  ( 15.4%)
[...]
     35       0.052755   0.011827  -0.062811   0.036904  -0.012550  -0.122729
     36      -0.000000  -0.000000   0.000000  -0.000001  -0.000002   0.000001
     37       0.131915   0.018142   0.415383   0.276227   0.039885   0.157236
     38       0.534277   0.057304   0.549674   0.531496   0.142510   0.295890
     39       0.000000   0.000000  -0.000000   0.000000  -0.000001   0.000000
     40       0.029995   0.000567  -0.117543  -0.069629   0.005965  -0.058215
     41       0.041103  -0.005452   0.019881  -0.023992   0.015707  -0.009944
     42      -0.000000   0.000000   0.000000   0.000000  -0.000000  -0.000000
     43       0.081344   0.000200  -0.297231  -0.145103   0.062080   0.156942
     44       0.160240  -0.005242  -0.462233  -0.214331   0.152045   0.539591
     45       0.000000   0.000000  -0.000000   0.000000   0.000001  -0.000000
     46       0.147118  -0.045999  -0.070410  -0.141077   0.173717   0.714130
     47       0.067808  -0.011580   0.009918  -0.041975   0.044180   0.099970
                 36         37         38         39         40         41    
      0       0.000000   0.000000  -0.000000  -0.000000   0.000000  -0.000000
      1      -0.090307  -0.077447  -0.337657   0.070295   0.090706   0.001595
      2       0.016062  -0.151061   0.112714   0.234543   0.038145   0.001227
      3       0.000000  -0.000000   0.000000   0.000000  -0.000000   0.000000
      4      -0.010232   0.138879   0.181033  -0.131364  -0.001943  -0.005207
      5      -0.242455   0.122157   0.072030  -0.285232   0.101998   0.003766
      6      -0.000000  -0.000001   0.000001  -0.000000   0.000000   0.000000
      7       0.023479  -0.018245   0.236449   0.056589  -0.045193   0.000901
      8       0.245640   0.011258  -0.168086  -0.304849   0.087297   0.001127
      9       0.000001   0.000001  -0.000000   0.000000   0.000000  -0.000000
     10       0.321060  -0.196510   0.014286   0.261744  -0.097758   0.058495
     11       0.241183  -0.419352  -0.193295   0.336796  -0.042609  -0.040715
     12       0.000000   0.000003  -0.000001   0.000000  -0.000000   0.000000
     13       0.277223   0.065895  -0.094784  -0.284744   0.006796  -0.016705
     14      -0.217893  -0.178527   0.525156   0.375196  -0.029329  -0.008147
     15      -0.000000   0.000001  -0.000000   0.000000  -0.000000   0.000000
     16      -0.009413  -0.112102  -0.133876   0.005408   0.026802   0.000956
     17       0.263634   0.109032   0.022698   0.223951  -0.127356  -0.000068
     18       0.000000   0.000002  -0.000001   0.000000  -0.000000   0.000000
     19      -0.035454   0.027484  -0.194457   0.041937  -0.007485   0.000468
     20      -0.256419   0.115148  -0.083129   0.255869  -0.093228  -0.000492
     21       0.000000  -0.000001  -0.000000  -0.000000   0.000000  -0.000000
     22       0.278176   0.133570  -0.056666   0.171097  -0.094215  -0.012997
     23      -0.270086  -0.436628  -0.129561  -0.075173   0.107853  -0.006756
     24      -0.000000  -0.000002   0.000001  -0.000000   0.000000   0.000000
     25       0.284886  -0.219334   0.101476  -0.212969   0.071566  -0.004648
     26       0.207138  -0.301353   0.414041  -0.113205   0.033957   0.002425
     27       0.000000   0.000000   0.000000   0.000000   0.000000  -0.000000
     28      -0.052805   0.066982   0.250175  -0.017186  -0.013186  -0.000087
     29      -0.041738  -0.347057   0.120511  -0.102417   0.099973   0.000375
     30      -0.000000  -0.000001   0.000000  -0.000000   0.000000  -0.000000
     31       0.032095  -0.002870  -0.024761  -0.000117  -0.000741  -0.000009
     32       0.022023   0.156355  -0.062418  -0.005303  -0.030611  -0.000220
     33      -0.000000  -0.000001   0.000000  -0.000000   0.000000  -0.000000
     34       0.017036  -0.058144   0.019378  -0.085317  -0.272983   0.075538
     35      -0.013020  -0.004016  -0.057553  -0.124836  -0.306219  -0.033682
     36       0.000001   0.000002  -0.000001   0.000000  -0.000001  -0.000000
     37      -0.065423  -0.044689  -0.054214   0.046676   0.052428  -0.884075
     38      -0.173251   0.052415  -0.194919   0.186577   0.456517   0.411696
     39      -0.000000   0.000001  -0.000000   0.000000  -0.000000   0.000000
     40       0.048735   0.082540   0.029518   0.072229   0.255662   0.001326
     41       0.038565   0.062479   0.040295   0.062449   0.222118   0.010450
     42      -0.000000  -0.000000  -0.000000  -0.000000  -0.000000   0.000000
     43      -0.060142  -0.023261  -0.044193  -0.007361   0.040097  -0.064225
     44      -0.256929  -0.245304  -0.164176  -0.185336  -0.491522   0.026609
     45      -0.000000  -0.000002   0.000001  -0.000001   0.000001  -0.000000
     46      -0.246856  -0.265275  -0.075380  -0.122626  -0.352970   0.024781
     47      -0.002065   0.024872   0.024705   0.042141   0.180160  -0.175507
                 42         43         44         45         46         47    
      0       0.000000  -0.000000  -0.000000  -0.000000   0.000000  -0.000000
      1       0.000981   0.000346   0.000205  -0.002225   0.001072  -0.000223
      2       0.002438  -0.001787  -0.000773  -0.000573  -0.002019  -0.000695
      3      -0.000000   0.000000   0.000000  -0.000000   0.000000   0.000000
      4      -0.064143  -0.000033  -0.002241   0.030756   0.012788  -0.000153
      5       0.039317   0.000869   0.002212  -0.022946  -0.008807   0.000251
      6      -0.000000   0.000000  -0.000000   0.000000  -0.000000   0.000000
      7       0.001813  -0.021756  -0.046306   0.020657  -0.053504  -0.002286
      8      -0.000502  -0.009937  -0.020684   0.011187  -0.028865  -0.001203
      9      -0.000000  -0.000000   0.000000   0.000000   0.000000  -0.000000
     10       0.745307   0.003533   0.029610  -0.353612  -0.144336   0.002711
     11      -0.471576  -0.002361  -0.019884   0.228333   0.091673  -0.001502
     12       0.000000   0.000000  -0.000000   0.000000   0.000000   0.000000
     13      -0.017507   0.251402   0.544794  -0.238406   0.615495   0.028279
     14      -0.006806   0.122026   0.266276  -0.118983   0.305191   0.013599
     15      -0.000000   0.000000  -0.000000   0.000000  -0.000000   0.000000
     16       0.034302   0.000600   0.002920   0.064521   0.023390   0.000092
     17       0.015004   0.000165   0.001512   0.034353   0.012011  -0.000046
     18      -0.000000   0.000000   0.000000   0.000000   0.000000   0.000000
     19      -0.003242   0.014168   0.051365   0.015998  -0.045911  -0.000119
     20       0.002092  -0.008431  -0.031365  -0.011659   0.031721   0.000191
     21       0.000000  -0.000000   0.000000   0.000000   0.000000  -0.000000
     22      -0.408470  -0.004890  -0.032242  -0.745377  -0.269671  -0.000366
     23      -0.201308  -0.002451  -0.017315  -0.373124  -0.134113  -0.000099
     24      -0.000000   0.000000  -0.000000  -0.000000   0.000000   0.000000
     25       0.040452  -0.168401  -0.602284  -0.184425   0.529860   0.001540
     26      -0.024542   0.105900   0.378992   0.118408  -0.335699  -0.000930
     27       0.000000  -0.000000   0.000000  -0.000000   0.000000  -0.000000
     28       0.000065  -0.000117  -0.000905  -0.002399   0.001093  -0.000008
     29       0.000871  -0.000411  -0.001709   0.002262   0.003586   0.000045
     30      -0.000000   0.000000  -0.000000  -0.000000  -0.000000  -0.000000
     31      -0.000094  -0.000027  -0.000015   0.000170  -0.000135   0.000002
     32       0.000108   0.000008   0.000227  -0.000495  -0.000993  -0.000017
     33       0.000000  -0.000000   0.000000  -0.000000  -0.000000  -0.000000
     34      -0.005246  -0.016206   0.006203   0.000543   0.002776  -0.009082
     35       0.002553   0.000426  -0.000616  -0.000428  -0.001421   0.003852
     36       0.000000  -0.000000   0.000000  -0.000000   0.000000  -0.000000
     37       0.062558   0.127727  -0.053124  -0.005405  -0.033627   0.088269
     38      -0.032373  -0.056350   0.024302   0.003322   0.017738  -0.040860
     39      -0.000000   0.000000  -0.000000   0.000000  -0.000000  -0.000000
     40       0.000568   0.056704  -0.019253   0.001271  -0.002935  -0.054566
     41      -0.000914   0.029787  -0.012494   0.002127  -0.003742   0.081759
     42      -0.000000   0.000000  -0.000000   0.000000  -0.000000   0.000000
     43      -0.003465  -0.692558   0.239849  -0.018078   0.041263   0.577296
     44       0.001369   0.257876  -0.090052   0.007010  -0.016425  -0.199252
     45      -0.000000   0.000000   0.000000  -0.000000  -0.000000   0.000000
     46      -0.001493   0.081971  -0.030871   0.004029  -0.007252   0.092791
     47       0.008355  -0.552019   0.215675  -0.027776   0.058035  -0.773429


-----------
IR SPECTRUM
-----------

 Mode   freq       eps      Int      T**2         TX        TY        TZ
       cm**-1   L/(mol*cm) km/mol    a.u.
----------------------------------------------------------------------------
  6:     73.58   0.000622    3.14  0.002638  ( 0.051358 -0.000003  0.000005)
  7:    152.62   0.000172    0.87  0.000352  (-0.018755 -0.000006  0.000005)
  8:    208.42   0.000349    1.76  0.000523  ( 0.000000  0.019992 -0.011083)
  9:    293.00   0.002197   11.10  0.002340  ( 0.048368  0.000002 -0.000006)
 10:    407.72   0.002138   10.81  0.001637  (-0.000001  0.010298 -0.039124)
 11:    426.66   0.000147    0.74  0.000107  (-0.010352 -0.000006 -0.000011)
 12:    453.14   0.005756   29.09  0.003964  ( 0.000000  0.036907  0.051008)
 13:    501.63   0.007358   37.18  0.004577  (-0.067656 -0.000003 -0.000002)
 14:    530.63   0.012071   61.00  0.007099  (-0.000001  0.007763  0.083897)
 15:    645.66   0.000587    2.97  0.000284  (-0.000000 -0.007118 -0.015272)
 16:    665.28   0.000076    0.38  0.000036  (-0.005966 -0.000001 -0.000001)
 17:    753.37   0.003705   18.72  0.001535  ( 0.000001  0.001365 -0.039151)
 18:    770.48   0.001183    5.98  0.000479  (-0.021892 -0.000000 -0.000002)
 19:    808.24   0.000184    0.93  0.000071  (-0.008421  0.000002  0.000001)
 20:    850.93   0.000015    0.07  0.000005  (-0.000008 -0.000707  0.002221)
 21:    857.32   0.035035  177.05  0.012753  ( 0.112928 -0.000004 -0.000002)
 22:    866.71   0.007914   39.99  0.002849  (-0.053381 -0.000001 -0.000003)
 23:    956.89   0.000140    0.71  0.000046  ( 0.006757  0.000001  0.000003)
 24:    964.16   0.000014    0.07  0.000005  ( 0.002157 -0.000001 -0.000004)
 25:    998.53   0.005185   26.20  0.001621  ( 0.000000  0.002787  0.040159)
 26:   1028.13   0.005372   27.15  0.001631  (-0.040380  0.000000  0.000001)
 27:   1036.63   0.001444    7.30  0.000435  ( 0.000000 -0.001586 -0.020792)
 28:   1112.45   0.006480   32.75  0.001818  (-0.000000  0.042215  0.005961)
 29:   1167.94   0.041656  210.51  0.011130  (-0.000000  0.013324  0.104654)
 30:   1239.75   0.017478   88.33  0.004400  ( 0.000000  0.025755  0.061125)
 31:   1275.38   0.000843    4.26  0.000206  ( 0.000000 -0.005589  0.013226)
 32:   1311.24   0.001152    5.82  0.000274  ( 0.000000  0.014273 -0.008398)
 33:   1338.76   0.020265  102.41  0.004724  (-0.000000 -0.019589  0.065879)
 34:   1409.86   0.070150  354.51  0.015527  ( 0.000000  0.009446  0.124250)
 35:   1441.11   0.047726  241.19  0.010335  ( 0.000000 -0.005036 -0.101536)
 36:   1476.49   0.016934   85.58  0.003579  ( 0.000000 -0.037485 -0.046625)
 37:   1549.82   0.202522  1023.46  0.040779  (-0.000000 -0.004762 -0.201881)
 38:   1559.30   0.013596   68.71  0.002721  ( 0.000000  0.041836  0.031156)
 39:   1639.56   0.195794  989.46  0.037266  ( 0.000000 -0.037054 -0.189455)
 40:   1673.56   0.010904   55.10  0.002033  ( 0.000000 -0.034696 -0.028799)
 41:   3127.96   0.006676   33.74  0.000666  ( 0.000000  0.019145 -0.017305)
 42:   3145.83   0.007855   39.70  0.000779  (-0.000000 -0.010695  0.025785)
 43:   3149.30   0.000854    4.32  0.000085  (-0.000000  0.006761 -0.006238)
 44:   3154.90   0.005073   25.64  0.000502  ( 0.000000 -0.000235 -0.022399)
 45:   3169.29   0.016399   82.87  0.001615  (-0.000000  0.039060  0.009432)
 46:   3174.78   0.003942   19.92  0.000388  ( 0.000000 -0.014971  0.012782)
 47:   3235.31   0.003706   18.73  0.000357  ( 0.000000 -0.012273  0.014382)

* The epsilon (eps) is given for a Dirac delta lineshape.
** The dipole moment derivative (T) already includes vibrational overlap.

The first frequency considered to be a vibration is 6
The total number of vibrations considered is 42


--------------------------
THERMOCHEMISTRY AT 298.15K
--------------------------

Temperature         ... 298.15 K
Pressure            ... 1.00 atm
Total Mass          ... 119.14 AMU

Throughout the following assumptions are being made:
  (1) The electronic state is orbitally nondegenerate
  (2) There are no thermally accessible electronically excited states
  (3) Hindered rotations indicated by low frequency modes are not
      treated as such but are treated as vibrations and this may
      cause some error
  (4) All equations used are the standard statistical mechanics
      equations for an ideal gas
  (5) All vibrations are strictly harmonic

freq.      73.58  E(vib)   ...       0.49 
freq.     152.62  E(vib)   ...       0.40 
freq.     208.42  E(vib)   ...       0.34 
freq.     293.00  E(vib)   ...       0.27 
freq.     407.72  E(vib)   ...       0.19 
freq.     426.66  E(vib)   ...       0.18 
freq.     453.14  E(vib)   ...       0.16 
freq.     501.63  E(vib)   ...       0.14 
freq.     530.63  E(vib)   ...       0.13 
freq.     645.66  E(vib)   ...       0.09 
freq.     665.28  E(vib)   ...       0.08 
freq.     753.37  E(vib)   ...       0.06 
freq.     770.48  E(vib)   ...       0.05 
freq.     808.24  E(vib)   ...       0.05 
freq.     850.93  E(vib)   ...       0.04 
freq.     857.32  E(vib)   ...       0.04 
freq.     866.71  E(vib)   ...       0.04 
freq.     956.89  E(vib)   ...       0.03 
freq.     964.16  E(vib)   ...       0.03 
freq.     998.53  E(vib)   ...       0.02 
freq.    1028.13  E(vib)   ...       0.02 
freq.    1036.63  E(vib)   ...       0.02 
freq.    1112.45  E(vib)   ...       0.01 
freq.    1167.94  E(vib)   ...       0.01 
freq.    1239.75  E(vib)   ...       0.01 
freq.    1275.38  E(vib)   ...       0.01 
freq.    1311.24  E(vib)   ...       0.01 
freq.    1338.76  E(vib)   ...       0.01 
freq.    1409.86  E(vib)   ...       0.00 
freq.    1441.11  E(vib)   ...       0.00 
freq.    1476.49  E(vib)   ...       0.00 
freq.    1549.82  E(vib)   ...       0.00 
freq.    1559.30  E(vib)   ...       0.00 
freq.    1639.56  E(vib)   ...       0.00 
freq.    1673.56  E(vib)   ...       0.00 
freq.    3127.96  E(vib)   ...       0.00 
freq.    3145.83  E(vib)   ...       0.00 
freq.    3149.30  E(vib)   ...       0.00 
freq.    3154.90  E(vib)   ...       0.00 
freq.    3169.29  E(vib)   ...       0.00 
freq.    3174.78  E(vib)   ...       0.00 
freq.    3235.31  E(vib)   ...       0.00 

------------
INNER ENERGY
------------

The inner energy is: U= E(el) + E(ZPE) + E(vib) + E(rot) + E(trans)
    E(el)   - is the total energy from the electronic structure calculation
              = E(kin-el) + E(nuc-el) + E(el-el) + E(nuc-nuc)
    E(ZPE)  - the the zero temperature vibrational energy from the frequency calculation
    E(vib)  - the the finite temperature correction to E(ZPE) due to population
              of excited vibrational states
    E(rot)  - is the rotational thermal energy
    E(trans)- is the translational thermal energy

Summary of contributions to the inner energy U:
Electronic energy                ...   -384.10295164 Eh
Zero point energy                ...      0.12439330 Eh      78.06 kcal/mol
Thermal vibrational correction   ...      0.00469399 Eh       2.95 kcal/mol
Thermal rotational correction    ...      0.00141627 Eh       0.89 kcal/mol
Thermal translational correction ...      0.00141627 Eh       0.89 kcal/mol
-----------------------------------------------------------------------
Total thermal energy                   -383.97103181 Eh


Summary of corrections to the electronic energy:
(perhaps to be used in another calculation)
Total thermal correction                  0.00752653 Eh       4.72 kcal/mol
Non-thermal (ZPE) correction              0.12439330 Eh      78.06 kcal/mol
-----------------------------------------------------------------------
Total correction                          0.13191983 Eh      82.78 kcal/mol


--------
ENTHALPY
--------

The enthalpy is H = U + kB*T
                kB is Boltzmann's constant
Total free energy                 ...   -383.97103181 Eh 
Thermal Enthalpy correction       ...      0.00094421 Eh       0.59 kcal/mol
-----------------------------------------------------------------------
Total Enthalpy                    ...   -383.97008760 Eh


Note: Rotational entropy computed according to Herzberg 
Infrared and Raman Spectra, Chapter V,1, Van Nostrand Reinhold, 1945 
Point Group:  Cs, Symmetry Number:   1  
Rotational constants in cm-1:     0.171337     0.033718     0.028174 

Vibrational entropy computed according to the QRRHO of S. Grimme
Chem.Eur.J. 2012 18 9955


-------
ENTROPY
-------

The entropy contributions are T*S = T*(S(el)+S(vib)+S(rot)+S(trans))
     S(el)   - electronic entropy
     S(vib)  - vibrational entropy
     S(rot)  - rotational entropy
     S(trans)- translational entropy
The entropies will be listed as multiplied by the temperature to get
units of energy

Electronic entropy                ...      0.00000000 Eh      0.00 kcal/mol
Vibrational entropy               ...      0.00760713 Eh      4.77 kcal/mol
Rotational entropy                ...      0.01362895 Eh      8.55 kcal/mol
Translational entropy             ...      0.01911931 Eh     12.00 kcal/mol
-----------------------------------------------------------------------
Final entropy term                ...      0.04035540 Eh     25.32 kcal/mol

In case the symmetry of your molecule has not been determined correctly
or in case you have a reason to use a different symmetry number we print 
out the resulting rotational entropy values for sn=1,12 :
 --------------------------------------------------------
|  sn= 1 | S(rot)=       0.01362895 Eh      8.55 kcal/mol|
|  sn= 2 | S(rot)=       0.01297450 Eh      8.14 kcal/mol|
|  sn= 3 | S(rot)=       0.01259166 Eh      7.90 kcal/mol|
|  sn= 4 | S(rot)=       0.01232004 Eh      7.73 kcal/mol|
|  sn= 5 | S(rot)=       0.01210935 Eh      7.60 kcal/mol|
|  sn= 6 | S(rot)=       0.01193721 Eh      7.49 kcal/mol|
|  sn= 7 | S(rot)=       0.01179166 Eh      7.40 kcal/mol|
|  sn= 8 | S(rot)=       0.01166558 Eh      7.32 kcal/mol|
|  sn= 9 | S(rot)=       0.01155438 Eh      7.25 kcal/mol|
|  sn=10 | S(rot)=       0.01145490 Eh      7.19 kcal/mol|
|  sn=11 | S(rot)=       0.01136491 Eh      7.13 kcal/mol|
|  sn=12 | S(rot)=       0.01128275 Eh      7.08 kcal/mol|
 --------------------------------------------------------


-------------------
GIBBS FREE ENERGY
-------------------

The Gibbs free energy is G = H - T*S

Total enthalpy                    ...   -383.97008760 Eh 
Total entropy correction          ...     -0.04035540 Eh    -25.32 kcal/mol
-----------------------------------------------------------------------
Final Gibbs free energy         ...   -384.01044299 Eh

For completeness - the Gibbs free energy minus the electronic energy
G-E(el)                           ...      0.09250865 Eh     58.05 kcal/mol


Timings for individual modules:

Sum of individual times         ...      251.060 sec (=   4.184 min)
GTO integral calculation        ...        4.420 sec (=   0.074 min)   1.8 %
SCF iterations                  ...       55.538 sec (=   0.926 min)  22.1 %
SCF Gradient evaluation         ...       11.353 sec (=   0.189 min)   4.5 %
Geometry relaxation             ...        0.201 sec (=   0.003 min)   0.1 %
Analytical frequency calculation...      179.548 sec (=   2.992 min)  71.5 %
                             ****ORCA TERMINATED NORMALLY****
TOTAL RUN TIME: 0 days 0 hours 4 minutes 17 seconds 668 msec
