
                                 *****************
                                 * O   R   C   A *
                                 *****************

                                            #,                                       
                                            ###                                      
                                            ####                                     
                                            #####                                    
                                            ######                                   
                                           ########,                                 
                                     ,,################,,,,,                         
                               ,,#################################,,                 
                          ,,##########################################,,             
                       ,#########################################, ''#####,          
                    ,#############################################,,   '####,        
                  ,##################################################,,,,####,       
                ,###########''''           ''''###############################       
              ,#####''   ,,,,##########,,,,          '''####'''          '####       
            ,##' ,,,,###########################,,,                        '##       
           ' ,,###''''                  '''############,,,                           
         ,,##''                                '''############,,,,        ,,,,,,###''
      ,#''                                            '''#######################'''  
     '                                                          ''''####''''         
             ,#######,   #######,   ,#######,      ##                                
            ,#'     '#,  ##    ##  ,#'     '#,    #''#        ######   ,####,        
            ##       ##  ##   ,#'  ##            #'  '#       #        #'  '#        
            ##       ##  #######   ##           ,######,      #####,   #    #        
            '#,     ,#'  ##    ##  '#,     ,#' ,#      #,         ##   #,  ,#        
             '#######'   ##     ##  '#######'  #'      '#     #####' # '####'        



                  #######################################################
                  #                        -***-                        #
                  #          Department of theory and spectroscopy      #
                  #    Directorship and core code : Frank Neese         #
                  #        Max Planck Institute fuer Kohlenforschung    #
                  #                Kaiser Wilhelm Platz 1               #
                  #                 D-45470 Muelheim/Ruhr               #
                  #                      Germany                        #
                  #                                                     #
                  #                  All rights reserved                #
                  #                        -***-                        #
                  #######################################################


                         Program Version 5.0.4 -  RELEASE  -


 With contributions from (in alphabetic order):
   Daniel Aravena         : Magnetic Suceptibility
   Michael Atanasov       : Ab Initio Ligand Field Theory (pilot matlab implementation)
   Alexander A. Auer      : GIAO ZORA, VPT2 properties, NMR spectrum
   Ute Becker             : Parallelization
   Giovanni Bistoni       : ED, misc. LED, open-shell LED, HFLD
   Martin Brehm           : Molecular dynamics
   Dmytro Bykov           : SCF Hessian
   Vijay G. Chilkuri      : MRCI spin determinant printing, contributions to CSF-ICE
   Dipayan Datta          : RHF DLPNO-CCSD density
   Achintya Kumar Dutta   : EOM-CC, STEOM-CC
   Dmitry Ganyushin       : Spin-Orbit,Spin-Spin,Magnetic field MRCI
   Miquel Garcia          : C-PCM and meta-GGA Hessian, CC/C-PCM, Gaussian charge scheme
   Yang Guo               : DLPNO-NEVPT2, F12-NEVPT2, CIM, IAO-localization
   Andreas Hansen         : Spin unrestricted coupled pair/coupled cluster methods
   Benjamin Helmich-Paris : MC-RPA, TRAH-SCF, COSX integrals
   Lee Huntington         : MR-EOM, pCC
   Robert Izsak           : Overlap fitted RIJCOSX, COSX-SCS-MP3, EOM
   Marcus Kettner         : VPT2
   Christian Kollmar      : KDIIS, OOCD, Brueckner-CCSD(T), CCSD density, CASPT2, CASPT2-K
   Simone Kossmann        : Meta GGA functionals, TD-DFT gradient, OOMP2, MP2 Hessian
   Martin Krupicka        : Initial AUTO-CI
   Lucas Lang             : DCDCAS
   Marvin Lechner         : AUTO-CI (C++ implementation), FIC-MRCC
   Dagmar Lenk            : GEPOL surface, SMD
   Dimitrios Liakos       : Extrapolation schemes; Compound Job, initial MDCI parallelization
   Dimitrios Manganas     : Further ROCIS development; embedding schemes
   Dimitrios Pantazis     : SARC Basis sets
   Anastasios Papadopoulos: AUTO-CI, single reference methods and gradients
   Taras Petrenko         : DFT Hessian,TD-DFT gradient, ASA, ECA, R-Raman, ABS, FL, XAS/XES, NRVS
   Peter Pinski           : DLPNO-MP2, DLPNO-MP2 Gradient
   Christoph Reimann      : Effective Core Potentials
   Marius Retegan         : Local ZFS, SOC
   Christoph Riplinger    : Optimizer, TS searches, QM/MM, DLPNO-CCSD(T), (RO)-DLPNO pert. Triples
   Tobias Risthaus        : Range-separated hybrids, TD-DFT gradient, RPA, STAB
   Michael Roemelt        : Original ROCIS implementation
   Masaaki Saitow         : Open-shell DLPNO-CCSD energy and density
   Barbara Sandhoefer     : DKH picture change effects
   Avijit Sen             : IP-ROCIS
   Kantharuban Sivalingam : CASSCF convergence, NEVPT2, FIC-MRCI
   Bernardo de Souza      : ESD, SOC TD-DFT
   Georgi Stoychev        : AutoAux, RI-MP2 NMR, DLPNO-MP2 response
   Willem Van den Heuvel  : Paramagnetic NMR
   Boris Wezisla          : Elementary symmetry handling
   Frank Wennmohs         : Technical directorship


 We gratefully acknowledge several colleagues who have allowed us to
 interface, adapt or use parts of their codes:
   Stefan Grimme, W. Hujo, H. Kruse, P. Pracht,  : VdW corrections, initial TS optimization,
                  C. Bannwarth, S. Ehlert          DFT functionals, gCP, sTDA/sTD-DF
   Ed Valeev, F. Pavosevic, A. Kumar             : LibInt (2-el integral package), F12 methods
   Garnet Chan, S. Sharma, J. Yang, R. Olivares  : DMRG
   Ulf Ekstrom                                   : XCFun DFT Library
   Mihaly Kallay                                 : mrcc  (arbitrary order and MRCC methods)
   Jiri Pittner, Ondrej Demel                    : Mk-CCSD
   Frank Weinhold                                : gennbo (NPA and NBO analysis)
   Christopher J. Cramer and Donald G. Truhlar   : smd solvation model
   Lars Goerigk                                  : TD-DFT with DH, B97 family of functionals
   V. Asgeirsson, H. Jonsson                     : NEB implementation
   FAccTs GmbH                                   : IRC, NEB, NEB-TS, DLPNO-Multilevel, CI-OPT
                                                   MM, QMMM, 2- and 3-layer-ONIOM, Crystal-QMMM,
                                                   LR-CPCM, SF, NACMEs, symmetry and pop. for TD-DFT,
                                                   nearIR, NL-DFT gradient (VV10), updates on ESD,
                                                   ML-optimized integration grids
   S Lehtola, MJT Oliveira, MAL Marques          : LibXC Library
   Liviu Ungur et al                             : ANISO software


 Your calculation uses the libint2 library for the computation of 2-el integrals
 For citations please refer to: http://libint.valeyev.net

 Your ORCA version has been built with support for libXC version: 5.1.0
 For citations please refer to: https://tddft.org/programs/libxc/

 This ORCA versions uses:
   CBLAS   interface :  Fast vector & matrix operations
   LAPACKE interface :  Fast linear algebra routines
   SCALAPACK package :  Parallel linear algebra routines
   Shared memory     :  Shared parallel matrices
   BLAS/LAPACK       :  OpenBLAS 0.3.15  USE64BITINT DYNAMIC_ARCH NO_AFFINITY Haswell SINGLE_THREADED
        Core in use  :  Haswell
   Copyright (c) 2011-2014, The OpenBLAS Project


Your calculation utilizes the atom-pairwise dispersion correction
with the Becke-Johnson damping scheme (D3BJ)
Cite in your paper:
S.Grimme, S.Ehrlich, L.Goerigk, J Comput Chem, (2011), 32, 1456–1465 
S.Grimme, J.Antony, S.Ehrlich and H.Krieg, J.Chem.Phys., 132, (2010), 154104 
   

================================================================================

----- Orbital basis set information -----
Your calculation utilizes the basis: def2-TZVP
   F. Weigend and R. Ahlrichs, Phys. Chem. Chem. Phys. 7, 3297 (2005).

----- AuxJ basis set information -----
Your calculation utilizes the auxiliary basis: def2/J
   F. Weigend, Phys. Chem. Chem. Phys. 8, 1057 (2006).

================================================================================
                                        WARNINGS
                       Please study these warnings very carefully!
================================================================================


WARNING: Geometry Optimization
  ===> : Switching off AutoStart
         For restart on a previous wavefunction, please use MOREAD

INFO   : the flag for use of the SHARK integral package has been found!

================================================================================
                                       INPUT FILE
================================================================================
NAME = CHCH2-PhenOH/CHCH2-PhenOH.inp
|  1> %pal nprocs 24 end
|  2> %maxcore 3500
|  3> ! PBE0 D3BJ def2-TZVP TightSCF OPT FREQ TightOpt
|  4> ! CPCM(dmso)
|  5> %scf
|  6> MaxIter 800
|  7> end
|  8> %geom
|  9> MaxIter 800
| 10> MaxStep 0.2
| 11> end
| 12> *xyz 0 1
| 13> 
| 14> C      -0.00000100     -0.57733100     -1.59279900
| 15> C      -0.00000000      0.65007100     -0.92857300
| 16> C      -0.00000200     -1.73714900     -0.80962500
| 17> H      -0.00000000      1.56563500     -1.51143500
| 18> H      -0.00000300     -2.71163100     -1.28506400
| 19> C       0.00000100      0.72953900      0.45416000
| 20> C      -0.00000100     -1.67450200      0.56924100
| 21> H       0.00000200      1.69416300      0.95198900
| 22> H      -0.00000200     -2.57981800      1.16563300
| 23> C       0.00000000     -0.43638000      1.21018600
| 24> O       0.00000100     -0.42708200      2.56350300
| 25> H       0.00000200      0.48335300      2.88199300
| 26> C      -0.00000200     -0.59297500     -3.05480900
| 27> H      -0.00000500      0.39354400     -3.51453500
| 28> C       0.00000200     -1.66029300     -3.85367100
| 29> H       0.00000600     -2.67643900     -3.47338100
| 30> H       0.00000200     -1.54241700     -4.93080600
| 31> *
| 32> 
| 33>                          ****END OF INPUT****
================================================================================

                       *****************************
                       * Geometry Optimization Run *
                       *****************************

Geometry optimization settings:
Update method            Update   .... BFGS
Choice of coordinates    CoordSys .... Z-matrix Internals
Initial Hessian          InHess   .... Almoef's Model

Convergence Tolerances:
Energy Change            TolE     ....  1.0000e-06 Eh
Max. Gradient            TolMAXG  ....  1.0000e-04 Eh/bohr
RMS Gradient             TolRMSG  ....  3.0000e-05 Eh/bohr
Max. Displacement        TolMAXD  ....  1.0000e-03 bohr
RMS Displacement         TolRMSD  ....  6.0000e-04 bohr
Strict Convergence                ....  False
------------------------------------------------------------------------------
                        ORCA OPTIMIZATION COORDINATE SETUP
------------------------------------------------------------------------------

The optimization will be done in new redundant internal coordinates
Making redundant internal coordinates   ...  (new redundants) done
Evaluating the initial hessian          ...  (Almloef) done
Evaluating the coordinates              ...  done
Calculating the B-matrix                .... done
Calculating the G-matrix                .... done
Diagonalizing the G-matrix              .... done
Small eigenvalue found = 2.471e-02
The first mode is                       ....   31
The number of degrees of freedom        ....   45

    -----------------------------------------------------------------
                    Redundant Internal Coordinates


    -----------------------------------------------------------------
         Definition                    Initial Value    Approx d2E/dq
    -----------------------------------------------------------------
      1. B(C   1,C   0)                  1.3956         0.612064   
      2. B(C   2,C   0)                  1.3995         0.603416   
      3. B(H   3,C   1)                  1.0854         0.366304   
      4. B(H   4,C   2)                  1.0843         0.367750   
      5. B(C   5,C   1)                  1.3850         0.636344   
      6. B(C   6,C   2)                  1.3803         0.647490   
      7. B(H   7,C   5)                  1.0855         0.366088   
      8. B(H   8,C   6)                  1.0841         0.367985   
      9. B(C   9,C   6)                  1.3942         0.615260   
     10. B(C   9,C   5)                  1.3896         0.625753   
     11. B(O  10,C   9)                  1.3533         0.640250   
     12. B(H  11,O  10)                  0.9645         0.511366   
     13. B(C  12,C   0)                  1.4621         0.479422   
     14. B(H  13,C  12)                  1.0884         0.362251   
     15. B(C  14,C  12)                  1.3332         0.769846   
     16. B(H  15,C  14)                  1.0850         0.366808   
     17. B(H  16,C  14)                  1.0836         0.368713   
     18. A(C   1,C   0,C  12)          119.0337         0.413608   
     19. A(C   2,C   0,C  12)          123.4164         0.412565   
     20. A(C   1,C   0,C   2)          117.5499         0.430956   
     21. A(H   3,C   1,C   5)          119.1922         0.355496   
     22. A(C   0,C   1,C   5)          121.7099         0.435094   
     23. A(C   0,C   1,H   3)          119.0979         0.353160   
     24. A(H   4,C   2,C   6)          118.6086         0.356784   
     25. A(C   0,C   2,C   6)          121.4281         0.435339   
     26. A(C   0,C   2,H   4)          119.9633         0.352545   
     27. A(H   7,C   5,C   9)          119.7415         0.354450   
     28. A(C   1,C   5,C   9)          119.6716         0.436831   
     29. A(C   1,C   5,H   7)          120.5869         0.355461   
     30. A(H   8,C   6,C   9)          119.2550         0.353746   
     31. A(C   2,C   6,C   9)          119.9709         0.436866   
     32. A(C   2,C   6,H   8)          120.7742         0.356823   
     33. A(C   5,C   9,O  10)          122.5673         0.434447   
     34. A(C   5,C   9,C   6)          119.6696         0.434188   
     35. A(C   6,C   9,O  10)          117.7631         0.433127   
     36. A(C   9,O  10,H  11)          109.6746         0.371103   
     37. A(H  13,C  12,C  14)          118.2001         0.366535   
     38. A(C   0,C  12,C  14)          127.4270         0.430904   
     39. A(C   0,C  12,H  13)          114.3728         0.338324   
     40. A(H  15,C  14,H  16)          116.7635         0.292772   
     41. A(C  12,C  14,H  16)          120.5687         0.367648   
     42. A(C  12,C  14,H  15)          122.6678         0.367321   
     43. D(H   3,C   1,C   0,C   2)   -180.0000         0.025883   
     44. D(C   5,C   1,C   0,C  12)   -180.0000         0.025883   
     45. D(C   5,C   1,C   0,C   2)      0.0000         0.025883   
     46. D(H   3,C   1,C   0,C  12)      0.0000         0.025883   
     47. D(H   4,C   2,C   0,C  12)      0.0000         0.025116   
     48. D(C   6,C   2,C   0,C   1)     -0.0000         0.025116   
     49. D(H   4,C   2,C   0,C   1)    180.0000         0.025116   
     50. D(C   6,C   2,C   0,C  12)   -180.0000         0.025116   
     51. D(C   9,C   5,C   1,H   3)    180.0000         0.028113   
     52. D(C   9,C   5,C   1,C   0)     -0.0000         0.028113   
     53. D(H   7,C   5,C   1,H   3)     -0.0000         0.028113   
     54. D(H   7,C   5,C   1,C   0)    180.0000         0.028113   
     55. D(H   8,C   6,C   2,H   4)     -0.0000         0.029175   
     56. D(C   9,C   6,C   2,C   0)      0.0000         0.029175   
     57. D(H   8,C   6,C   2,C   0)    180.0000         0.029175   
     58. D(C   9,C   6,C   2,H   4)   -180.0000         0.029175   
     59. D(O  10,C   9,C   6,H   8)      0.0001         0.026170   
     60. D(C   5,C   9,C   6,H   8)   -180.0000         0.026170   
     61. D(C   5,C   9,C   6,C   2)     -0.0000         0.026170   
     62. D(O  10,C   9,C   5,H   7)     -0.0000         0.027126   
     63. D(O  10,C   9,C   5,C   1)    180.0000         0.027126   
     64. D(O  10,C   9,C   6,C   2)   -180.0000         0.026170   
     65. D(C   6,C   9,C   5,H   7)   -180.0000         0.027126   
     66. D(C   6,C   9,C   5,C   1)      0.0000         0.027126   
     67. D(H  11,O  10,C   9,C   6)    180.0000         0.030222   
     68. D(H  11,O  10,C   9,C   5)      0.0000         0.030222   
     69. D(C  14,C  12,C   0,C   2)     -0.0003         0.015649   
     70. D(C  14,C  12,C   0,C   1)    179.9997         0.015649   
     71. D(H  13,C  12,C   0,C   2)    179.9998         0.015649   
     72. D(H  13,C  12,C   0,C   1)     -0.0002         0.015649   
     73. D(H  15,C  14,C  12,C   0)      0.0000         0.042485   
     74. D(H  16,C  14,C  12,H  13)     -0.0000         0.042485   
     75. D(H  16,C  14,C  12,C   0)   -179.9999         0.042485   
     76. D(H  15,C  14,C  12,H  13)    179.9999         0.042485   
    -----------------------------------------------------------------

Number of atoms                         .... 17
Number of degrees of freedom            .... 76

         *************************************************************
         *                GEOMETRY OPTIMIZATION CYCLE   1            *
         *************************************************************
---------------------------------
CARTESIAN COORDINATES (ANGSTROEM)
---------------------------------
  C     -0.000001   -0.577331   -1.592799
  C     -0.000000    0.650071   -0.928573
  C     -0.000002   -1.737149   -0.809625
  H     -0.000000    1.565635   -1.511435
  H     -0.000003   -2.711631   -1.285064
  C      0.000001    0.729539    0.454160
  C     -0.000001   -1.674502    0.569241
  H      0.000002    1.694163    0.951989
  H     -0.000002   -2.579818    1.165633
  C      0.000000   -0.436380    1.210186
  O      0.000001   -0.427082    2.563503
  H      0.000002    0.483353    2.881993
  C     -0.000002   -0.592975   -3.054809
  H     -0.000005    0.393544   -3.514535
  C      0.000002   -1.660293   -3.853671
  H      0.000006   -2.676439   -3.473381
  H      0.000002   -1.542417   -4.930806

----------------------------
CARTESIAN COORDINATES (A.U.)
----------------------------
  NO LB      ZA    FRAG     MASS         X           Y           Z
   0 C     6.0000    0    12.011   -0.000002   -1.090997   -3.009954
   1 C     6.0000    0    12.011   -0.000000    1.228456   -1.754749
   2 C     6.0000    0    12.011   -0.000004   -3.282736   -1.529970
   3 H     1.0000    0     1.008   -0.000000    2.958621   -2.856198
   4 H     1.0000    0     1.008   -0.000006   -5.124240   -2.428419
   5 C     6.0000    0    12.011    0.000002    1.378629    0.858238
   6 C     6.0000    0    12.011   -0.000002   -3.164350    1.075710
   7 H     1.0000    0     1.008    0.000004    3.201504    1.798998
   8 H     1.0000    0     1.008   -0.000004   -4.875149    2.202727
   9 C     6.0000    0    12.011    0.000000   -0.824639    2.286920
  10 O     8.0000    0    15.999    0.000002   -0.807068    4.844319
  11 H     1.0000    0     1.008    0.000004    0.913405    5.446177
  12 C     6.0000    0    12.011   -0.000004   -1.120560   -5.772752
  13 H     1.0000    0     1.008   -0.000009    0.743690   -6.641509
  14 C     6.0000    0    12.011    0.000004   -3.137499   -7.282383
  15 H     1.0000    0     1.008    0.000011   -5.057737   -6.563739
  16 H     1.0000    0     1.008    0.000004   -2.914746   -9.317873

--------------------------------
INTERNAL COORDINATES (ANGSTROEM)
--------------------------------
 C      0   0   0     0.000000000000     0.00000000     0.00000000
 C      1   0   0     1.395604474298     0.00000000     0.00000000
 C      1   2   0     1.399478226841   117.54991212     0.00000000
 H      2   1   3     1.085350426885   119.09788335   180.00004761
 H      3   1   2     1.084277368133   119.96333998   179.99998760
 C      2   1   3     1.385014697508   121.70993155     0.00000000
 C      3   1   2     1.380288409198   121.42805226     0.00000000
 H      6   2   1     1.085510559423   120.58689488   179.99998587
 H      7   3   1     1.084103536347   120.77418897   179.99998708
 C      6   2   1     1.389583544533   119.67163478     0.00000000
 O     10   6   2     1.353348940700   122.56725570   179.99999453
 H     11  10   6     0.964535001608   109.67459523     0.00000000
 C      1   2   3     1.462093695642   119.03372542   179.99995320
 H     13   1   2     1.088378487681   114.37284710     0.00000000
 C     13   1   2     1.333172235003   127.42703669   179.99972833
 H     15  13   1     1.084976118369   122.66779267     0.00000000
 H     15  13   1     1.083565669261   120.56867862   180.00007937

---------------------------
INTERNAL COORDINATES (A.U.)
---------------------------
 C      0   0   0     0.000000000000     0.00000000     0.00000000
 C      1   0   0     2.637310247699     0.00000000     0.00000000
 C      1   2   0     2.644630579115   117.54991212     0.00000000
 H      2   1   3     2.051015066148   119.09788335   180.00004761
 H      3   1   2     2.048987278981   119.96333998   179.99998760
 C      2   1   3     2.617298469746   121.70993155     0.00000000
 C      3   1   2     2.608367079210   121.42805226     0.00000000
 H      6   2   1     2.051317672788   120.58689488   179.99998587
 H      7   3   1     2.048658784512   120.77418897   179.99998708
 C      6   2   1     2.625932339372   119.67163478     0.00000000
 O     10   6   2     2.557458861556   122.56725570   179.99999453
 H     11  10   6     1.822706999619   109.67459523     0.00000000
 C      1   2   3     2.762956666897   119.03372542   179.99995320
 H     13   1   2     2.056737271768   114.37284710     0.00000000
 C     13   1   2     2.519330413504   127.42703669   179.99972833
 H     15  13   1     2.050307725563   122.66779267     0.00000000
 H     15  13   1     2.047642363022   120.56867862   180.00007937

---------------------
BASIS SET INFORMATION
---------------------
There are 3 groups of distinct atoms

 Group   1 Type C   : 11s6p2d1f contracted to 5s3p2d1f pattern {62111/411/11/1}
 Group   2 Type H   : 5s1p contracted to 3s1p pattern {311/1}
 Group   3 Type O   : 11s6p2d1f contracted to 5s3p2d1f pattern {62111/411/11/1}

Atom   0C    basis set group =>   1
Atom   1C    basis set group =>   1
Atom   2C    basis set group =>   1
Atom   3H    basis set group =>   2
Atom   4H    basis set group =>   2
Atom   5C    basis set group =>   1
Atom   6C    basis set group =>   1
Atom   7H    basis set group =>   2
Atom   8H    basis set group =>   2
Atom   9C    basis set group =>   1
Atom  10O    basis set group =>   3
Atom  11H    basis set group =>   2
Atom  12C    basis set group =>   1
Atom  13H    basis set group =>   2
Atom  14C    basis set group =>   1
Atom  15H    basis set group =>   2
Atom  16H    basis set group =>   2
---------------------------------
AUXILIARY/J BASIS SET INFORMATION
---------------------------------
There are 3 groups of distinct atoms

 Group   1 Type C   : 12s5p4d2f1g contracted to 6s4p3d1f1g pattern {711111/2111/211/2/1}
 Group   2 Type H   : 5s2p1d contracted to 3s1p1d pattern {311/2/1}
 Group   3 Type O   : 12s5p4d2f1g contracted to 6s4p3d1f1g pattern {711111/2111/211/2/1}

Atom   0C    basis set group =>   1
Atom   1C    basis set group =>   1
Atom   2C    basis set group =>   1
Atom   3H    basis set group =>   2
Atom   4H    basis set group =>   2
Atom   5C    basis set group =>   1
Atom   6C    basis set group =>   1
Atom   7H    basis set group =>   2
Atom   8H    basis set group =>   2
Atom   9C    basis set group =>   1
Atom  10O    basis set group =>   3
Atom  11H    basis set group =>   2
Atom  12C    basis set group =>   1
Atom  13H    basis set group =>   2
Atom  14C    basis set group =>   1
Atom  15H    basis set group =>   2
Atom  16H    basis set group =>   2


           ************************************************************
           *        Program running with 24 parallel MPI-processes    *
           *              working on a common directory               *
           ************************************************************
------------------------------------------------------------------------------
                           ORCA GTO INTEGRAL CALCULATION
                           -- RI-GTO INTEGRALS CHOSEN --
------------------------------------------------------------------------------
------------------------------------------------------------------------------
                   ___                                                        
                  /   \      - P O W E R E D   B Y -                         
                 /     \                                                     
                 |  |  |   _    _      __       _____    __    __             
                 |  |  |  | |  | |    /  \     |  _  \  |  |  /  |          
                  \  \/   | |  | |   /    \    | | | |  |  | /  /          
                 / \  \   | |__| |  /  /\  \   | |_| |  |  |/  /          
                |  |  |   |  __  | /  /__\  \  |    /   |      \           
                |  |  |   | |  | | |   __   |  |    \   |  |\   \          
                \     /   | |  | | |  |  |  |  | |\  \  |  | \   \       
                 \___/    |_|  |_| |__|  |__|  |_| \__\ |__|  \__/        
                                                                              
                      - O R C A' S   B I G   F R I E N D -                    
                                      &                                       
                       - I N T E G R A L  F E E D E R -                       
                                                                              
 v1 FN, 2020, v2 2021                                                         
------------------------------------------------------------------------------


Reading SHARK input file CHCH2-PhenOH/CHCH2-PhenOH.SHARKINP.tmp ... ok
----------------------
SHARK INTEGRAL PACKAGE
----------------------

Number of atoms                             ...     17
Number of basis functions                   ...    327
Number of shells                            ...    131
Maximum angular momentum                    ...      3
Integral batch strategy                     ... SHARK/LIBINT Hybrid
RI-J (if used) integral strategy            ... SPLIT-RIJ (Revised 2003 algorithm where possible)
Printlevel                                  ...      1
Contraction scheme used                     ... SEGMENTED contraction
Coulomb Range Separation                    ... NOT USED
Exchange Range Separation                   ... NOT USED
Finite Nucleus Model                        ... NOT USED
Auxiliary Coulomb fitting basis             ... AVAILABLE
   # of basis functions in Aux-J            ...    529
   # of shells in Aux-J                     ...    175
   Maximum angular momentum in Aux-J        ...      4
Auxiliary J/K fitting basis                 ... NOT available
Auxiliary Correlation fitting basis         ... NOT available
Auxiliary 'external' fitting basis          ... NOT available
Integral threshold                          ...     2.500000e-11
Primitive cut-off                           ...     2.500000e-12
Primitive pair pre-selection threshold      ...     2.500000e-12

Calculating pre-screening integrals         ... done (  0.1 sec) Dimension = 131
Organizing shell pair data                  ... done (  0.1 sec)
Shell pair information
Total number of shell pairs                 ...      8646
Shell pairs after pre-screening             ...      7694
Total number of primitive shell pairs       ...     26328
Primitive shell pairs kept                  ...     17471
          la=0 lb=0:   2056 shell pairs
          la=1 lb=0:   2161 shell pairs
          la=1 lb=1:    587 shell pairs
          la=2 lb=0:   1116 shell pairs
          la=2 lb=1:    588 shell pairs
          la=2 lb=2:    159 shell pairs
          la=3 lb=0:    546 shell pairs
          la=3 lb=1:    290 shell pairs
          la=3 lb=2:    149 shell pairs
          la=3 lb=3:     42 shell pairs

Calculating one electron integrals          ... done (  0.0 sec)
Calculating RI/J V-Matrix + Cholesky decomp.... done (  0.1 sec)
Calculating Nuclear repulsion               ... done (  0.0 sec) ENN=    398.605833399944 Eh

SHARK setup successfully completed in   0.5 seconds

Maximum memory used throughout the entire GTOINT-calculation: 21.0 MB


           ************************************************************
           *        Program running with 24 parallel MPI-processes    *
           *              working on a common directory               *
           ************************************************************
-------------------------------------------------------------------------------
                                 ORCA SCF
-------------------------------------------------------------------------------

------------
SCF SETTINGS
------------
Hamiltonian:
 Density Functional     Method          .... DFT(GTOs)
 Exchange Functional    Exchange        .... PBE
   PBE kappa parameter   XKappa         ....  0.804000
   PBE mue parameter    XMuePBE         ....  0.219520
 Correlation Functional Correlation     .... PBE
   PBE beta parameter  CBetaPBE         ....  0.066725
 LDA part of GGA corr.  LDAOpt          .... PW91-LDA
 Gradients option       PostSCFGGA      .... off
 Hybrid DFT is turned on
   Fraction HF Exchange ScalHFX         ....  0.250000
   Scaling of DF-GGA-X  ScalDFX         ....  0.750000
   Scaling of DF-GGA-C  ScalDFC         ....  1.000000
   Scaling of DF-LDA-C  ScalLDAC        ....  1.000000
   Perturbative correction              ....  0.000000
   Density functional embedding theory  .... OFF
   NL short-range parameter             ....  6.900000
 RI-approximation to the Coulomb term is turned on
   Number of AuxJ basis functions       .... 529
   RIJ-COSX (HFX calculated with COS-X)).... on


General Settings:
 Integral files         IntName         .... CHCH2-PhenOH/CHCH2-PhenOH
 Hartree-Fock type      HFTyp           .... RHF
 Total Charge           Charge          ....    0
 Multiplicity           Mult            ....    1
 Number of Electrons    NEL             ....   64
 Basis Dimension        Dim             ....  327
 Nuclear Repulsion      ENuc            ....    398.6058333999 Eh

Convergence Acceleration:
 DIIS                   CNVDIIS         .... on
   Start iteration      DIISMaxIt       ....    12
   Startup error        DIISStart       ....  0.200000
   # of expansion vecs  DIISMaxEq       ....     5
   Bias factor          DIISBfac        ....   1.050
   Max. coefficient     DIISMaxC        ....  10.000
 Trust-Rad. Augm. Hess. CNVTRAH         .... auto
   Auto Start mean grad. ratio tolernc. ....  1.125000
   Auto Start start iteration           ....    20
   Auto Start num. interpolation iter.  ....    10
   Max. Number of Micro iterations      ....    16
   Max. Number of Macro iterations      .... Maxiter - #DIIS iter
   Number of Davidson start vectors     ....     2
   Converg. threshold I  (grad. norm)   ....   1.000e-05
   Converg. threshold II (energy diff.) ....   1.000e-08
   Grad. Scal. Fac. for Micro threshold ....   0.100
   Minimum threshold for Micro iter.    ....   0.010
   NR start threshold (gradient norm)   ....   0.001
   Initial trust radius                 ....   0.400
   Minimum AH scaling param. (alpha)    ....   1.000
   Maximum AH scaling param. (alpha)    .... 1000.000
   Orbital update algorithm             .... Taylor
   White noise on init. David. guess    .... on
   Maximum white noise                  ....   0.010
   Quad. conv. algorithm                .... NR
 SOSCF                  CNVSOSCF        .... on
   Start iteration      SOSCFMaxIt      ....   150
   Startup grad/error   SOSCFStart      ....  0.003300
 Level Shifting         CNVShift        .... on
   Level shift para.    LevelShift      ....    0.2500
   Turn off err/grad.   ShiftErr        ....    0.0010
 Zerner damping         CNVZerner       .... off
 Static damping         CNVDamp         .... on
   Fraction old density DampFac         ....    0.7000
   Max. Damping (<1)    DampMax         ....    0.9800
   Min. Damping (>=0)   DampMin         ....    0.0000
   Turn off err/grad.   DampErr         ....    0.1000
 Fernandez-Rico         CNVRico         .... off

SCF Procedure:
 Maximum # iterations   MaxIter         ....   800
 SCF integral mode      SCFMode         .... Direct
   Integral package                     .... SHARK and LIBINT hybrid scheme
 Reset frequency        DirectResetFreq ....    20
 Integral Threshold     Thresh          ....  2.500e-11 Eh
 Primitive CutOff       TCut            ....  2.500e-12 Eh

Convergence Tolerance:
 Convergence Check Mode ConvCheckMode   .... Total+1el-Energy
 Convergence forced     ConvForced      .... 0
 Energy Change          TolE            ....  1.000e-08 Eh
 1-El. energy change                    ....  1.000e-05 Eh
 Orbital Gradient       TolG            ....  1.000e-05
 Orbital Rotation angle TolX            ....  1.000e-05
 DIIS Error             TolErr          ....  5.000e-07


Diagonalization of the overlap matrix:
Smallest eigenvalue                        ... 8.561e-06
Time for diagonalization                   ...    0.025 sec
Threshold for overlap eigenvalues          ... 1.000e-08
Number of eigenvalues below threshold      ... 0
Time for construction of square roots      ...    0.020 sec
Total time needed                          ...    0.047 sec

Time for model grid setup =    0.103 sec

------------------------------
INITIAL GUESS: MODEL POTENTIAL
------------------------------
Loading Hartree-Fock densities                     ... done
Calculating cut-offs                               ... done
Initializing the effective Hamiltonian             ... done
Setting up the integral package (SHARK)            ... done
Starting the Coulomb interaction                   ... done (   0.1 sec)
Reading the grid                                   ... done
Mapping shells                                     ... done
Starting the XC term evaluation                    ... done (   0.0 sec)
  promolecular density results
     # of electrons  =     63.995600103
     EX              =    -51.429970298
     EC              =     -2.115063134
     EX+EC           =    -53.545033432
Transforming the Hamiltonian                       ... done (   0.0 sec)
Diagonalizing the Hamiltonian                      ... done (   0.0 sec)
Back transforming the eigenvectors                 ... done (   0.0 sec)
Now organizing SCF variables                       ... done
                      ------------------
                      INITIAL GUESS DONE (   0.4 sec)
                      ------------------
-------------------
DFT GRID GENERATION
-------------------

General Integration Accuracy     IntAcc      ... 4.388
Radial Grid Type                 RadialGrid  ... OptM3 with GC (2021)
Angular Grid (max. ang.)         AngularGrid ... 4 (Lebedev-302)
Angular grid pruning method      GridPruning ... 4 (adaptive)
Weight generation scheme         WeightScheme... Becke
Basis function cutoff            BFCut       ... 1.0000e-11
Integration weight cutoff        WCut        ... 1.0000e-14
Angular grids for H and He will be reduced by one unit
Partially contracted basis set               ... off
Rotationally invariant grid construction     ... off

Total number of grid points                  ...    79877
Total number of batches                      ...     1255
Average number of points per batch           ...       63
Average number of grid points per atom       ...     4699
Time for grid setup =    0.506 sec

--------------------
COSX GRID GENERATION
--------------------

GRIDX 1
-------
General Integration Accuracy     IntAcc      ... 3.816
Radial Grid Type                 RadialGrid  ... OptM3 with GC (2021)
Angular Grid (max. ang.)         AngularGrid ... 1 (Lebedev-50)
Angular grid pruning method      GridPruning ... 4 (adaptive)
Weight generation scheme         WeightScheme... Becke
Basis function cutoff            BFCut       ... 1.0000e-11
Integration weight cutoff        WCut        ... 1.0000e-14
Angular grids for H and He will be reduced by one unit
Partially contracted basis set               ... on
Rotationally invariant grid construction     ... off

Total number of grid points                  ...    10240
Total number of batches                      ...      166
Average number of points per batch           ...       61
Average number of grid points per atom       ...      602
UseSFitting                                  ... on

GRIDX 2
-------
General Integration Accuracy     IntAcc      ... 4.020
Radial Grid Type                 RadialGrid  ... OptM3 with GC (2021)
Angular Grid (max. ang.)         AngularGrid ... 2 (Lebedev-110)
Angular grid pruning method      GridPruning ... 4 (adaptive)
Weight generation scheme         WeightScheme... Becke
Basis function cutoff            BFCut       ... 1.0000e-11
Integration weight cutoff        WCut        ... 1.0000e-14
Angular grids for H and He will be reduced by one unit
Partially contracted basis set               ... on
Rotationally invariant grid construction     ... off

Total number of grid points                  ...    22251
Total number of batches                      ...      357
Average number of points per batch           ...       62
Average number of grid points per atom       ...     1309
UseSFitting                                  ... on

GRIDX 3
-------
General Integration Accuracy     IntAcc      ... 4.338
Radial Grid Type                 RadialGrid  ... OptM3 with GC (2021)
Angular Grid (max. ang.)         AngularGrid ... 3 (Lebedev-194)
Angular grid pruning method      GridPruning ... 4 (adaptive)
Weight generation scheme         WeightScheme... Becke
Basis function cutoff            BFCut       ... 1.0000e-11
Integration weight cutoff        WCut        ... 1.0000e-14
Angular grids for H and He will be reduced by one unit
Partially contracted basis set               ... on
Rotationally invariant grid construction     ... off

Total number of grid points                  ...    48928
Total number of batches                      ...      775
Average number of points per batch           ...       63
Average number of grid points per atom       ...     2878
UseSFitting                                  ... on

Time for X-Grid setup             =    0.597 sec


--------------------
CPCM SOLVATION MODEL
--------------------
CPCM parameters:
  Epsilon                                         ...      47.2000
  Refrac                                          ...       1.4790
  Rsolv                                           ...       1.3000
  Surface type                                    ... GAUSSIAN VDW
  Epsilon function type                           ...         CPCM
Radii:
 Radius for C  used is    3.8550 Bohr (=   2.0400 Ang.)
 Radius for H  used is    2.4944 Bohr (=   1.3200 Ang.)
 Radius for O  used is    3.4469 Bohr (=   1.8240 Ang.)
Calculating surface                               ...        done! (  0.0s)
GEPOL surface points                              ...          963
GEPOL Volume                                      ...    1077.9149
GEPOL Surface-area                                ...     606.2256
Calculating surface distance matrix               ...        done! (  0.0s)
Performing Cholesky decomposition & store         ...        done! (  0.1s)
Overall time for CPCM initialization              ...                 0.1s
--------------
SCF ITERATIONS
--------------
ITER       Energy         Delta-E        Max-DP      RMS-DP      [F,P]     Damp
               ***  Starting incremental Fock matrix formation  ***
  0   -384.3507878044   0.000000000000 0.07657781  0.00108414  0.2065219 0.7000
  1   -384.4468938277  -0.096106023220 0.08614210  0.00098889  0.0984765 0.7000
                               ***Turning on DIIS***
  2   -384.4911757608  -0.044281933113 0.14056579  0.00182819  0.0389113 0.0000
  3   -384.5550735832  -0.063897822415 0.07445795  0.00070716  0.0460661 0.0000
  4   -384.5701436302  -0.015070047003 0.01680133  0.00020322  0.0082143 0.0000
  5   -384.5707611189  -0.000617488738 0.01087647  0.00011023  0.0064119 0.0000
                      *** Initiating the SOSCF procedure ***
                           *** Shutting down DIIS ***
                      *** Re-Reading the Fockian *** 
                      *** Removing any level shift *** 
ITER      Energy       Delta-E        Grad      Rot      Max-DP    RMS-DP
  6   -384.57082775  -0.0000666311  0.000292  0.000292  0.002364  0.000036
               *** Restarting incremental Fock matrix formation ***
  7   -384.57081601   0.0000117448  0.000111  0.000575  0.000964  0.000027
  8   -384.57081639  -0.0000003889  0.000094  0.000303  0.000343  0.000009
  9   -384.57081671  -0.0000003140  0.000040  0.000129  0.000281  0.000007
 10   -384.57081674  -0.0000000304  0.000014  0.000030  0.000203  0.000003
 11   -384.57081675  -0.0000000071  0.000010  0.000026  0.000056  0.000001
                  ***Gradient check signals convergence***
              ***Rediagonalizing the Fockian in SOSCF/NRSCF***

               *****************************************************
               *                     SUCCESS                       *
               *           SCF CONVERGED AFTER  12 CYCLES          *
               *****************************************************

Old exchange energy                            =    -13.144681687 Eh
New exchange energy                            =    -13.144679993 Eh
Exchange energy change after final integration =      0.000001694 Eh
Total energy after final integration           =   -384.570815051 Eh
Final COS-X integration done in                =     1.851 sec

----------------
TOTAL SCF ENERGY
----------------

Total Energy       :         -384.57081505 Eh          -10464.70389 eV

Components:
Nuclear Repulsion  :          398.60583340 Eh           10846.61616 eV
Electronic Energy  :         -783.17664845 Eh          -21311.32005 eV
One Electron Energy:        -1310.20650937 Eh          -35652.53166 eV
Two Electron Energy:          527.02986092 Eh           14341.21161 eV
Max COSX asymmetry :            0.00000233 Eh               0.00006 eV
CPCM Dielectric    :           -0.01369030 Eh              -0.37253 eV

Virial components:
Potential Energy   :         -767.34190900 Eh          -20880.43488 eV
Kinetic Energy     :          382.77109395 Eh           10415.73099 eV
Virial Ratio       :            2.00470182


DFT components:
N(Alpha)           :       32.000036046129 electrons
N(Beta)            :       32.000036046129 electrons
N(Total)           :       64.000072092259 electrons
E(X)               :      -39.324384719561 Eh       
E(C)               :       -2.124552979024 Eh       
E(XC)              :      -41.448937698585 Eh       
DFET-embed. en.    :        0.000000000000 Eh       
CPCM Solvation Model Properties:
Surface-charge          :           -0.02454106
Charge-correction       :            0.00019326 Eh               0.00526 eV
Free-energy (cav+disp)  :  This term is not implemented in the current solvation scheme

---------------
SCF CONVERGENCE
---------------

  Last Energy change         ...    4.0666e-10  Tolerance :   1.0000e-08
  Last MAX-Density change    ...    1.1102e-15  Tolerance :   1.0000e-07
  Last RMS-Density change    ...    1.3091e-17  Tolerance :   5.0000e-09
  Last Orbital Gradient      ...    2.4732e-06  Tolerance :   1.0000e-05
  Last Orbital Rotation      ...    5.5679e-06  Tolerance :   1.0000e-05

             **** THE GBW FILE WAS UPDATED (CHCH2-PhenOH/CHCH2-PhenOH.gbw) ****
             **** DENSITY CHCH2-PhenOH/CHCH2-PhenOH.scfp WAS UPDATED ****
             **** ENERGY FILE WAS UPDATED (CHCH2-PhenOH/CHCH2-PhenOH.en.tmp) ****
             **** THE GBW FILE WAS UPDATED (CHCH2-PhenOH/CHCH2-PhenOH.gbw) ****
             **** DENSITY CHCH2-PhenOH/CHCH2-PhenOH.scfp WAS UPDATED ****
----------------
ORBITAL ENERGIES
----------------

  NO   OCC          E(Eh)            E(eV) 
   0   2.0000     -19.240324      -523.5558 
   1   2.0000     -10.291180      -280.0372 
   2   2.0000     -10.232530      -278.4413 
   3   2.0000     -10.230675      -278.3908 
   4   2.0000     -10.230417      -278.3838 
   5   2.0000     -10.229140      -278.3491 
   6   2.0000     -10.225976      -278.2630 
   7   2.0000     -10.225398      -278.2472 
   8   2.0000     -10.213619      -277.9267 
   9   2.0000      -1.098716       -29.8976 
  10   2.0000      -0.890609       -24.2347 
  11   2.0000      -0.813914       -22.1477 
  12   2.0000      -0.778682       -21.1890 
  13   2.0000      -0.745724       -20.2922 
  14   2.0000      -0.659745       -17.9526 
  15   2.0000      -0.629785       -17.1373 
  16   2.0000      -0.585734       -15.9386 
  17   2.0000      -0.566482       -15.4148 
  18   2.0000      -0.502915       -13.6850 
  19   2.0000      -0.500777       -13.6268 
  20   2.0000      -0.460448       -12.5294 
  21   2.0000      -0.439406       -11.9568 
  22   2.0000      -0.438317       -11.9272 
  23   2.0000      -0.434904       -11.8343 
  24   2.0000      -0.420216       -11.4347 
  25   2.0000      -0.386882       -10.5276 
  26   2.0000      -0.377268       -10.2660 
  27   2.0000      -0.363190        -9.8829 
  28   2.0000      -0.347399        -9.4532 
  29   2.0000      -0.302940        -8.2434 
  30   2.0000      -0.275493        -7.4965 
  31   2.0000      -0.225765        -6.1434 
  32   0.0000      -0.032756        -0.8913 
  33   0.0000      -0.011418        -0.3107 
  34   0.0000       0.056930         1.5491 
  35   0.0000       0.062506         1.7009 
  36   0.0000       0.074547         2.0285 
  37   0.0000       0.083202         2.2640 
  38   0.0000       0.097295         2.6475 
  39   0.0000       0.115665         3.1474 
  40   0.0000       0.130773         3.5585 
  41   0.0000       0.138987         3.7820 
  42   0.0000       0.158656         4.3172 
  43   0.0000       0.161198         4.3864 
  44   0.0000       0.176401         4.8001 
  45   0.0000       0.181636         4.9426 
  46   0.0000       0.202170         5.5013 
  47   0.0000       0.203785         5.5453 
  48   0.0000       0.205561         5.5936 
  49   0.0000       0.224228         6.1016 
  50   0.0000       0.233727         6.3600 
  51   0.0000       0.241474         6.5708 
  52   0.0000       0.252227         6.8634 
  53   0.0000       0.263900         7.1811 
  54   0.0000       0.271662         7.3923 
  55   0.0000       0.289839         7.8869 
  56   0.0000       0.293550         7.9879 
  57   0.0000       0.304172         8.2769 
  58   0.0000       0.316131         8.6024 
  59   0.0000       0.319094         8.6830 
  60   0.0000       0.336658         9.1609 
  61   0.0000       0.342367         9.3163 
  62   0.0000       0.349949         9.5226 
  63   0.0000       0.355051         9.6614 
  64   0.0000       0.370585        10.0841 
  65   0.0000       0.376200        10.2369 
  66   0.0000       0.392191        10.6720 
  67   0.0000       0.401752        10.9322 
  68   0.0000       0.406041        11.0489 
  69   0.0000       0.422842        11.5061 
  70   0.0000       0.433547        11.7974 
  71   0.0000       0.438371        11.9287 
  72   0.0000       0.449268        12.2252 
  73   0.0000       0.469793        12.7837 
  74   0.0000       0.477297        12.9879 
  75   0.0000       0.478474        13.0199 
  76   0.0000       0.494223        13.4485 
  77   0.0000       0.499386        13.5890 
  78   0.0000       0.508050        13.8248 
  79   0.0000       0.521581        14.1930 
  80   0.0000       0.532618        14.4933 
  81   0.0000       0.558875        15.2078 
  82   0.0000       0.570542        15.5252 
  83   0.0000       0.582989        15.8639 
  84   0.0000       0.588476        16.0132 
  85   0.0000       0.598921        16.2975 
  86   0.0000       0.609604        16.5882 
  87   0.0000       0.626266        17.0416 
  88   0.0000       0.645204        17.5569 
  89   0.0000       0.663018        18.0416 
  90   0.0000       0.668461        18.1897 
  91   0.0000       0.688179        18.7263 
  92   0.0000       0.702759        19.1230 
  93   0.0000       0.720611        19.6088 
  94   0.0000       0.728565        19.8253 
  95   0.0000       0.736151        20.0317 
  96   0.0000       0.748543        20.3689 
  97   0.0000       0.751477        20.4487 
  98   0.0000       0.786808        21.4101 
  99   0.0000       0.795438        21.6450 
 100   0.0000       0.805880        21.9291 
 101   0.0000       0.836536        22.7633 
 102   0.0000       0.844057        22.9680 
 103   0.0000       0.863082        23.4857 
 104   0.0000       0.873055        23.7570 
 105   0.0000       0.876569        23.8527 
 106   0.0000       0.885236        24.0885 
 107   0.0000       0.888617        24.1805 
 108   0.0000       0.957318        26.0499 
 109   0.0000       0.976386        26.5688 
 110   0.0000       0.983572        26.7644 
 111   0.0000       1.001857        27.2619 
 112   0.0000       1.027069        27.9480 
 113   0.0000       1.042778        28.3754 
 114   0.0000       1.043162        28.3859 
 115   0.0000       1.078891        29.3581 
 116   0.0000       1.110315        30.2132 
 117   0.0000       1.117848        30.4182 
 118   0.0000       1.149695        31.2848 
 119   0.0000       1.161651        31.6101 
 120   0.0000       1.200026        32.6544 
 121   0.0000       1.203564        32.7506 
 122   0.0000       1.214577        33.0503 
 123   0.0000       1.235465        33.6187 
 124   0.0000       1.264467        34.4079 
 125   0.0000       1.272420        34.6243 
 126   0.0000       1.298017        35.3208 
 127   0.0000       1.306831        35.5607 
 128   0.0000       1.319656        35.9097 
 129   0.0000       1.335725        36.3469 
 130   0.0000       1.349904        36.7328 
 131   0.0000       1.370826        37.3021 
 132   0.0000       1.410409        38.3792 
 133   0.0000       1.413675        38.4681 
 134   0.0000       1.444037        39.2943 
 135   0.0000       1.479810        40.2677 
 136   0.0000       1.489044        40.5189 
 137   0.0000       1.522442        41.4277 
 138   0.0000       1.525091        41.4998 
 139   0.0000       1.528079        41.5812 
 140   0.0000       1.551930        42.2302 
 141   0.0000       1.569076        42.6967 
 142   0.0000       1.574155        42.8349 
 143   0.0000       1.605662        43.6923 
 144   0.0000       1.632018        44.4095 
 145   0.0000       1.634932        44.4888 
 146   0.0000       1.647264        44.8243 
 147   0.0000       1.653425        44.9920 
 148   0.0000       1.677424        45.6450 
 149   0.0000       1.695097        46.1259 
 150   0.0000       1.705529        46.4098 
 151   0.0000       1.730878        47.0996 
 152   0.0000       1.743986        47.4563 
 153   0.0000       1.756592        47.7993 
 154   0.0000       1.764013        48.0012 
 155   0.0000       1.784515        48.5591 
 156   0.0000       1.829557        49.7848 
 157   0.0000       1.840479        50.0820 
 158   0.0000       1.845948        50.2308 
 159   0.0000       1.862684        50.6862 
 160   0.0000       1.875915        51.0462 
 161   0.0000       1.888874        51.3989 
 162   0.0000       1.926695        52.4280 
 163   0.0000       1.967016        53.5252 
 164   0.0000       1.985316        54.0232 
 165   0.0000       2.012942        54.7749 
 166   0.0000       2.046613        55.6912 
 167   0.0000       2.051553        55.8256 
 168   0.0000       2.080610        56.6163 
 169   0.0000       2.125001        57.8242 
 170   0.0000       2.152235        58.5653 
 171   0.0000       2.153399        58.5970 
 172   0.0000       2.157429        58.7066 
 173   0.0000       2.164080        58.8876 
 174   0.0000       2.194964        59.7280 
 175   0.0000       2.209858        60.1333 
 176   0.0000       2.236160        60.8490 
 177   0.0000       2.274731        61.8986 
 178   0.0000       2.312305        62.9210 
 179   0.0000       2.337127        63.5965 
 180   0.0000       2.349878        63.9434 
 181   0.0000       2.367895        64.4337 
 182   0.0000       2.387933        64.9790 
 183   0.0000       2.406889        65.4948 
 184   0.0000       2.431150        66.1550 
 185   0.0000       2.461989        66.9941 
 186   0.0000       2.488470        67.7147 
 187   0.0000       2.522778        68.6483 
 188   0.0000       2.525024        68.7094 
 189   0.0000       2.567949        69.8774 
 190   0.0000       2.577877        70.1476 
 191   0.0000       2.605948        70.9115 
 192   0.0000       2.612585        71.0921 
 193   0.0000       2.627147        71.4883 
 194   0.0000       2.646107        72.0042 
 195   0.0000       2.666062        72.5472 
 196   0.0000       2.667683        72.5913 
 197   0.0000       2.687083        73.1192 
 198   0.0000       2.737295        74.4856 
 199   0.0000       2.737578        74.4933 
 200   0.0000       2.746827        74.7450 
 201   0.0000       2.756663        75.0126 
 202   0.0000       2.757264        75.0290 
 203   0.0000       2.764847        75.2353 
 204   0.0000       2.780813        75.6698 
 205   0.0000       2.800176        76.1967 
 206   0.0000       2.809725        76.4565 
 207   0.0000       2.838492        77.2393 
 208   0.0000       2.839648        77.2708 
 209   0.0000       2.866397        77.9986 
 210   0.0000       2.889949        78.6395 
 211   0.0000       2.904477        79.0348 
 212   0.0000       2.907679        79.1220 
 213   0.0000       2.918891        79.4271 
 214   0.0000       2.933007        79.8112 
 215   0.0000       2.959200        80.5239 
 216   0.0000       2.974042        80.9278 
 217   0.0000       2.981836        81.1399 
 218   0.0000       3.009848        81.9021 
 219   0.0000       3.036169        82.6184 
 220   0.0000       3.052652        83.0669 
 221   0.0000       3.056701        83.1771 
 222   0.0000       3.061035        83.2950 
 223   0.0000       3.070493        83.5524 
 224   0.0000       3.110498        84.6409 
 225   0.0000       3.131849        85.2219 
 226   0.0000       3.138250        85.3961 
 227   0.0000       3.148440        85.6734 
 228   0.0000       3.159857        85.9841 
 229   0.0000       3.186289        86.7033 
 230   0.0000       3.188890        86.7741 
 231   0.0000       3.218975        87.5928 
 232   0.0000       3.230067        87.8946 
 233   0.0000       3.232779        87.9684 
 234   0.0000       3.261029        88.7371 
 235   0.0000       3.263764        88.8115 
 236   0.0000       3.278073        89.2009 
 237   0.0000       3.302446        89.8641 
 238   0.0000       3.317960        90.2863 
 239   0.0000       3.337419        90.8158 
 240   0.0000       3.356514        91.3354 
 241   0.0000       3.357285        91.3564 
 242   0.0000       3.361317        91.4661 
 243   0.0000       3.403088        92.6027 
 244   0.0000       3.410271        92.7982 
 245   0.0000       3.413851        92.8956 
 246   0.0000       3.419719        93.0553 
 247   0.0000       3.449625        93.8691 
 248   0.0000       3.467549        94.3568 
 249   0.0000       3.482986        94.7769 
 250   0.0000       3.491822        95.0173 
 251   0.0000       3.522070        95.8404 
 252   0.0000       3.522273        95.8459 
 253   0.0000       3.555330        96.7455 
 254   0.0000       3.565393        97.0193 
 255   0.0000       3.585263        97.5600 
 256   0.0000       3.586449        97.5922 
 257   0.0000       3.604027        98.0706 
 258   0.0000       3.634031        98.8870 
 259   0.0000       3.700489       100.6954 
 260   0.0000       3.767437       102.5172 
 261   0.0000       3.783725       102.9604 
 262   0.0000       3.784862       102.9913 
 263   0.0000       3.819403       103.9312 
 264   0.0000       3.851003       104.7911 
 265   0.0000       3.892484       105.9199 
 266   0.0000       3.959477       107.7428 
 267   0.0000       3.961456       107.7967 
 268   0.0000       3.979350       108.2836 
 269   0.0000       4.029241       109.6412 
 270   0.0000       4.041664       109.9793 
 271   0.0000       4.097568       111.5005 
 272   0.0000       4.123361       112.2024 
 273   0.0000       4.147702       112.8647 
 274   0.0000       4.162284       113.2615 
 275   0.0000       4.209735       114.5527 
 276   0.0000       4.212451       114.6266 
 277   0.0000       4.219838       114.8276 
 278   0.0000       4.225602       114.9845 
 279   0.0000       4.263310       116.0106 
 280   0.0000       4.269177       116.1702 
 281   0.0000       4.363505       118.7370 
 282   0.0000       4.365504       118.7914 
 283   0.0000       4.393910       119.5644 
 284   0.0000       4.423804       120.3778 
 285   0.0000       4.425339       120.4196 
 286   0.0000       4.504539       122.5747 
 287   0.0000       4.548994       123.7844 
 288   0.0000       4.653289       126.6224 
 289   0.0000       4.667297       127.0036 
 290   0.0000       4.678718       127.3144 
 291   0.0000       4.700277       127.9010 
 292   0.0000       4.765085       129.6646 
 293   0.0000       4.823406       131.2515 
 294   0.0000       4.861784       132.2959 
 295   0.0000       4.881221       132.8248 
 296   0.0000       4.928531       134.1122 
 297   0.0000       4.938560       134.3851 
 298   0.0000       4.955256       134.8394 
 299   0.0000       5.107860       138.9919 
 300   0.0000       5.232464       142.3826 
 301   0.0000       5.274971       143.5393 
 302   0.0000       5.276437       143.5791 
 303   0.0000       5.377462       146.3282 
 304   0.0000       5.487679       149.3273 
 305   0.0000       5.499999       149.6626 
 306   0.0000       5.500969       149.6890 
 307   0.0000       5.538316       150.7052 
 308   0.0000       5.715457       155.5255 
 309   0.0000       5.820180       158.3752 
 310   0.0000       6.026218       163.9817 
 311   0.0000       6.354736       172.9212 
 312   0.0000       6.429164       174.9465 
 313   0.0000       6.435743       175.1255 
 314   0.0000       6.732044       183.1882 
 315   0.0000       6.822397       185.6469 
 316   0.0000       7.002779       190.5553 
 317   0.0000       7.303106       198.7276 
 318   0.0000      22.091973       601.1532 
 319   0.0000      22.465349       611.3132 
 320   0.0000      22.765917       619.4921 
 321   0.0000      22.775352       619.7488 
 322   0.0000      22.846768       621.6922 
 323   0.0000      22.898066       623.0881 
 324   0.0000      23.062620       627.5658 
 325   0.0000      23.444696       637.9626 
 326   0.0000      44.020854      1197.8683 

                    ********************************
                    * MULLIKEN POPULATION ANALYSIS *
                    ********************************

-----------------------
MULLIKEN ATOMIC CHARGES
-----------------------
   0 C :    0.226715
   1 C :   -0.223646
   2 C :   -0.230522
   3 H :    0.151114
   4 H :    0.142334
   5 C :   -0.237427
   6 C :   -0.228640
   7 H :    0.158274
   8 H :    0.144947
   9 C :    0.260903
  10 O :   -0.428132
  11 H :    0.369006
  12 C :   -0.233485
  13 H :    0.143747
  14 C :   -0.324150
  15 H :    0.150585
  16 H :    0.158378
Sum of atomic charges:    0.0000000

--------------------------------
MULLIKEN REDUCED ORBITAL CHARGES
--------------------------------
  0 C s       :     3.112917  s :     3.112917
      pz      :     0.757574  p :     2.510441
      px      :     0.962880
      py      :     0.789987
      dz2     :     0.036303  d :     0.140071
      dxz     :     0.024683
      dyz     :     0.040145
      dx2y2   :     0.017041
      dxy     :     0.021899
      f0      :     0.001284  f :     0.009857
      f+1     :     0.000992
      f-1     :     0.003410
      f+2     :     0.000875
      f-2     :     0.001090
      f+3     :     0.001446
      f-3     :     0.000760
  1 C s       :     3.225295  s :     3.225295
      pz      :     0.970791  p :     2.891687
      px      :     0.957774
      py      :     0.963122
      dz2     :     0.019218  d :     0.099213
      dxz     :     0.022479
      dyz     :     0.037648
      dx2y2   :     0.009319
      dxy     :     0.010549
      f0      :     0.000879  f :     0.007452
      f+1     :     0.001520
      f-1     :     0.002219
      f+2     :     0.000776
      f-2     :     0.000421
      f+3     :     0.000993
      f-3     :     0.000645
  2 C s       :     3.246325  s :     3.246325
      pz      :     0.963419  p :     2.881480
      px      :     0.952588
      py      :     0.965473
      dz2     :     0.021117  d :     0.095426
      dxz     :     0.022631
      dyz     :     0.034247
      dx2y2   :     0.008784
      dxy     :     0.008648
      f0      :     0.000915  f :     0.007292
      f+1     :     0.001494
      f-1     :     0.002156
      f+2     :     0.000695
      f-2     :     0.000556
      f+3     :     0.000811
      f-3     :     0.000665
  3 H s       :     0.826811  s :     0.826811
      pz      :     0.006592  p :     0.022075
      px      :     0.004602
      py      :     0.010881
  4 H s       :     0.835142  s :     0.835142
      pz      :     0.005802  p :     0.022524
      px      :     0.004540
      py      :     0.012183
  5 C s       :     3.226103  s :     3.226103
      pz      :     0.925500  p :     2.920552
      px      :     1.034783
      py      :     0.960269
      dz2     :     0.017189  d :     0.083584
      dxz     :     0.018261
      dyz     :     0.030392
      dx2y2   :     0.009295
      dxy     :     0.008448
      f0      :     0.000879  f :     0.007188
      f+1     :     0.001450
      f-1     :     0.002012
      f+2     :     0.000766
      f-2     :     0.000468
      f+3     :     0.000920
      f-3     :     0.000694
  6 C s       :     3.242197  s :     3.242197
      pz      :     0.932386  p :     2.895005
      px      :     1.019531
      py      :     0.943089
      dz2     :     0.015567  d :     0.083987
      dxz     :     0.017311
      dyz     :     0.032515
      dx2y2   :     0.007902
      dxy     :     0.010692
      f0      :     0.000808  f :     0.007452
      f+1     :     0.001471
      f-1     :     0.002219
      f+2     :     0.000826
      f-2     :     0.000389
      f+3     :     0.001057
      f-3     :     0.000682
  7 H s       :     0.819554  s :     0.819554
      pz      :     0.005468  p :     0.022172
      px      :     0.005031
      py      :     0.011674
  8 H s       :     0.832859  s :     0.832859
      pz      :     0.006581  p :     0.022194
      px      :     0.004926
      py      :     0.010687
  9 C s       :     3.004595  s :     3.004595
      pz      :     0.718994  p :     2.538756
      px      :     0.912377
      py      :     0.907385
      dz2     :     0.034119  d :     0.179993
      dxz     :     0.047318
      dyz     :     0.058184
      dx2y2   :     0.015402
      dxy     :     0.024970
      f0      :     0.002605  f :     0.015754
      f+1     :     0.003379
      f-1     :     0.005400
      f+2     :     0.000747
      f-2     :     0.001097
      f+3     :     0.001701
      f-3     :     0.000826
 10 O s       :     3.752106  s :     3.752106
      pz      :     1.346880  p :     4.641795
      px      :     1.815731
      py      :     1.479184
      dz2     :     0.011675  d :     0.032475
      dxz     :     0.005818
      dyz     :     0.007251
      dx2y2   :     0.006451
      dxy     :     0.001279
      f0      :     0.000532  f :     0.001756
      f+1     :     0.000311
      f-1     :     0.000266
      f+2     :     0.000223
      f-2     :     0.000021
      f+3     :     0.000054
      f-3     :     0.000348
 11 H s       :     0.585774  s :     0.585774
      pz      :     0.010896  p :     0.045220
      px      :     0.014857
      py      :     0.019466
 12 C s       :     3.260308  s :     3.260308
      pz      :     0.895125  p :     2.873452
      px      :     0.961445
      py      :     1.016882
      dz2     :     0.023448  d :     0.092721
      dxz     :     0.025204
      dyz     :     0.025066
      dx2y2   :     0.010914
      dxy     :     0.008089
      f0      :     0.001173  f :     0.007004
      f+1     :     0.001110
      f-1     :     0.002017
      f+2     :     0.000556
      f-2     :     0.000638
      f+3     :     0.000928
      f-3     :     0.000583
 13 H s       :     0.834500  s :     0.834500
      pz      :     0.005537  p :     0.021754
      px      :     0.004483
      py      :     0.011733
 14 C s       :     3.233775  s :     3.233775
      pz      :     1.026317  p :     3.034110
      px      :     1.018729
      py      :     0.989064
      dz2     :     0.020652  d :     0.051499
      dxz     :     0.004641
      dyz     :     0.009046
      dx2y2   :     0.010538
      dxy     :     0.006622
      f0      :     0.000939  f :     0.004765
      f+1     :     0.000227
      f-1     :     0.000964
      f+2     :     0.000529
      f-2     :     0.000530
      f+3     :     0.000917
      f-3     :     0.000659
 15 H s       :     0.826999  s :     0.826999
      pz      :     0.004967  p :     0.022416
      px      :     0.004929
      py      :     0.012520
 16 H s       :     0.819408  s :     0.819408
      pz      :     0.013303  p :     0.022214
      px      :     0.005261
      py      :     0.003649


                     *******************************
                     * LOEWDIN POPULATION ANALYSIS *
                     *******************************

----------------------
LOEWDIN ATOMIC CHARGES
----------------------
   0 C :   -0.170956
   1 C :   -0.108208
   2 C :   -0.099612
   3 H :    0.158666
   4 H :    0.157667
   5 C :   -0.142900
   6 C :   -0.130459
   7 H :    0.158137
   8 H :    0.156860
   9 C :   -0.290259
  10 O :    0.083854
  11 H :    0.208928
  12 C :   -0.175267
  13 H :    0.156973
  14 C :   -0.218371
  15 H :    0.126332
  16 H :    0.128615

-------------------------------
LOEWDIN REDUCED ORBITAL CHARGES
-------------------------------
  0 C s       :     2.699150  s :     2.699150
      pz      :     0.985033  p :     2.889194
      px      :     0.867948
      py      :     1.036213
      dz2     :     0.144427  d :     0.524826
      dxz     :     0.070023
      dyz     :     0.164239
      dx2y2   :     0.071481
      dxy     :     0.074655
      f0      :     0.007108  f :     0.057787
      f+1     :     0.004933
      f-1     :     0.022235
      f+2     :     0.006438
      f-2     :     0.007492
      f+3     :     0.004127
      f-3     :     0.005454
  1 C s       :     2.756264  s :     2.756264
      pz      :     1.038527  p :     2.911675
      px      :     0.871194
      py      :     1.001954
      dz2     :     0.096934  d :     0.397087
      dxz     :     0.070407
      dyz     :     0.153628
      dx2y2   :     0.044078
      dxy     :     0.032040
      f0      :     0.007279  f :     0.043181
      f+1     :     0.006628
      f-1     :     0.014842
      f+2     :     0.004524
      f-2     :     0.002575
      f+3     :     0.003473
      f-3     :     0.003859
  2 C s       :     2.754589  s :     2.754589
      pz      :     1.042036  p :     2.910081
      px      :     0.869506
      py      :     0.998539
      dz2     :     0.104312  d :     0.391823
      dxz     :     0.073141
      dyz     :     0.142550
      dx2y2   :     0.045945
      dxy     :     0.025876
      f0      :     0.007584  f :     0.043119
      f+1     :     0.006139
      f-1     :     0.014860
      f+2     :     0.004470
      f-2     :     0.003725
      f+3     :     0.002737
      f-3     :     0.003603
  3 H s       :     0.781326  s :     0.781326
      pz      :     0.017893  p :     0.060008
      px      :     0.013238
      py      :     0.028876
  4 H s       :     0.781893  s :     0.781893
      pz      :     0.015944  p :     0.060440
      px      :     0.013055
      py      :     0.031441
  5 C s       :     2.760549  s :     2.760549
      pz      :     1.044325  p :     2.967336
      px      :     0.931079
      py      :     0.991932
      dz2     :     0.095808  d :     0.372266
      dxz     :     0.062907
      dyz     :     0.145393
      dx2y2   :     0.043638
      dxy     :     0.024520
      f0      :     0.007632  f :     0.042749
      f+1     :     0.005822
      f-1     :     0.014298
      f+2     :     0.004903
      f-2     :     0.003547
      f+3     :     0.002864
      f-3     :     0.003684
  6 C s       :     2.759886  s :     2.759886
      pz      :     1.042860  p :     2.957118
      px      :     0.918512
      py      :     0.995747
      dz2     :     0.087596  d :     0.370730
      dxz     :     0.057209
      dyz     :     0.152846
      dx2y2   :     0.042878
      dxy     :     0.030203
      f0      :     0.007452  f :     0.042726
      f+1     :     0.006205
      f-1     :     0.014285
      f+2     :     0.004810
      f-2     :     0.002449
      f+3     :     0.003559
      f-3     :     0.003966
  7 H s       :     0.780848  s :     0.780848
      pz      :     0.015456  p :     0.061015
      px      :     0.014504
      py      :     0.031056
  8 H s       :     0.782203  s :     0.782203
      pz      :     0.018064  p :     0.060938
      px      :     0.014184
      py      :     0.028690
  9 C s       :     2.715391  s :     2.715391
      pz      :     0.842108  p :     2.773485
      px      :     0.844107
      py      :     1.087269
      dz2     :     0.206410  d :     0.701905
      dxz     :     0.146187
      dyz     :     0.198072
      dx2y2   :     0.069478
      dxy     :     0.081758
      f0      :     0.019856  f :     0.099479
      f+1     :     0.019885
      f-1     :     0.034756
      f+2     :     0.006257
      f-2     :     0.007703
      f+3     :     0.005338
      f-3     :     0.005685
 10 O s       :     3.317313  s :     3.317313
      pz      :     1.386024  p :     4.521723
      px      :     1.699372
      py      :     1.436327
      dz2     :     0.024935  d :     0.072215
      dxz     :     0.014757
      dyz     :     0.022584
      dx2y2   :     0.009448
      dxy     :     0.000490
      f0      :     0.001424  f :     0.004895
      f+1     :     0.001037
      f-1     :     0.001476
      f+2     :     0.000380
      f-2     :     0.000010
      f+3     :     0.000001
      f-3     :     0.000567
 11 H s       :     0.637989  s :     0.637989
      pz      :     0.029670  p :     0.153082
      px      :     0.041303
      py      :     0.082109
 12 C s       :     2.776643  s :     2.776643
      pz      :     1.018257  p :     2.952228
      px      :     0.879766
      py      :     1.054206
      dz2     :     0.120002  d :     0.405239
      dxz     :     0.077494
      dyz     :     0.130356
      dx2y2   :     0.051934
      dxy     :     0.025453
      f0      :     0.007167  f :     0.041157
      f+1     :     0.004775
      f-1     :     0.013942
      f+2     :     0.005234
      f-2     :     0.003769
      f+3     :     0.002411
      f-3     :     0.003859
 13 H s       :     0.784254  s :     0.784254
      pz      :     0.015441  p :     0.058773
      px      :     0.012716
      py      :     0.030616
 14 C s       :     2.853671  s :     2.853671
      pz      :     1.051366  p :     3.101046
      px      :     0.964881
      py      :     1.084799
      dz2     :     0.096227  d :     0.236522
      dxz     :     0.011565
      dyz     :     0.058287
      dx2y2   :     0.050892
      dxy     :     0.019551
      f0      :     0.004192  f :     0.027132
      f+1     :     0.000238
      f-1     :     0.007943
      f+2     :     0.005212
      f-2     :     0.003498
      f+3     :     0.002096
      f-3     :     0.003953
 15 H s       :     0.809679  s :     0.809679
      pz      :     0.016131  p :     0.063989
      px      :     0.014402
      py      :     0.033457
 16 H s       :     0.807413  s :     0.807413
      pz      :     0.036662  p :     0.063972
      px      :     0.014965
      py      :     0.012345


                      *****************************
                      * MAYER POPULATION ANALYSIS *
                      *****************************

  NA   - Mulliken gross atomic population
  ZA   - Total nuclear charge
  QA   - Mulliken gross atomic charge
  VA   - Mayer's total valence
  BVA  - Mayer's bonded valence
  FA   - Mayer's free valence

  ATOM       NA         ZA         QA         VA         BVA        FA
  0 C      5.7733     6.0000     0.2267     3.6229     3.6229    -0.0000
  1 C      6.2236     6.0000    -0.2236     3.9058     3.9058     0.0000
  2 C      6.2305     6.0000    -0.2305     3.9469     3.9469     0.0000
  3 H      0.8489     1.0000     0.1511     0.9676     0.9676     0.0000
  4 H      0.8577     1.0000     0.1423     0.9704     0.9704     0.0000
  5 C      6.2374     6.0000    -0.2374     3.8473     3.8473     0.0000
  6 C      6.2286     6.0000    -0.2286     3.9615     3.9615     0.0000
  7 H      0.8417     1.0000     0.1583     0.9663     0.9663     0.0000
  8 H      0.8551     1.0000     0.1449     0.9775     0.9775     0.0000
  9 C      5.7391     6.0000     0.2609     3.9836     3.9836     0.0000
 10 O      8.4281     8.0000    -0.4281     2.0737     2.0737     0.0000
 11 H      0.6310     1.0000     0.3690     0.8768     0.8768     0.0000
 12 C      6.2335     6.0000    -0.2335     3.8976     3.8976    -0.0000
 13 H      0.8563     1.0000     0.1437     0.9679     0.9679     0.0000
 14 C      6.3241     6.0000    -0.3241     3.9007     3.9007     0.0000
 15 H      0.8494     1.0000     0.1506     0.9694     0.9694     0.0000
 16 H      0.8416     1.0000     0.1584     0.9648     0.9648     0.0000

  Mayer bond orders larger than 0.100000
B(  0-C ,  1-C ) :   1.3313 B(  0-C ,  2-C ) :   1.2955 B(  0-C , 12-C ) :   1.0008 
B(  1-C ,  3-H ) :   0.9636 B(  1-C ,  5-C ) :   1.3923 B(  2-C ,  4-H ) :   0.9761 
B(  2-C ,  6-C ) :   1.4892 B(  5-C ,  7-H ) :   0.9618 B(  5-C ,  9-C ) :   1.3596 
B(  6-C ,  8-H ) :   0.9785 B(  6-C ,  9-C ) :   1.3458 B(  9-C , 10-O ) :   1.1389 
B( 10-O , 11-H ) :   0.8502 B( 12-C , 13-H ) :   0.9628 B( 12-C , 14-C ) :   1.8889 
B( 14-C , 15-H ) :   0.9466 B( 14-C , 16-H ) :   0.9573 

-------
TIMINGS
-------

Total SCF time: 0 days 0 hours 0 min 24 sec 

Total time                  ....      24.996 sec
Sum of individual times     ....      23.777 sec  ( 95.1%)

Fock matrix formation       ....      21.385 sec  ( 85.6%)
  Split-RI-J                ....       2.170 sec  ( 10.1% of F)
  Chain of spheres X        ....      10.056 sec  ( 47.0% of F)
  XC integration            ....       4.165 sec  ( 19.5% of F)
    Basis function eval.    ....       0.419 sec  ( 10.1% of XC)
    Density eval.           ....       0.408 sec  (  9.8% of XC)
    XC-Functional eval.     ....       0.072 sec  (  1.7% of XC)
    XC-Potential eval.      ....       0.440 sec  ( 10.6% of XC)
Diagonalization             ....       0.358 sec  (  1.4%)
Density matrix formation    ....       0.033 sec  (  0.1%)
Population analysis         ....       0.078 sec  (  0.3%)
Initial guess               ....       0.249 sec  (  1.0%)
Orbital Transformation      ....       0.000 sec  (  0.0%)
Orbital Orthonormalization  ....       0.000 sec  (  0.0%)
DIIS solution               ....       0.222 sec  (  0.9%)
SOSCF solution              ....       0.246 sec  (  1.0%)
Grid generation             ....       1.206 sec  (  4.8%)

Maximum memory used throughout the entire SCF-calculation: 79.7 MB


-------------------------------------------------------------------------------
                          DFT DISPERSION CORRECTION                            
                                                                               
                              DFTD3 V3.1  Rev 1                                
                          USING Becke-Johnson damping                          
-------------------------------------------------------------------------------
The PBE0 functional is recognized
Active option DFTDOPT                   ...         4   

molecular C6(AA) [au] = 3292.421944 


            DFT-D V3
 parameters
 s6 scaling factor         :     1.0000 
 a1 scaling factor         :     0.4145 
 s8 scaling factor         :     1.2177 
 a2 scaling factor         :     4.8593 
 ad hoc parameters k1-k3   :    16.0000     1.3333    -4.0000 

 Edisp/kcal,au: -9.458452973106  -0.015073002648 
 E6   /kcal   :  -5.899200082 
 E8   /kcal   :  -3.559252891 
 % E8         :  37.630391575 

-------------------------   ----------------
Dispersion correction           -0.015073003
-------------------------   ----------------


-------------------------   --------------------
FINAL SINGLE POINT ENERGY      -384.585888053943
-------------------------   --------------------



           ************************************************************
           *        Program running with 24 parallel MPI-processes    *
           *              working on a common directory               *
           ************************************************************
------------------------------------------------------------------------------
                         ORCA SCF GRADIENT CALCULATION
------------------------------------------------------------------------------

 ... reading COSX grid (gridx3)
Gradient of the Kohn-Sham DFT energy:
Kohn-Sham wavefunction type      ... RKS
Hartree-Fock exchange scaling    ...    0.250
Number of operators              ...    1
Number of atoms                  ...   17
Basis set dimensions             ...  327
Integral neglect threshold       ... 2.5e-11
Integral primitive cutoff        ... 2.5e-12
SHARK Integral package           ... ON

Nuc. rep. gradient       (SHARK) ... done (  0.0 sec)
HCore & Overlap gradient (SHARK) ... done (  0.0 sec)
RI-J gradient            (SHARK) ... done (  0.4 sec)
COSX-gradient                    ... done (  2.1 sec)
Exchange-correlation gradient    ... done
Dispersion correction            ... done

------------------
CARTESIAN GRADIENT
------------------

   1   C   :    0.000000138   -0.000207187    0.000022629
   2   C   :    0.000000014   -0.000101585    0.000146814
   3   C   :   -0.000000085    0.000293051    0.000109512
   4   H   :   -0.000000012    0.000022204   -0.000008021
   5   H   :    0.000000019   -0.000065491   -0.000026032
[...]
     26       0.126270   0.010486   0.287280  -0.355249  -0.202831   0.250659
     27      -0.000000   0.000000  -0.000000  -0.000000  -0.000001   0.000000
     28      -0.209269   0.006535  -0.123927   0.004019  -0.386398   0.092644
     29      -0.013254  -0.015090  -0.005929  -0.204933   0.019412   0.198520
     30       0.000000  -0.000000   0.000000   0.000000   0.000000  -0.000000
     31       0.050268   0.006680   0.049921   0.007773   0.053325  -0.017091
     32      -0.021307   0.002434  -0.014005   0.046644  -0.016455  -0.012526
     33       0.000000   0.000000   0.000000   0.000000   0.000000  -0.000000
     34      -0.202681  -0.010523  -0.102820  -0.025928  -0.121288   0.054197
     35       0.649214   0.048150   0.388241   0.130471   0.424725  -0.171027
     36      -0.000000   0.000000   0.000000   0.000000  -0.000000  -0.000000
     37      -0.001961  -0.043052   0.027343  -0.038948   0.041717   0.002193
     38      -0.039400  -0.113773  -0.008334   0.017142   0.089978   0.026090
     39       0.000000  -0.000001   0.000000  -0.000000  -0.000000  -0.000000
     40      -0.037984   0.137774  -0.090978  -0.026879   0.033500  -0.026428
     41      -0.111611   0.269793  -0.246858   0.057578   0.041261  -0.033893
     42      -0.000000   0.000000  -0.000000  -0.000000   0.000000  -0.000000
     43      -0.001986  -0.050239   0.045286   0.049250  -0.071621   0.007171
     44       0.011677  -0.006067   0.035643   0.034229  -0.067420   0.006347
     45       0.000000  -0.000001   0.000000  -0.000000  -0.000001  -0.000000
     46       0.035167   0.175932  -0.071994  -0.001308   0.019531   0.006080
     47       0.099519   0.545353  -0.263529  -0.110631   0.194528  -0.001275
     48      -0.000001  -0.000004   0.000001   0.000001  -0.000000   0.000000
     49       0.178174   0.701237  -0.247513  -0.143103   0.114196  -0.012292
     50       0.034367   0.088465   0.000153   0.019303  -0.053063   0.008368
                 42         43         44         45         46         47    
      0      -0.000000   0.000000  -0.000000   0.000000  -0.000000   0.000000
      1      -0.118805  -0.001295  -0.000125   0.000983  -0.001318   0.002194
      2      -0.074844  -0.000798  -0.001667   0.001647   0.001230   0.001764
      3      -0.000000   0.000000  -0.000000  -0.000000   0.000000  -0.000000
      4       0.044315   0.002354   0.001223  -0.052052   0.004010  -0.051313
      5      -0.017913  -0.001830  -0.000365   0.030570  -0.003221   0.035159
      6       0.000000  -0.000000   0.000000  -0.000000   0.000000  -0.000000
      7       0.041596   0.001408  -0.006114   0.003406   0.061675  -0.000693
      8      -0.021584   0.000114  -0.002989   0.000919   0.028450  -0.001071
      9       0.000000   0.000000  -0.000000   0.000000  -0.000000   0.000000
     10       0.033317  -0.025318  -0.011496   0.598355  -0.049521   0.587304
     11      -0.045306   0.019163   0.008600  -0.377401   0.032411  -0.375029
     12       0.000000  -0.000000   0.000000  -0.000000  -0.000001  -0.000000
     13       0.052169  -0.010345   0.068323  -0.036845  -0.712671   0.010708
     14      -0.026797  -0.004734   0.032511  -0.017079  -0.349094   0.006408
     15       0.000000  -0.000000   0.000000   0.000000   0.000000  -0.000000
     16      -0.044443  -0.000220   0.000050   0.054281  -0.001202  -0.055690
     17       0.061864   0.000212   0.000032   0.025372  -0.000655  -0.030451
     18       0.000000  -0.000000   0.000000  -0.000000  -0.000000   0.000000
     19      -0.020923  -0.000366   0.000772  -0.002686  -0.043425  -0.004611
     20       0.017458   0.000240  -0.000328   0.001166   0.025671   0.003568
     21      -0.000000   0.000000  -0.000000  -0.000001  -0.000000   0.000001
     22       0.029779   0.003421   0.001033  -0.624769   0.014537   0.630984
     23      -0.087866   0.001970   0.000925  -0.313389   0.007612   0.321314
     24       0.000000  -0.000000  -0.000000   0.000000   0.000000   0.000000
     25      -0.019958   0.003920  -0.010392   0.029396   0.498815   0.055352
     26       0.020148  -0.002131   0.006816  -0.018201  -0.321925  -0.036700
     27      -0.000000   0.000000  -0.000000   0.000000  -0.000000   0.000000
     28       0.054799   0.000086   0.000080  -0.001281   0.001226   0.002679
     29      -0.036446  -0.000212  -0.000076   0.002053   0.001207  -0.002661
     30       0.000000  -0.000000   0.000000  -0.000000   0.000000  -0.000000
     31      -0.005266  -0.000029  -0.000010   0.000123  -0.000154  -0.000396
     32       0.009623   0.000119   0.000042  -0.000109  -0.000037   0.000398
     33       0.000000   0.000000  -0.000000   0.000000   0.000000  -0.000000
     34       0.014074   0.000530   0.000137  -0.001060   0.000902   0.002825
     35      -0.036614   0.000183  -0.000025  -0.005780  -0.000620   0.005313
     36      -0.000001   0.000000   0.000000   0.000000   0.000000   0.000000
     37       0.297144  -0.066030  -0.041329  -0.002058  -0.001859  -0.001669
     38       0.314866   0.031988   0.011123   0.001086   0.000745   0.000874
     39      -0.000000  -0.000004  -0.000002  -0.000000  -0.000000  -0.000000
     40      -0.028982   0.789689   0.411025   0.024964   0.021052   0.018432
     41      -0.460545  -0.372027  -0.190908  -0.014069  -0.010747  -0.010733
     42       0.000001   0.000000  -0.000000   0.000000  -0.000000   0.000000
     43      -0.279004  -0.019738   0.057205   0.000415   0.001523   0.000319
     44      -0.227681  -0.021261   0.027688  -0.000394   0.005787  -0.000669
     45       0.000000  -0.000002   0.000004  -0.000000   0.000000  -0.000000
     46      -0.053102   0.283414  -0.665405  -0.003482  -0.024507  -0.002156
     47       0.496391  -0.112944   0.260472   0.001580   0.011057   0.001000
     48      -0.000002   0.000000  -0.000000  -0.000000  -0.000000  -0.000000
     49       0.358016  -0.046311   0.066766  -0.000507   0.008026  -0.000935
     50      -0.199488   0.367901  -0.517238   0.002307  -0.073695   0.004510
                 48         49         50    
      0      -0.000000  -0.000000   0.000000
      1      -0.001587   0.000177   0.000002
      2       0.001493   0.000695   0.000221
      3      -0.000000   0.000000   0.000000
      4      -0.003612   0.000203  -0.000113
      5       0.002019  -0.000257  -0.000219
      6       0.000000   0.000000   0.000000
      7       0.046424   0.004583  -0.000091
      8       0.025823   0.002399  -0.000143
      9      -0.000000  -0.000000   0.000000
     10       0.037870  -0.003328  -0.000617
     11      -0.023380   0.001879   0.000920
     12      -0.000001  -0.000000   0.000000
     13      -0.530435  -0.055144   0.000717
     14      -0.263467  -0.026808   0.000226
     15       0.000000  -0.000000  -0.000000
     16      -0.003431  -0.000156   0.000623
     17      -0.001361  -0.000008   0.000935
     18       0.000000  -0.000000  -0.000000
     19       0.058642   0.000644   0.000711
     20      -0.040099  -0.000635   0.000646
     21      -0.000000  -0.000000  -0.000000
     22       0.036521   0.001147  -0.003558
     23       0.018181   0.000505  -0.002904
     24      -0.000001  -0.000000   0.000000
     25      -0.667157  -0.007416   0.000344
     26       0.435085   0.004889   0.000040
     27      -0.000000   0.000000  -0.000000
     28      -0.002666  -0.000040  -0.002166
     29      -0.002673  -0.000070  -0.000650
     30      -0.000000  -0.000000  -0.000000
     31       0.000255   0.000000  -0.058089
     32       0.000361   0.000017  -0.022130
     33      -0.000000   0.000000   0.000001
     34       0.000325   0.000069   0.936831
     35       0.002316   0.000052   0.344171
     36       0.000000  -0.000000  -0.000000
     37      -0.001344   0.009593   0.000025
     38       0.000765  -0.004112  -0.000180
     39      -0.000000   0.000000   0.000000
     40       0.017428  -0.096093  -0.000408
     41      -0.009681   0.044434   0.000267
     42       0.000000  -0.000000  -0.000000
     43      -0.000444   0.054293   0.000052
     44       0.004522  -0.082020   0.000106
     45       0.000000   0.000003   0.000000
     46      -0.000122  -0.586952   0.000003
     47       0.001485   0.215443  -0.000019
     48      -0.000000   0.000001   0.000000
     49       0.005495  -0.078026   0.000090
     50      -0.052950   0.760334   0.000001


-----------
IR SPECTRUM
-----------

 Mode   freq       eps      Int      T**2         TX        TY        TZ
       cm**-1   L/(mol*cm) km/mol    a.u.
----------------------------------------------------------------------------
  6:     47.12   0.000047    0.24  0.000312  ( 0.017672  0.000001  0.000004)
  7:    148.82   0.000274    1.39  0.000575  ( 0.023990 -0.000001  0.000002)
  8:    212.52   0.000036    0.18  0.000053  ( 0.000000  0.006963 -0.002195)
  9:    321.17   0.000480    2.43  0.000467  ( 0.021607  0.000002  0.000005)
 10:    377.56   0.036454  184.22  0.030131  ( 0.173582  0.000000  0.000001)
 11:    395.37   0.001143    5.77  0.000902  ( 0.000000 -0.000875 -0.030017)
 12:    421.67   0.000009    0.04  0.000007  ( 0.002563 -0.000003 -0.000006)
 13:    433.84   0.004565   23.07  0.003284  ( 0.000000 -0.009403 -0.056528)
 14:    504.59   0.006243   31.55  0.003861  (-0.062137 -0.000002 -0.000000)
 15:    534.25   0.002323   11.74  0.001357  (-0.000001 -0.004478 -0.036562)
 16:    653.72   0.000063    0.32  0.000030  ( 0.000000  0.005152 -0.001857)
 17:    660.39   0.000305    1.54  0.000144  ( 0.012009  0.000000  0.000004)
 18:    744.48   0.002867   14.49  0.001202  ( 0.000000 -0.001359  0.034637)
 19:    770.43   0.000073    0.37  0.000030  (-0.005439 -0.000000  0.000001)
 20:    828.99   0.000710    3.59  0.000267  ( 0.016354 -0.000001 -0.000001)
 21:    862.34   0.021962  110.99  0.007948  ( 0.089149 -0.000002  0.000010)
 22:    863.36   0.004735   23.93  0.001711  (-0.000030  0.003782  0.041196)
 23:    928.00   0.015891   80.31  0.005344  (-0.073102 -0.000002 -0.000000)
 24:    961.98   0.000009    0.04  0.000003  (-0.001682 -0.000000 -0.000003)
 25:    975.15   0.000000    0.00  0.000000  (-0.000046 -0.000000 -0.000001)
 26:   1029.76   0.000343    1.73  0.000104  (-0.000001 -0.001938 -0.010014)
 27:   1034.09   0.005334   26.96  0.001610  ( 0.040122  0.000001 -0.000000)
 28:   1042.38   0.000291    1.47  0.000087  (-0.000000  0.000010  0.009332)
 29:   1132.02   0.005095   25.75  0.001405  (-0.000000 -0.034192 -0.015346)
 30:   1187.30   0.029251  147.82  0.007688  (-0.000000  0.007900  0.087325)
 31:   1196.96   0.043459  219.62  0.011330  (-0.000000  0.006618 -0.106238)
 32:   1239.48   0.002173   10.98  0.000547  ( 0.000000 -0.009413 -0.021413)
 33:   1308.99   0.048244  243.81  0.011501  (-0.000000 -0.012151 -0.106554)
 34:   1318.44   0.000390    1.97  0.000092  (-0.000000 -0.006287 -0.007268)
 35:   1350.17   0.005111   25.83  0.001181  (-0.000000 -0.013320  0.031683)
 36:   1386.02   0.003959   20.01  0.000891  ( 0.000000  0.009593  0.028271)
 37:   1445.63   0.001692    8.55  0.000365  (-0.000000  0.012661 -0.014314)
 38:   1479.64   0.000529    2.67  0.000112  ( 0.000000 -0.002308  0.010305)
 39:   1553.70   0.048140  243.28  0.009669  (-0.000000 -0.010254 -0.097795)
 40:   1645.81   0.009220   46.60  0.001748  (-0.000000 -0.013163  0.039687)
 41:   1671.00   0.035706  180.45  0.006668  ( 0.000000  0.013130  0.080597)
 42:   1698.36   0.008937   45.16  0.001642  (-0.000000  0.026454  0.030697)
 43:   3149.60   0.003927   19.84  0.000389  ( 0.000000 -0.015615  0.012051)
 44:   3157.72   0.000520    2.63  0.000051  (-0.000000  0.001889  0.006914)
 45:   3181.52   0.003040   15.36  0.000298  (-0.000000 -0.003296  0.016949)
 46:   3194.48   0.001564    7.91  0.000153  ( 0.000000  0.005995  0.010811)
 47:   3196.18   0.001834    9.27  0.000179  (-0.000000 -0.013021 -0.003091)
 48:   3209.79   0.001156    5.84  0.000112  ( 0.000000  0.008679 -0.006086)
 49:   3243.40   0.002018   10.20  0.000194  (-0.000000  0.009180 -0.010484)
 50:   3817.27   0.045599  230.44  0.003728  ( 0.000000  0.040078  0.046060)

* The epsilon (eps) is given for a Dirac delta lineshape.
** The dipole moment derivative (T) already includes vibrational overlap.

The first frequency considered to be a vibration is 6
The total number of vibrations considered is 45


--------------------------
THERMOCHEMISTRY AT 298.15K
--------------------------

Temperature         ... 298.15 K
Pressure            ... 1.00 atm
Total Mass          ... 120.15 AMU

Throughout the following assumptions are being made:
  (1) The electronic state is orbitally nondegenerate
  (2) There are no thermally accessible electronically excited states
  (3) Hindered rotations indicated by low frequency modes are not
      treated as such but are treated as vibrations and this may
      cause some error
  (4) All equations used are the standard statistical mechanics
      equations for an ideal gas
  (5) All vibrations are strictly harmonic

freq.      47.12  E(vib)   ...       0.53 
freq.     148.82  E(vib)   ...       0.41 
freq.     212.52  E(vib)   ...       0.34 
freq.     321.17  E(vib)   ...       0.25 
freq.     377.56  E(vib)   ...       0.21 
freq.     395.37  E(vib)   ...       0.20 
freq.     421.67  E(vib)   ...       0.18 
freq.     433.84  E(vib)   ...       0.17 
freq.     504.59  E(vib)   ...       0.14 
freq.     534.25  E(vib)   ...       0.13 
freq.     653.72  E(vib)   ...       0.08 
freq.     660.39  E(vib)   ...       0.08 
freq.     744.48  E(vib)   ...       0.06 
freq.     770.43  E(vib)   ...       0.05 
freq.     828.99  E(vib)   ...       0.04 
freq.     862.34  E(vib)   ...       0.04 
freq.     863.36  E(vib)   ...       0.04 
freq.     928.00  E(vib)   ...       0.03 
freq.     961.98  E(vib)   ...       0.03 
freq.     975.15  E(vib)   ...       0.03 
freq.    1029.76  E(vib)   ...       0.02 
freq.    1034.09  E(vib)   ...       0.02 
freq.    1042.38  E(vib)   ...       0.02 
freq.    1132.02  E(vib)   ...       0.01 
freq.    1187.30  E(vib)   ...       0.01 
freq.    1196.96  E(vib)   ...       0.01 
freq.    1239.48  E(vib)   ...       0.01 
freq.    1308.99  E(vib)   ...       0.01 
freq.    1318.44  E(vib)   ...       0.01 
freq.    1350.17  E(vib)   ...       0.01 
freq.    1386.02  E(vib)   ...       0.00 
freq.    1445.63  E(vib)   ...       0.00 
freq.    1479.64  E(vib)   ...       0.00 
freq.    1553.70  E(vib)   ...       0.00 
freq.    1645.81  E(vib)   ...       0.00 
freq.    1671.00  E(vib)   ...       0.00 
freq.    1698.36  E(vib)   ...       0.00 
freq.    3149.60  E(vib)   ...       0.00 
freq.    3157.72  E(vib)   ...       0.00 
freq.    3181.52  E(vib)   ...       0.00 
freq.    3194.48  E(vib)   ...       0.00 
freq.    3196.18  E(vib)   ...       0.00 
freq.    3209.79  E(vib)   ...       0.00 
freq.    3243.40  E(vib)   ...       0.00 
freq.    3817.27  E(vib)   ...       0.00 

------------
INNER ENERGY
------------

The inner energy is: U= E(el) + E(ZPE) + E(vib) + E(rot) + E(trans)
    E(el)   - is the total energy from the electronic structure calculation
              = E(kin-el) + E(nuc-el) + E(el-el) + E(nuc-nuc)
    E(ZPE)  - the the zero temperature vibrational energy from the frequency calculation
    E(vib)  - the the finite temperature correction to E(ZPE) due to population
              of excited vibrational states
    E(rot)  - is the rotational thermal energy
    E(trans)- is the translational thermal energy

Summary of contributions to the inner energy U:
Electronic energy                ...   -384.58588898 Eh
Zero point energy                ...      0.13786437 Eh      86.51 kcal/mol
Thermal vibrational correction   ...      0.00505561 Eh       3.17 kcal/mol
Thermal rotational correction    ...      0.00141627 Eh       0.89 kcal/mol
Thermal translational correction ...      0.00141627 Eh       0.89 kcal/mol
-----------------------------------------------------------------------
Total thermal energy                   -384.44013645 Eh


Summary of corrections to the electronic energy:
(perhaps to be used in another calculation)
Total thermal correction                  0.00788816 Eh       4.95 kcal/mol
Non-thermal (ZPE) correction              0.13786437 Eh      86.51 kcal/mol
-----------------------------------------------------------------------
Total correction                          0.14575253 Eh      91.46 kcal/mol


--------
ENTHALPY
--------

The enthalpy is H = U + kB*T
                kB is Boltzmann's constant
Total free energy                 ...   -384.44013645 Eh 
Thermal Enthalpy correction       ...      0.00094421 Eh       0.59 kcal/mol
-----------------------------------------------------------------------
Total Enthalpy                    ...   -384.43919224 Eh


Note: Rotational entropy computed according to Herzberg 
Infrared and Raman Spectra, Chapter V,1, Van Nostrand Reinhold, 1945 
Point Group:  Cs, Symmetry Number:   1  
Rotational constants in cm-1:     0.169759     0.033241     0.027798 

Vibrational entropy computed according to the QRRHO of S. Grimme
Chem.Eur.J. 2012 18 9955


-------
ENTROPY
-------

The entropy contributions are T*S = T*(S(el)+S(vib)+S(rot)+S(trans))
     S(el)   - electronic entropy
     S(vib)  - vibrational entropy
     S(rot)  - rotational entropy
     S(trans)- translational entropy
The entropies will be listed as multiplied by the temperature to get
units of energy

Electronic entropy                ...      0.00000000 Eh      0.00 kcal/mol
Vibrational entropy               ...      0.00820527 Eh      5.15 kcal/mol
Rotational entropy                ...      0.01364638 Eh      8.56 kcal/mol
Translational entropy             ...      0.01913124 Eh     12.01 kcal/mol
-----------------------------------------------------------------------
Final entropy term                ...      0.04098289 Eh     25.72 kcal/mol

In case the symmetry of your molecule has not been determined correctly
or in case you have a reason to use a different symmetry number we print 
out the resulting rotational entropy values for sn=1,12 :
 --------------------------------------------------------
|  sn= 1 | S(rot)=       0.01364638 Eh      8.56 kcal/mol|
|  sn= 2 | S(rot)=       0.01299192 Eh      8.15 kcal/mol|
|  sn= 3 | S(rot)=       0.01260909 Eh      7.91 kcal/mol|
|  sn= 4 | S(rot)=       0.01233747 Eh      7.74 kcal/mol|
|  sn= 5 | S(rot)=       0.01212678 Eh      7.61 kcal/mol|
|  sn= 6 | S(rot)=       0.01195463 Eh      7.50 kcal/mol|
|  sn= 7 | S(rot)=       0.01180909 Eh      7.41 kcal/mol|
|  sn= 8 | S(rot)=       0.01168301 Eh      7.33 kcal/mol|
|  sn= 9 | S(rot)=       0.01157180 Eh      7.26 kcal/mol|
|  sn=10 | S(rot)=       0.01147232 Eh      7.20 kcal/mol|
|  sn=11 | S(rot)=       0.01138233 Eh      7.14 kcal/mol|
|  sn=12 | S(rot)=       0.01130018 Eh      7.09 kcal/mol|
 --------------------------------------------------------


-------------------
GIBBS FREE ENERGY
-------------------

The Gibbs free energy is G = H - T*S

Total enthalpy                    ...   -384.43919224 Eh 
Total entropy correction          ...     -0.04098289 Eh    -25.72 kcal/mol
-----------------------------------------------------------------------
Final Gibbs free energy         ...   -384.48017514 Eh

For completeness - the Gibbs free energy minus the electronic energy
G-E(el)                           ...      0.10571385 Eh     66.34 kcal/mol


Timings for individual modules:

Sum of individual times         ...      257.131 sec (=   4.286 min)
GTO integral calculation        ...        3.709 sec (=   0.062 min)   1.4 %
SCF iterations                  ...       52.712 sec (=   0.879 min)  20.5 %
SCF Gradient evaluation         ...       10.948 sec (=   0.182 min)   4.3 %
Geometry relaxation             ...        0.179 sec (=   0.003 min)   0.1 %
Analytical frequency calculation...      189.584 sec (=   3.160 min)  73.7 %
                             ****ORCA TERMINATED NORMALLY****
TOTAL RUN TIME: 0 days 0 hours 4 minutes 23 seconds 618 msec
