
                                 *****************
                                 * O   R   C   A *
                                 *****************

                                            #,                                       
                                            ###                                      
                                            ####                                     
                                            #####                                    
                                            ######                                   
                                           ########,                                 
                                     ,,################,,,,,                         
                               ,,#################################,,                 
                          ,,##########################################,,             
                       ,#########################################, ''#####,          
                    ,#############################################,,   '####,        
                  ,##################################################,,,,####,       
                ,###########''''           ''''###############################       
              ,#####''   ,,,,##########,,,,          '''####'''          '####       
            ,##' ,,,,###########################,,,                        '##       
           ' ,,###''''                  '''############,,,                           
         ,,##''                                '''############,,,,        ,,,,,,###''
      ,#''                                            '''#######################'''  
     '                                                          ''''####''''         
             ,#######,   #######,   ,#######,      ##                                
            ,#'     '#,  ##    ##  ,#'     '#,    #''#        ######   ,####,        
            ##       ##  ##   ,#'  ##            #'  '#       #        #'  '#        
            ##       ##  #######   ##           ,######,      #####,   #    #        
            '#,     ,#'  ##    ##  '#,     ,#' ,#      #,         ##   #,  ,#        
             '#######'   ##     ##  '#######'  #'      '#     #####' # '####'        



                  #######################################################
                  #                        -***-                        #
                  #          Department of theory and spectroscopy      #
                  #    Directorship and core code : Frank Neese         #
                  #        Max Planck Institute fuer Kohlenforschung    #
                  #                Kaiser Wilhelm Platz 1               #
                  #                 D-45470 Muelheim/Ruhr               #
                  #                      Germany                        #
                  #                                                     #
                  #                  All rights reserved                #
                  #                        -***-                        #
                  #######################################################


                         Program Version 5.0.4 -  RELEASE  -


 With contributions from (in alphabetic order):
   Daniel Aravena         : Magnetic Suceptibility
   Michael Atanasov       : Ab Initio Ligand Field Theory (pilot matlab implementation)
   Alexander A. Auer      : GIAO ZORA, VPT2 properties, NMR spectrum
   Ute Becker             : Parallelization
   Giovanni Bistoni       : ED, misc. LED, open-shell LED, HFLD
   Martin Brehm           : Molecular dynamics
   Dmytro Bykov           : SCF Hessian
   Vijay G. Chilkuri      : MRCI spin determinant printing, contributions to CSF-ICE
   Dipayan Datta          : RHF DLPNO-CCSD density
   Achintya Kumar Dutta   : EOM-CC, STEOM-CC
   Dmitry Ganyushin       : Spin-Orbit,Spin-Spin,Magnetic field MRCI
   Miquel Garcia          : C-PCM and meta-GGA Hessian, CC/C-PCM, Gaussian charge scheme
   Yang Guo               : DLPNO-NEVPT2, F12-NEVPT2, CIM, IAO-localization
   Andreas Hansen         : Spin unrestricted coupled pair/coupled cluster methods
   Benjamin Helmich-Paris : MC-RPA, TRAH-SCF, COSX integrals
   Lee Huntington         : MR-EOM, pCC
   Robert Izsak           : Overlap fitted RIJCOSX, COSX-SCS-MP3, EOM
   Marcus Kettner         : VPT2
   Christian Kollmar      : KDIIS, OOCD, Brueckner-CCSD(T), CCSD density, CASPT2, CASPT2-K
   Simone Kossmann        : Meta GGA functionals, TD-DFT gradient, OOMP2, MP2 Hessian
   Martin Krupicka        : Initial AUTO-CI
   Lucas Lang             : DCDCAS
   Marvin Lechner         : AUTO-CI (C++ implementation), FIC-MRCC
   Dagmar Lenk            : GEPOL surface, SMD
   Dimitrios Liakos       : Extrapolation schemes; Compound Job, initial MDCI parallelization
   Dimitrios Manganas     : Further ROCIS development; embedding schemes
   Dimitrios Pantazis     : SARC Basis sets
   Anastasios Papadopoulos: AUTO-CI, single reference methods and gradients
   Taras Petrenko         : DFT Hessian,TD-DFT gradient, ASA, ECA, R-Raman, ABS, FL, XAS/XES, NRVS
   Peter Pinski           : DLPNO-MP2, DLPNO-MP2 Gradient
   Christoph Reimann      : Effective Core Potentials
   Marius Retegan         : Local ZFS, SOC
   Christoph Riplinger    : Optimizer, TS searches, QM/MM, DLPNO-CCSD(T), (RO)-DLPNO pert. Triples
   Tobias Risthaus        : Range-separated hybrids, TD-DFT gradient, RPA, STAB
   Michael Roemelt        : Original ROCIS implementation
   Masaaki Saitow         : Open-shell DLPNO-CCSD energy and density
   Barbara Sandhoefer     : DKH picture change effects
   Avijit Sen             : IP-ROCIS
   Kantharuban Sivalingam : CASSCF convergence, NEVPT2, FIC-MRCI
   Bernardo de Souza      : ESD, SOC TD-DFT
   Georgi Stoychev        : AutoAux, RI-MP2 NMR, DLPNO-MP2 response
   Willem Van den Heuvel  : Paramagnetic NMR
   Boris Wezisla          : Elementary symmetry handling
   Frank Wennmohs         : Technical directorship


 We gratefully acknowledge several colleagues who have allowed us to
 interface, adapt or use parts of their codes:
   Stefan Grimme, W. Hujo, H. Kruse, P. Pracht,  : VdW corrections, initial TS optimization,
                  C. Bannwarth, S. Ehlert          DFT functionals, gCP, sTDA/sTD-DF
   Ed Valeev, F. Pavosevic, A. Kumar             : LibInt (2-el integral package), F12 methods
   Garnet Chan, S. Sharma, J. Yang, R. Olivares  : DMRG
   Ulf Ekstrom                                   : XCFun DFT Library
   Mihaly Kallay                                 : mrcc  (arbitrary order and MRCC methods)
   Jiri Pittner, Ondrej Demel                    : Mk-CCSD
   Frank Weinhold                                : gennbo (NPA and NBO analysis)
   Christopher J. Cramer and Donald G. Truhlar   : smd solvation model
   Lars Goerigk                                  : TD-DFT with DH, B97 family of functionals
   V. Asgeirsson, H. Jonsson                     : NEB implementation
   FAccTs GmbH                                   : IRC, NEB, NEB-TS, DLPNO-Multilevel, CI-OPT
                                                   MM, QMMM, 2- and 3-layer-ONIOM, Crystal-QMMM,
                                                   LR-CPCM, SF, NACMEs, symmetry and pop. for TD-DFT,
                                                   nearIR, NL-DFT gradient (VV10), updates on ESD,
                                                   ML-optimized integration grids
   S Lehtola, MJT Oliveira, MAL Marques          : LibXC Library
   Liviu Ungur et al                             : ANISO software


 Your calculation uses the libint2 library for the computation of 2-el integrals
 For citations please refer to: http://libint.valeyev.net

 Your ORCA version has been built with support for libXC version: 5.1.0
 For citations please refer to: https://tddft.org/programs/libxc/

 This ORCA versions uses:
   CBLAS   interface :  Fast vector & matrix operations
   LAPACKE interface :  Fast linear algebra routines
   SCALAPACK package :  Parallel linear algebra routines
   Shared memory     :  Shared parallel matrices
   BLAS/LAPACK       :  OpenBLAS 0.3.15  USE64BITINT DYNAMIC_ARCH NO_AFFINITY Haswell SINGLE_THREADED
        Core in use  :  Haswell
   Copyright (c) 2011-2014, The OpenBLAS Project


Your calculation utilizes the atom-pairwise dispersion correction
with the Becke-Johnson damping scheme (D3BJ)
Cite in your paper:
S.Grimme, S.Ehrlich, L.Goerigk, J Comput Chem, (2011), 32, 1456–1465 
S.Grimme, J.Antony, S.Ehrlich and H.Krieg, J.Chem.Phys., 132, (2010), 154104 
   

================================================================================

----- Orbital basis set information -----
Your calculation utilizes the basis: def2-TZVP
   F. Weigend and R. Ahlrichs, Phys. Chem. Chem. Phys. 7, 3297 (2005).

----- AuxJ basis set information -----
Your calculation utilizes the auxiliary basis: def2/J
   F. Weigend, Phys. Chem. Chem. Phys. 8, 1057 (2006).

================================================================================
                                        WARNINGS
                       Please study these warnings very carefully!
================================================================================


WARNING: Geometry Optimization
  ===> : Switching off AutoStart
         For restart on a previous wavefunction, please use MOREAD

INFO   : the flag for use of the SHARK integral package has been found!

================================================================================
                                       INPUT FILE
================================================================================
NAME = CHCHCO2Me-PhenOH/CHCHCO2Me-PhenOH.inp
|  1> %pal nprocs 24 end
|  2> %maxcore 3500
|  3> ! PBE0 D3BJ def2-TZVP TightSCF OPT FREQ TightOpt
|  4> ! CPCM(dmso)
|  5> %scf
|  6> MaxIter 800
|  7> end
|  8> %geom
|  9> MaxIter 800
| 10> MaxStep 0.2
| 11> end
| 12> *xyz 0 1
| 13> 
| 14> C       0.00006400     -0.60216600     -1.62901300
| 15> C       0.00000500      0.63432000     -0.97634600
| 16> C       0.00006400     -1.76050900     -0.83954700
| 17> H       0.00000700      1.54339400     -1.56855200
| 18> H       0.00011300     -2.73754000     -1.30899200
| 19> C      -0.00006900      0.72346100      0.40256400
| 20> C      -0.00000700     -1.68628400      0.53592100
| 21> H      -0.00012100      1.69054000      0.89486000
| 22> H      -0.00001200     -2.58520000      1.14133000
| 23> C      -0.00007200     -0.44008600      1.16584700
| 24> O      -0.00014200     -0.42151900      2.51344300
| 25> H      -0.00018500      0.49029700      2.82960300
| 26> C       0.00013600     -0.62179400     -3.07622600
| 27> H       0.00012600      0.35466300     -3.55592800
| 28> C       0.00021900     -1.69256300     -3.88284900
| 29> H       0.00023800     -2.71063400     -3.51297300
| 30> C       0.00029700     -1.51875400     -5.33463100
| 31> O       0.00005900     -0.46098300     -5.93065700
| 32> O       0.00008400     -2.70259200     -5.96051400
| 33> C      -0.00015600     -2.65738900     -7.38628500
| 34> H      -0.89012400     -2.14422400     -7.75277900
| 35> H       0.88978200     -2.14438600     -7.75308100
| 36> H      -0.00030600     -3.69366800     -7.71569600
| 37> *
| 38> 
| 39>                          ****END OF INPUT****
================================================================================

                       *****************************
                       * Geometry Optimization Run *
                       *****************************

Geometry optimization settings:
Update method            Update   .... BFGS
Choice of coordinates    CoordSys .... Z-matrix Internals
Initial Hessian          InHess   .... Almoef's Model

Convergence Tolerances:
Energy Change            TolE     ....  1.0000e-06 Eh
Max. Gradient            TolMAXG  ....  1.0000e-04 Eh/bohr
RMS Gradient             TolRMSG  ....  3.0000e-05 Eh/bohr
Max. Displacement        TolMAXD  ....  1.0000e-03 bohr
RMS Displacement         TolRMSD  ....  6.0000e-04 bohr
Strict Convergence                ....  False
------------------------------------------------------------------------------
                        ORCA OPTIMIZATION COORDINATE SETUP
------------------------------------------------------------------------------

The optimization will be done in new redundant internal coordinates
Making redundant internal coordinates   ...  (new redundants) done
Evaluating the initial hessian          ...  (Almloef) done
Evaluating the coordinates              ...  done
Calculating the B-matrix                .... done
Calculating the G-matrix                .... done
Diagonalizing the G-matrix              .... done
Small eigenvalue found = 5.241e-03
Small eigenvalue found = 2.366e-02
The first mode is                       ....   38
The number of degrees of freedom        ....   63

    -----------------------------------------------------------------
                    Redundant Internal Coordinates


    -----------------------------------------------------------------
         Definition                    Initial Value    Approx d2E/dq
    -----------------------------------------------------------------
      1. B(C   1,C   0)                  1.3982         0.606329   
      2. B(C   2,C   0)                  1.4018         0.598313   
      3. B(H   3,C   1)                  1.0850         0.366839   
      4. B(H   4,C   2)                  1.0840         0.368180   
      5. B(C   5,C   1)                  1.3818         0.643932   
      6. B(C   6,C   2)                  1.3775         0.654230   
      7. B(H   7,C   5)                  1.0852         0.366545   
      8. B(H   8,C   6)                  1.0838         0.368429   
      9. B(C   9,C   6)                  1.3964         0.610372   
     10. B(C   9,C   5)                  1.3916         0.621223   
     11. B(O  10,C   9)                  1.3477         0.653618   
     12. B(H  11,O  10)                  0.9651         0.510356   
     13. B(C  12,C   0)                  1.4473         0.506112   
     14. B(H  13,C  12)                  1.0879         0.362855   
     15. B(C  14,C  12)                  1.3406         0.749145   
     16. B(H  15,C  14)                  1.0832         0.369237   
     17. B(C  16,C  14)                  1.4621         0.479324   
     18. B(O  17,C  16)                  1.2141         1.067714   
     19. B(O  18,C  16)                  1.3391         0.674645   
     20. B(C  19,O  18)                  1.4265         0.489398   
     21. B(H  20,C  19)                  1.0907         0.359131   
     22. B(H  21,C  19)                  1.0907         0.359130   
     23. B(H  22,C  19)                  1.0874         0.363588   
     24. A(C   1,C   0,C   2)          117.8968         0.429573   
     25. A(C   2,C   0,C  12)          123.4993         0.415928   
     26. A(C   1,C   0,C  12)          118.6039         0.416914   
     27. A(C   0,C   1,C   5)          121.5257         0.435285   
     28. A(H   3,C   1,C   5)          119.3830         0.356300   
     29. A(C   0,C   1,H   3)          119.0913         0.352685   
     30. A(C   0,C   2,C   6)          121.1874         0.435485   
     31. A(H   4,C   2,C   6)          118.7523         0.357484   
     32. A(C   0,C   2,H   4)          120.0603         0.352109   
     33. A(H   7,C   5,C   9)          119.7567         0.354089   
     34. A(C   1,C   5,C   9)          119.5659         0.437192   
     35. A(C   1,C   5,H   7)          120.6774         0.356252   
     36. A(H   8,C   6,C   9)          119.2246         0.353340   
     37. A(C   2,C   6,C   9)          119.9045         0.437054   
     38. A(C   2,C   6,H   8)          120.8709         0.357525   
     39. A(C   5,C   9,O  10)          122.4754         0.435496   
     40. A(C   5,C   9,C   6)          119.9197         0.432999   
     41. A(C   6,C   9,O  10)          117.6050         0.434117   
     42. A(C   9,O  10,H  11)          109.9127         0.372299   
     43. A(H  13,C  12,C  14)          116.8454         0.364932   
     44. A(C   0,C  12,C  14)          127.7682         0.432994   
     45. A(C   0,C  12,H  13)          115.3864         0.341495   
     46. A(H  15,C  14,C  16)          116.7936         0.339392   
     47. A(C  12,C  14,C  16)          120.1641         0.428786   
     48. A(C  12,C  14,H  15)          123.0422         0.366023   
     49. A(O  17,C  16,O  18)          122.7349         0.480254   
     50. A(C  14,C  16,O  18)          111.0379         0.418094   
     51. A(C  14,C  16,O  17)          126.2271         0.454130   
     52. A(C  16,O  18,C  19)          116.0490         0.416927   
     53. A(O  18,C  19,H  21)          110.5412         0.336941   
     54. A(O  18,C  19,H  20)          110.5414         0.336942   
     55. A(H  21,C  19,H  22)          110.2713         0.291157   
     56. A(H  20,C  19,H  22)          110.2713         0.291157   
     57. A(O  18,C  19,H  22)          105.8184         0.337635   
     58. A(H  20,C  19,H  21)          109.3571         0.290593   
     59. D(H   3,C   1,C   0,C   2)    179.9998         0.025373   
     60. D(C   5,C   1,C   0,C  12)    179.9998         0.025373   
     61. D(H   3,C   1,C   0,C  12)      0.0005         0.025373   
     62. D(C   5,C   1,C   0,C   2)     -0.0008         0.025373   
     63. D(H   4,C   2,C   0,C  12)     -0.0004         0.024671   
     64. D(C   6,C   2,C   0,C   1)      0.0007         0.024671   
     65. D(C   6,C   2,C   0,C  12)   -180.0000         0.024671   
     66. D(H   4,C   2,C   0,C   1)   -179.9997         0.024671   
     67. D(C   9,C   5,C   1,H   3)    180.0000         0.028833   
     68. D(C   9,C   5,C   1,C   0)      0.0006         0.028833   
     69. D(H   7,C   5,C   1,H   3)     -0.0002         0.028833   
     70. D(H   7,C   5,C   1,C   0)   -179.9996         0.028833   
     71. D(H   8,C   6,C   2,H   4)      0.0001         0.029829   
     72. D(C   9,C   6,C   2,C   0)     -0.0004         0.029829   
     73. D(H   8,C   6,C   2,C   0)    179.9997         0.029829   
     74. D(C   9,C   6,C   2,H   4)   -180.0000         0.029829   
     75. D(O  10,C   9,C   6,H   8)     -0.0002         0.025732   
     76. D(C   5,C   9,C   6,H   8)   -179.9999         0.025732   
     77. D(C   5,C   9,C   6,C   2)      0.0002         0.025732   
     78. D(O  10,C   9,C   5,H   7)      0.0002         0.026711   
     79. D(O  10,C   9,C   5,C   1)    180.0000         0.026711   
     80. D(O  10,C   9,C   6,C   2)    179.9999         0.025732   
     81. D(C   6,C   9,C   5,H   7)    179.9999         0.026711   
     82. D(C   6,C   9,C   5,C   1)     -0.0003         0.026711   
     83. D(H  11,O  10,C   9,C   6)   -179.9998         0.031602   
     84. D(H  11,O  10,C   9,C   5)     -0.0001         0.031602   
     85. D(C  14,C  12,C   0,C   2)     -0.0004         0.017452   
     86. D(C  14,C  12,C   0,C   1)    179.9989         0.017452   
     87. D(H  13,C  12,C   0,C   2)    180.0000         0.017452   
     88. D(H  13,C  12,C   0,C   1)     -0.0007         0.017452   
     89. D(H  15,C  14,C  12,C   0)      0.0003         0.040015   
     90. D(C  16,C  14,C  12,H  13)      0.0003         0.040015   
     91. D(C  16,C  14,C  12,C   0)   -179.9994         0.040015   
     92. D(H  15,C  14,C  12,H  13)    179.9999         0.040015   
     93. D(O  18,C  16,C  14,H  15)      0.0136         0.015642   
     94. D(O  18,C  16,C  14,C  12)   -179.9867         0.015642   
     95. D(O  17,C  16,C  14,H  15)    179.9865         0.015642   
     96. D(O  17,C  16,C  14,C  12)     -0.0138         0.015642   
     97. D(C  19,O  18,C  16,O  17)      0.0129         0.033852   
     98. D(C  19,O  18,C  16,C  14)    179.9869         0.033852   
     99. D(H  22,C  19,O  18,C  16)   -179.9999         0.018912   
    100. D(H  21,C  19,O  18,C  16)     60.6126         0.018912   
    101. D(H  20,C  19,O  18,C  16)    -60.6123         0.018912   
    -----------------------------------------------------------------

Number of atoms                         .... 23
Number of degrees of freedom            .... 101

         *************************************************************
         *                GEOMETRY OPTIMIZATION CYCLE   1            *
         *************************************************************
---------------------------------
CARTESIAN COORDINATES (ANGSTROEM)
---------------------------------
  C      0.000064   -0.602166   -1.629013
  C      0.000005    0.634320   -0.976346
  C      0.000064   -1.760509   -0.839547
  H      0.000007    1.543394   -1.568552
  H      0.000113   -2.737540   -1.308992
  C     -0.000069    0.723461    0.402564
  C     -0.000007   -1.686284    0.535921
  H     -0.000121    1.690540    0.894860
  H     -0.000012   -2.585200    1.141330
  C     -0.000072   -0.440086    1.165847
  O     -0.000142   -0.421519    2.513443
  H     -0.000185    0.490297    2.829603
  C      0.000136   -0.621794   -3.076226
  H      0.000126    0.354663   -3.555928
  C      0.000219   -1.692563   -3.882849
  H      0.000238   -2.710634   -3.512973
  C      0.000297   -1.518754   -5.334631
  O      0.000059   -0.460983   -5.930657
  O      0.000084   -2.702592   -5.960514
  C     -0.000156   -2.657389   -7.386285
  H     -0.890124   -2.144224   -7.752779
  H      0.889782   -2.144386   -7.753081
  H     -0.000306   -3.693668   -7.715696

----------------------------
CARTESIAN COORDINATES (A.U.)
----------------------------
  NO LB      ZA    FRAG     MASS         X           Y           Z
   0 C     6.0000    0    12.011    0.000121   -1.137929   -3.078388
   1 C     6.0000    0    12.011    0.000009    1.198691   -1.845027
   2 C     6.0000    0    12.011    0.000121   -3.326880   -1.586514
   3 H     1.0000    0     1.008    0.000013    2.916592   -2.964134
   4 H     1.0000    0     1.008    0.000214   -5.173201   -2.473636
   5 C     6.0000    0    12.011   -0.000130    1.367143    0.760736
   6 C     6.0000    0    12.011   -0.000013   -3.186615    1.012744
   7 H     1.0000    0     1.008   -0.000229    3.194658    1.691040
   8 H     1.0000    0     1.008   -0.000023   -4.885320    2.156801
   9 C     6.0000    0    12.011   -0.000136   -0.831642    2.203132
  10 O     8.0000    0    15.999   -0.000268   -0.796555    4.749719
  11 H     1.0000    0     1.008   -0.000350    0.926527    5.347175
  12 C     6.0000    0    12.011    0.000257   -1.175020   -5.813225
  13 H     1.0000    0     1.008    0.000238    0.670216   -6.719730
  14 C     6.0000    0    12.011    0.000414   -3.198481   -7.337521
  15 H     1.0000    0     1.008    0.000450   -5.122356   -6.638557
  16 C     6.0000    0    12.011    0.000561   -2.870029  -10.080992
  17 O     8.0000    0    15.999    0.000111   -0.871132  -11.207318
  18 O     8.0000    0    15.999    0.000159   -5.107159  -11.263739
  19 C     6.0000    0    12.011   -0.000295   -5.021737  -13.958056
  20 H     1.0000    0     1.008   -1.682091   -4.051996  -14.650629
  21 H     1.0000    0     1.008    1.681444   -4.052302  -14.651200
  22 H     1.0000    0     1.008   -0.000578   -6.980021  -14.580552

--------------------------------
INTERNAL COORDINATES (ANGSTROEM)
--------------------------------
 C      0   0   0     0.000000000000     0.00000000     0.00000000
 C      1   0   0     1.398167316370     0.00000000     0.00000000
 C      1   2   0     1.401789952455   117.89681094     0.00000000
 H      2   1   3     1.084953217386   119.09132853   179.99981387
 H      3   1   2     1.083959494348   120.06029569   180.00025686
 C      2   1   3     1.381788301969   121.52568856     0.00000000
 C      3   1   2     1.377469264517   121.18741399     0.00000000
 H      6   2   1     1.085171482560   120.67737346   180.00041784
 H      7   3   1     1.083775822005   120.87090535   179.99966982
 C      6   2   1     1.391561194956   119.56594729     0.00000000
 O     10   6   2     1.347723902587   122.47537903   179.99999121
 H     11  10   6     0.965072829016   109.91266824     0.00000000
 C      1   2   3     1.447346099223   118.60392633   180.00064808
 H     13   1   2     1.087925678414   115.38637251     0.00000000
 C     13   1   2     1.340592004444   127.76818207   179.99892047
 H     15  13   1     1.083179032652   123.04223080     0.00000000
 C     15  13   1     1.462149291314   120.16412649   180.00061638
 O     17  15  13     1.214136128184   126.22713064     0.00000000
 O     17  15  13     1.339104919453   111.03792551   180.01326658
 C     19  17  15     1.426487403818   116.04903821   179.98694486
 H     20  19  17     1.090733336011   110.54140182   299.38766643
 H     20  19  17     1.090734169021   110.54123137    60.61257043
 H     20  19  17     1.087375645884   105.81844055   180.00005160

---------------------------
INTERNAL COORDINATES (A.U.)
---------------------------
 C      0   0   0     0.000000000000     0.00000000     0.00000000
 C      1   0   0     2.642153317339     0.00000000     0.00000000
 C      1   2   0     2.648999107423   117.89681094     0.00000000
 H      2   1   3     2.050264448976   119.09132853   179.99981387
 H      3   1   2     2.048386584581   120.06029569   180.00025686
 C      2   1   3     2.611201465777   121.52568856     0.00000000
 C      3   1   2     2.603039667832   121.18741399     0.00000000
 H      6   2   1     2.050676910379   120.67737346   180.00041784
 H      7   3   1     2.048039494154   120.87090535   179.99966982
 C      6   2   1     2.629669557059   119.56594729     0.00000000
 O     10   6   2     2.546829080029   122.47537903   179.99999121
 H     11  10   6     1.823723346129   109.91266824     0.00000000
 C      1   2   3     2.735087748531   118.60392633   180.00064808
 H     13   1   2     2.055881586263   115.38637251     0.00000000
 C     13   1   2     2.533351745724   127.76818207   179.99892047
 H     15  13   1     2.046911725719   123.04223080     0.00000000
 C     15  13   1     2.763061727490   120.16412649   180.00061638
 O     17  15  13     2.294384771567   126.22713064     0.00000000
 O     17  15  13     2.530541562352   111.03792551   180.01326658
 C     19  17  15     2.695670526703   116.04903821   179.98694486
 H     20  19  17     2.061187290199   110.54140182   299.38766643
 H     20  19  17     2.061188864359   110.54123137    60.61257043
 H     20  19  17     2.054842175417   105.81844055   180.00005160

---------------------
BASIS SET INFORMATION
---------------------
There are 3 groups of distinct atoms

 Group   1 Type C   : 11s6p2d1f contracted to 5s3p2d1f pattern {62111/411/11/1}
 Group   2 Type H   : 5s1p contracted to 3s1p pattern {311/1}
 Group   3 Type O   : 11s6p2d1f contracted to 5s3p2d1f pattern {62111/411/11/1}

Atom   0C    basis set group =>   1
Atom   1C    basis set group =>   1
Atom   2C    basis set group =>   1
Atom   3H    basis set group =>   2
Atom   4H    basis set group =>   2
Atom   5C    basis set group =>   1
Atom   6C    basis set group =>   1
Atom   7H    basis set group =>   2
Atom   8H    basis set group =>   2
Atom   9C    basis set group =>   1
Atom  10O    basis set group =>   3
Atom  11H    basis set group =>   2
Atom  12C    basis set group =>   1
Atom  13H    basis set group =>   2
Atom  14C    basis set group =>   1
Atom  15H    basis set group =>   2
Atom  16C    basis set group =>   1
Atom  17O    basis set group =>   3
Atom  18O    basis set group =>   3
Atom  19C    basis set group =>   1
Atom  20H    basis set group =>   2
Atom  21H    basis set group =>   2
Atom  22H    basis set group =>   2
---------------------------------
AUXILIARY/J BASIS SET INFORMATION
---------------------------------
There are 3 groups of distinct atoms

 Group   1 Type C   : 12s5p4d2f1g contracted to 6s4p3d1f1g pattern {711111/2111/211/2/1}
 Group   2 Type H   : 5s2p1d contracted to 3s1p1d pattern {311/2/1}
 Group   3 Type O   : 12s5p4d2f1g contracted to 6s4p3d1f1g pattern {711111/2111/211/2/1}

Atom   0C    basis set group =>   1
Atom   1C    basis set group =>   1
Atom   2C    basis set group =>   1
Atom   3H    basis set group =>   2
Atom   4H    basis set group =>   2
Atom   5C    basis set group =>   1
Atom   6C    basis set group =>   1
Atom   7H    basis set group =>   2
Atom   8H    basis set group =>   2
Atom   9C    basis set group =>   1
Atom  10O    basis set group =>   3
Atom  11H    basis set group =>   2
Atom  12C    basis set group =>   1
Atom  13H    basis set group =>   2
Atom  14C    basis set group =>   1
Atom  15H    basis set group =>   2
Atom  16C    basis set group =>   1
Atom  17O    basis set group =>   3
Atom  18O    basis set group =>   3
Atom  19C    basis set group =>   1
Atom  20H    basis set group =>   2
Atom  21H    basis set group =>   2
Atom  22H    basis set group =>   2


           ************************************************************
           *        Program running with 24 parallel MPI-processes    *
           *              working on a common directory               *
           ************************************************************
------------------------------------------------------------------------------
                           ORCA GTO INTEGRAL CALCULATION
                           -- RI-GTO INTEGRALS CHOSEN --
------------------------------------------------------------------------------
------------------------------------------------------------------------------
                   ___                                                        
                  /   \      - P O W E R E D   B Y -                         
                 /     \                                                     
                 |  |  |   _    _      __       _____    __    __             
                 |  |  |  | |  | |    /  \     |  _  \  |  |  /  |          
                  \  \/   | |  | |   /    \    | | | |  |  | /  /          
                 / \  \   | |__| |  /  /\  \   | |_| |  |  |/  /          
                |  |  |   |  __  | /  /__\  \  |    /   |      \           
                |  |  |   | |  | | |   __   |  |    \   |  |\   \          
                \     /   | |  | | |  |  |  |  | |\  \  |  | \   \       
                 \___/    |_|  |_| |__|  |__|  |_| \__\ |__|  \__/        
                                                                              
                      - O R C A' S   B I G   F R I E N D -                    
                                      &                                       
                       - I N T E G R A L  F E E D E R -                       
                                                                              
 v1 FN, 2020, v2 2021                                                         
------------------------------------------------------------------------------


Reading SHARK input file CHCHCO2Me-PhenOH/CHCHCO2Me-PhenOH.SHARKINP.tmp ... ok
----------------------
SHARK INTEGRAL PACKAGE
----------------------

Number of atoms                             ...     23
Number of basis functions                   ...    463
Number of shells                            ...    183
Maximum angular momentum                    ...      3
Integral batch strategy                     ... SHARK/LIBINT Hybrid
RI-J (if used) integral strategy            ... SPLIT-RIJ (Revised 2003 algorithm where possible)
Printlevel                                  ...      1
Contraction scheme used                     ... SEGMENTED contraction
Coulomb Range Separation                    ... NOT USED
Exchange Range Separation                   ... NOT USED
Finite Nucleus Model                        ... NOT USED
Auxiliary Coulomb fitting basis             ... AVAILABLE
   # of basis functions in Aux-J            ...    747
   # of shells in Aux-J                     ...    245
   Maximum angular momentum in Aux-J        ...      4
Auxiliary J/K fitting basis                 ... NOT available
Auxiliary Correlation fitting basis         ... NOT available
Auxiliary 'external' fitting basis          ... NOT available
Integral threshold                          ...     2.500000e-11
Primitive cut-off                           ...     2.500000e-12
Primitive pair pre-selection threshold      ...     2.500000e-12

Calculating pre-screening integrals         ... done (  0.1 sec) Dimension = 183
Organizing shell pair data                  ... done (  0.2 sec)
Shell pair information
Total number of shell pairs                 ...     16836
Shell pairs after pre-screening             ...     12579
Total number of primitive shell pairs       ...     51676
Primitive shell pairs kept                  ...     27341
          la=0 lb=0:   3270 shell pairs
          la=1 lb=0:   3586 shell pairs
          la=1 lb=1:   1001 shell pairs
          la=2 lb=0:   1804 shell pairs
          la=2 lb=1:    994 shell pairs
          la=2 lb=2:    260 shell pairs
          la=3 lb=0:    874 shell pairs
          la=3 lb=1:    487 shell pairs
          la=3 lb=2:    239 shell pairs
          la=3 lb=3:     64 shell pairs

Calculating one electron integrals          ... done (  0.0 sec)
Calculating RI/J V-Matrix + Cholesky decomp.... done (  0.1 sec)
Calculating Nuclear repulsion               ... done (  0.0 sec) ENN=    709.993124995255 Eh

SHARK setup successfully completed in   0.7 seconds

Maximum memory used throughout the entire GTOINT-calculation: 25.4 MB


           ************************************************************
           *        Program running with 24 parallel MPI-processes    *
           *              working on a common directory               *
           ************************************************************
-------------------------------------------------------------------------------
                                 ORCA SCF
-------------------------------------------------------------------------------

------------
SCF SETTINGS
------------
Hamiltonian:
 Density Functional     Method          .... DFT(GTOs)
 Exchange Functional    Exchange        .... PBE
   PBE kappa parameter   XKappa         ....  0.804000
   PBE mue parameter    XMuePBE         ....  0.219520
 Correlation Functional Correlation     .... PBE
   PBE beta parameter  CBetaPBE         ....  0.066725
 LDA part of GGA corr.  LDAOpt          .... PW91-LDA
 Gradients option       PostSCFGGA      .... off
 Hybrid DFT is turned on
   Fraction HF Exchange ScalHFX         ....  0.250000
   Scaling of DF-GGA-X  ScalDFX         ....  0.750000
   Scaling of DF-GGA-C  ScalDFC         ....  1.000000
   Scaling of DF-LDA-C  ScalLDAC        ....  1.000000
   Perturbative correction              ....  0.000000
   Density functional embedding theory  .... OFF
   NL short-range parameter             ....  6.900000
 RI-approximation to the Coulomb term is turned on
   Number of AuxJ basis functions       .... 747
   RIJ-COSX (HFX calculated with COS-X)).... on


General Settings:
 Integral files         IntName         .... CHCHCO2Me-PhenOH/CHCHCO2Me-PhenOH
 Hartree-Fock type      HFTyp           .... RHF
 Total Charge           Charge          ....    0
 Multiplicity           Mult            ....    1
 Number of Electrons    NEL             ....   94
 Basis Dimension        Dim             ....  463
 Nuclear Repulsion      ENuc            ....    709.9931249953 Eh

Convergence Acceleration:
 DIIS                   CNVDIIS         .... on
   Start iteration      DIISMaxIt       ....    12
   Startup error        DIISStart       ....  0.200000
   # of expansion vecs  DIISMaxEq       ....     5
   Bias factor          DIISBfac        ....   1.050
   Max. coefficient     DIISMaxC        ....  10.000
 Trust-Rad. Augm. Hess. CNVTRAH         .... auto
   Auto Start mean grad. ratio tolernc. ....  1.125000
   Auto Start start iteration           ....    20
   Auto Start num. interpolation iter.  ....    10
   Max. Number of Micro iterations      ....    16
   Max. Number of Macro iterations      .... Maxiter - #DIIS iter
   Number of Davidson start vectors     ....     2
   Converg. threshold I  (grad. norm)   ....   1.000e-05
   Converg. threshold II (energy diff.) ....   1.000e-08
   Grad. Scal. Fac. for Micro threshold ....   0.100
   Minimum threshold for Micro iter.    ....   0.010
   NR start threshold (gradient norm)   ....   0.001
   Initial trust radius                 ....   0.400
   Minimum AH scaling param. (alpha)    ....   1.000
   Maximum AH scaling param. (alpha)    .... 1000.000
   Orbital update algorithm             .... Taylor
   White noise on init. David. guess    .... on
   Maximum white noise                  ....   0.010
   Quad. conv. algorithm                .... NR
 SOSCF                  CNVSOSCF        .... on
   Start iteration      SOSCFMaxIt      ....   150
   Startup grad/error   SOSCFStart      ....  0.003300
 Level Shifting         CNVShift        .... on
   Level shift para.    LevelShift      ....    0.2500
   Turn off err/grad.   ShiftErr        ....    0.0010
 Zerner damping         CNVZerner       .... off
 Static damping         CNVDamp         .... on
   Fraction old density DampFac         ....    0.7000
   Max. Damping (<1)    DampMax         ....    0.9800
   Min. Damping (>=0)   DampMin         ....    0.0000
   Turn off err/grad.   DampErr         ....    0.1000
 Fernandez-Rico         CNVRico         .... off

SCF Procedure:
 Maximum # iterations   MaxIter         ....   800
 SCF integral mode      SCFMode         .... Direct
   Integral package                     .... SHARK and LIBINT hybrid scheme
 Reset frequency        DirectResetFreq ....    20
 Integral Threshold     Thresh          ....  2.500e-11 Eh
 Primitive CutOff       TCut            ....  2.500e-12 Eh

Convergence Tolerance:
 Convergence Check Mode ConvCheckMode   .... Total+1el-Energy
 Convergence forced     ConvForced      .... 0
 Energy Change          TolE            ....  1.000e-08 Eh
 1-El. energy change                    ....  1.000e-05 Eh
 Orbital Gradient       TolG            ....  1.000e-05
 Orbital Rotation angle TolX            ....  1.000e-05
 DIIS Error             TolErr          ....  5.000e-07


Diagonalization of the overlap matrix:
Smallest eigenvalue                        ... 8.524e-06
Time for diagonalization                   ...    0.052 sec
Threshold for overlap eigenvalues          ... 1.000e-08
Number of eigenvalues below threshold      ... 0
Time for construction of square roots      ...    0.034 sec
Total time needed                          ...    0.089 sec

Time for model grid setup =    0.141 sec

------------------------------
INITIAL GUESS: MODEL POTENTIAL
------------------------------
Loading Hartree-Fock densities                     ... done
Calculating cut-offs                               ... done
Initializing the effective Hamiltonian             ... done
Setting up the integral package (SHARK)            ... done
Starting the Coulomb interaction                   ... done (   0.1 sec)
Reading the grid                                   ... done
Mapping shells                                     ... done
Starting the XC term evaluation                    ... done (   0.1 sec)
  promolecular density results
     # of electrons  =     93.991741727
     EX              =    -78.581065048
     EC              =     -3.140905137
     EX+EC           =    -81.721970185
Transforming the Hamiltonian                       ... done (   0.0 sec)
Diagonalizing the Hamiltonian                      ... done (   0.1 sec)
Back transforming the eigenvectors                 ... done (   0.0 sec)
Now organizing SCF variables                       ... done
                      ------------------
                      INITIAL GUESS DONE (   0.5 sec)
                      ------------------
-------------------
DFT GRID GENERATION
-------------------

General Integration Accuracy     IntAcc      ... 4.388
Radial Grid Type                 RadialGrid  ... OptM3 with GC (2021)
Angular Grid (max. ang.)         AngularGrid ... 4 (Lebedev-302)
Angular grid pruning method      GridPruning ... 4 (adaptive)
Weight generation scheme         WeightScheme... Becke
Basis function cutoff            BFCut       ... 1.0000e-11
Integration weight cutoff        WCut        ... 1.0000e-14
Angular grids for H and He will be reduced by one unit
Partially contracted basis set               ... off
Rotationally invariant grid construction     ... off

Total number of grid points                  ...   110419
Total number of batches                      ...     1735
Average number of points per batch           ...       63
Average number of grid points per atom       ...     4801
Time for grid setup =    0.614 sec

--------------------
COSX GRID GENERATION
--------------------

GRIDX 1
-------
General Integration Accuracy     IntAcc      ... 3.816
Radial Grid Type                 RadialGrid  ... OptM3 with GC (2021)
Angular Grid (max. ang.)         AngularGrid ... 1 (Lebedev-50)
Angular grid pruning method      GridPruning ... 4 (adaptive)
Weight generation scheme         WeightScheme... Becke
Basis function cutoff            BFCut       ... 1.0000e-11
Integration weight cutoff        WCut        ... 1.0000e-14
Angular grids for H and He will be reduced by one unit
Partially contracted basis set               ... on
Rotationally invariant grid construction     ... off

Total number of grid points                  ...    14120
Total number of batches                      ...      230
Average number of points per batch           ...       61
Average number of grid points per atom       ...      614
UseSFitting                                  ... on

GRIDX 2
-------
General Integration Accuracy     IntAcc      ... 4.020
Radial Grid Type                 RadialGrid  ... OptM3 with GC (2021)
Angular Grid (max. ang.)         AngularGrid ... 2 (Lebedev-110)
Angular grid pruning method      GridPruning ... 4 (adaptive)
Weight generation scheme         WeightScheme... Becke
Basis function cutoff            BFCut       ... 1.0000e-11
Integration weight cutoff        WCut        ... 1.0000e-14
Angular grids for H and He will be reduced by one unit
Partially contracted basis set               ... on
Rotationally invariant grid construction     ... off

Total number of grid points                  ...    30896
Total number of batches                      ...      494
Average number of points per batch           ...       62
Average number of grid points per atom       ...     1343
UseSFitting                                  ... on

GRIDX 3
-------
General Integration Accuracy     IntAcc      ... 4.338
Radial Grid Type                 RadialGrid  ... OptM3 with GC (2021)
Angular Grid (max. ang.)         AngularGrid ... 3 (Lebedev-194)
Angular grid pruning method      GridPruning ... 4 (adaptive)
Weight generation scheme         WeightScheme... Becke
Basis function cutoff            BFCut       ... 1.0000e-11
Integration weight cutoff        WCut        ... 1.0000e-14
Angular grids for H and He will be reduced by one unit
Partially contracted basis set               ... on
Rotationally invariant grid construction     ... off

Total number of grid points                  ...    67929
Total number of batches                      ...     1075
Average number of points per batch           ...       63
Average number of grid points per atom       ...     2953
UseSFitting                                  ... on

Time for X-Grid setup             =    0.904 sec


--------------------
CPCM SOLVATION MODEL
--------------------
CPCM parameters:
  Epsilon                                         ...      47.2000
  Refrac                                          ...       1.4790
  Rsolv                                           ...       1.3000
  Surface type                                    ... GAUSSIAN VDW
  Epsilon function type                           ...         CPCM
Radii:
 Radius for C  used is    3.8550 Bohr (=   2.0400 Ang.)
 Radius for H  used is    2.4944 Bohr (=   1.3200 Ang.)
 Radius for O  used is    3.4469 Bohr (=   1.8240 Ang.)
Calculating surface                               ...        done! (  0.0s)
GEPOL surface points                              ...         1305
GEPOL Volume                                      ...    1476.2956
GEPOL Surface-area                                ...     817.7299
Calculating surface distance matrix               ...        done! (  0.0s)
Performing Cholesky decomposition & store         ...        done! (  0.1s)
Overall time for CPCM initialization              ...                 0.2s
--------------
SCF ITERATIONS
--------------
ITER       Energy         Delta-E        Max-DP      RMS-DP      [F,P]     Damp
               ***  Starting incremental Fock matrix formation  ***
  0   -611.9983732081   0.000000000000 0.12810712  0.00111848  0.2846099 0.7000
  1   -612.1372875132  -0.138914305078 0.11546652  0.00096930  0.1208169 0.7000
                               ***Turning on DIIS***
  2   -612.1959550858  -0.058667572608 0.13363566  0.00153846  0.0398514 0.0000
  3   -612.2887468280  -0.092791742213 0.11976390  0.00081544  0.0554611 0.0000
  4   -612.3066289141  -0.017882086164 0.02353946  0.00021076  0.0133354 0.0000
  5   -612.3076384323  -0.001009518200 0.01133526  0.00009068  0.0072987 0.0000
                      *** Initiating the SOSCF procedure ***
                           *** Shutting down DIIS ***
                      *** Re-Reading the Fockian *** 
                      *** Removing any level shift *** 
ITER      Energy       Delta-E        Grad      Rot      Max-DP    RMS-DP
  6   -612.30772904  -0.0000906085  0.000316  0.000316  0.002926  0.000038
               *** Restarting incremental Fock matrix formation ***
  7   -612.30774205  -0.0000130093  0.000293  0.000896  0.002976  0.000041
  8   -612.30773700   0.0000050463  0.000542  0.000631  0.000909  0.000011
  9   -612.30774502  -0.0000080182  0.000046  0.000118  0.000244  0.000003
 10   -612.30774491   0.0000001105  0.000069  0.000061  0.000190  0.000002
 11   -612.30774509  -0.0000001834  0.000006  0.000019  0.000061  0.000001
 12   -612.30774509   0.0000000015  0.000009  0.000011  0.000032  0.000001
                  ***Gradient check signals convergence***
              ***Rediagonalizing the Fockian in SOSCF/NRSCF***

               *****************************************************
               *                     SUCCESS                       *
               *           SCF CONVERGED AFTER  13 CYCLES          *
               *****************************************************

Old exchange energy                            =    -20.038114466 Eh
New exchange energy                            =    -20.038101449 Eh
Exchange energy change after final integration =      0.000013017 Eh
Total energy after final integration           =   -612.307732081 Eh
Final COS-X integration done in                =     3.375 sec

----------------
TOTAL SCF ENERGY
----------------

Total Energy       :         -612.30773208 Eh          -16661.74046 eV

Components:
Nuclear Repulsion  :          709.99312500 Eh           19319.89514 eV
Electronic Energy  :        -1322.30085708 Eh          -35981.63559 eV
One Electron Energy:        -2241.48482016 Eh          -60993.90283 eV
Two Electron Energy:          919.18396308 Eh           25012.26723 eV
Max COSX asymmetry :            0.00000229 Eh               0.00006 eV
CPCM Dielectric    :           -0.02120399 Eh              -0.57699 eV

Virial components:
Potential Energy   :        -1221.91268737 Eh          -33249.93462 eV
Kinetic Energy     :          609.60495529 Eh           16588.19416 eV
Virial Ratio       :            2.00443365


DFT components:
N(Alpha)           :       47.000055943520 electrons
N(Beta)            :       47.000055943520 electrons
N(Total)           :       94.000111887040 electrons
E(X)               :      -59.995843673110 Eh       
E(C)               :       -3.150615163399 Eh       
E(XC)              :      -63.146458836509 Eh       
DFET-embed. en.    :        0.000000000000 Eh       
CPCM Solvation Model Properties:
Surface-charge          :           -0.02500379
Charge-correction       :            0.00004679 Eh               0.00127 eV
Free-energy (cav+disp)  :  This term is not implemented in the current solvation scheme

---------------
SCF CONVERGENCE
---------------

  Last Energy change         ...   -4.6612e-09  Tolerance :   1.0000e-08
  Last MAX-Density change    ...    1.4433e-15  Tolerance :   1.0000e-07
  Last RMS-Density change    ...    1.5506e-17  Tolerance :   5.0000e-09
  Last Orbital Gradient      ...    9.9029e-07  Tolerance :   1.0000e-05
  Last Orbital Rotation      ...    3.8309e-06  Tolerance :   1.0000e-05

             **** THE GBW FILE WAS UPDATED (CHCHCO2Me-PhenOH/CHCHCO2Me-PhenOH.gbw) ****
             **** DENSITY CHCHCO2Me-PhenOH/CHCHCO2Me-PhenOH.scfp WAS UPDATED ****
             **** ENERGY FILE WAS UPDATED (CHCHCO2Me-PhenOH/CHCHCO2Me-PhenOH.en.tmp) ****
             **** THE GBW FILE WAS UPDATED (CHCHCO2Me-PhenOH/CHCHCO2Me-PhenOH.gbw) ****
             **** DENSITY CHCHCO2Me-PhenOH/CHCHCO2Me-PhenOH.scfp WAS UPDATED ****
----------------
ORBITAL ENERGIES
----------------

  NO   OCC          E(Eh)            E(eV) 
   0   2.0000     -19.255166      -523.9597 
   1   2.0000     -19.246383      -523.7207 
   2   2.0000     -19.190630      -522.2036 
   3   2.0000     -10.349500      -281.6242 
   4   2.0000     -10.299670      -280.2683 
   5   2.0000     -10.266415      -279.3633 
   6   2.0000     -10.248629      -278.8794 
   7   2.0000     -10.239897      -278.6418 
   8   2.0000     -10.238539      -278.6048 
   9   2.0000     -10.238142      -278.5940 
  10   2.0000     -10.230846      -278.3955 
  11   2.0000     -10.230445      -278.3846 
  12   2.0000     -10.229805      -278.3672 
  13   2.0000      -1.140986       -31.0478 
  14   2.0000      -1.105998       -30.0957 
  15   2.0000      -1.046786       -28.4845 
  16   2.0000      -0.898509       -24.4497 
  17   2.0000      -0.835514       -22.7355 
  18   2.0000      -0.786436       -21.4000 
  19   2.0000      -0.779907       -21.2223 
  20   2.0000      -0.740838       -20.1592 
  21   2.0000      -0.672695       -18.3050 
  22   2.0000      -0.644802       -17.5460 
  23   2.0000      -0.613111       -16.6836 
  24   2.0000      -0.576834       -15.6965 
  25   2.0000      -0.570358       -15.5202 
  26   2.0000      -0.536474       -14.5982 
  27   2.0000      -0.519015       -14.1231 
  28   2.0000      -0.502442       -13.6721 
  29   2.0000      -0.490375       -13.3438 
  30   2.0000      -0.490077       -13.3357 
  31   2.0000      -0.459062       -12.4917 
  32   2.0000      -0.444575       -12.0975 
  33   2.0000      -0.444079       -12.0840 
  34   2.0000      -0.433033       -11.7834 
  35   2.0000      -0.429762       -11.6944 
  36   2.0000      -0.417028       -11.3479 
  37   2.0000      -0.393425       -10.7057 
  38   2.0000      -0.385362       -10.4862 
  39   2.0000      -0.382804       -10.4166 
  40   2.0000      -0.372033       -10.1235 
  41   2.0000      -0.354519        -9.6469 
  42   2.0000      -0.323202        -8.7948 
  43   2.0000      -0.310002        -8.4356 
  44   2.0000      -0.300464        -8.1760 
  45   2.0000      -0.281378        -7.6567 
  46   2.0000      -0.234507        -6.3813 
  47   0.0000      -0.065665        -1.7868 
  48   0.0000      -0.016975        -0.4619 
  49   0.0000       0.024236         0.6595 
  50   0.0000       0.060945         1.6584 
  51   0.0000       0.067552         1.8382 
  52   0.0000       0.075871         2.0645 
  53   0.0000       0.079928         2.1749 
  54   0.0000       0.088087         2.3970 
  55   0.0000       0.097879         2.6634 
  56   0.0000       0.112125         3.0511 
  57   0.0000       0.116067         3.1583 
  58   0.0000       0.128611         3.4997 
  59   0.0000       0.131833         3.5874 
  60   0.0000       0.142452         3.8763 
  61   0.0000       0.150245         4.0884 
  62   0.0000       0.153726         4.1831 
  63   0.0000       0.171966         4.6794 
  64   0.0000       0.175150         4.7661 
  65   0.0000       0.184557         5.0221 
  66   0.0000       0.199182         5.4200 
  67   0.0000       0.202939         5.5223 
  68   0.0000       0.216344         5.8870 
  69   0.0000       0.216823         5.9001 
  70   0.0000       0.225158         6.1269 
  71   0.0000       0.239302         6.5117 
  72   0.0000       0.242542         6.5999 
  73   0.0000       0.245643         6.6843 
  74   0.0000       0.246444         6.7061 
  75   0.0000       0.265744         7.2313 
  76   0.0000       0.266970         7.2646 
  77   0.0000       0.275167         7.4877 
  78   0.0000       0.276959         7.5364 
  79   0.0000       0.290155         7.8955 
  80   0.0000       0.303956         8.2711 
  81   0.0000       0.306369         8.3367 
  82   0.0000       0.324814         8.8386 
  83   0.0000       0.326914         8.8958 
  84   0.0000       0.337003         9.1703 
  85   0.0000       0.341878         9.3030 
  86   0.0000       0.344330         9.3697 
  87   0.0000       0.348540         9.4842 
  88   0.0000       0.367122         9.9899 
  89   0.0000       0.367540        10.0013 
  90   0.0000       0.371485        10.1086 
  91   0.0000       0.379705        10.3323 
  92   0.0000       0.386952        10.5295 
  93   0.0000       0.400059        10.8862 
  94   0.0000       0.402204        10.9445 
  95   0.0000       0.412695        11.2300 
  96   0.0000       0.420324        11.4376 
  97   0.0000       0.423206        11.5160 
  98   0.0000       0.430554        11.7160 
  99   0.0000       0.442721        12.0470 
 100   0.0000       0.450037        12.2461 
 101   0.0000       0.463853        12.6221 
 102   0.0000       0.465951        12.6792 
 103   0.0000       0.466673        12.6988 
 104   0.0000       0.479309        13.0427 
 105   0.0000       0.485007        13.1977 
 106   0.0000       0.492703        13.4071 
 107   0.0000       0.498665        13.5694 
 108   0.0000       0.508231        13.8297 
 109   0.0000       0.523080        14.2337 
 110   0.0000       0.523743        14.2518 
 111   0.0000       0.543677        14.7942 
 112   0.0000       0.546716        14.8769 
 113   0.0000       0.550838        14.9891 
 114   0.0000       0.558037        15.1850 
 115   0.0000       0.573466        15.6048 
 116   0.0000       0.591069        16.0838 
 117   0.0000       0.598213        16.2782 
 118   0.0000       0.599471        16.3124 
 119   0.0000       0.604761        16.4564 
 120   0.0000       0.615350        16.7445 
 121   0.0000       0.626734        17.0543 
 122   0.0000       0.631986        17.1972 
 123   0.0000       0.640046        17.4165 
 124   0.0000       0.659583        17.9482 
 125   0.0000       0.679441        18.4885 
 126   0.0000       0.688867        18.7450 
 127   0.0000       0.697930        18.9916 
 128   0.0000       0.698975        19.0201 
 129   0.0000       0.712486        19.3877 
 130   0.0000       0.725110        19.7312 
 131   0.0000       0.731310        19.9000 
 132   0.0000       0.735295        20.0084 
 133   0.0000       0.746805        20.3216 
 134   0.0000       0.764313        20.7980 
 135   0.0000       0.782834        21.3020 
 136   0.0000       0.795952        21.6589 
 137   0.0000       0.799959        21.7680 
 138   0.0000       0.808478        21.9998 
 139   0.0000       0.823197        22.4003 
 140   0.0000       0.840979        22.8842 
 141   0.0000       0.850125        23.1331 
 142   0.0000       0.856054        23.2944 
 143   0.0000       0.864137        23.5144 
 144   0.0000       0.871622        23.7180 
 145   0.0000       0.871672        23.7194 
 146   0.0000       0.882188        24.0056 
 147   0.0000       0.907897        24.7051 
 148   0.0000       0.908999        24.7351 
 149   0.0000       0.915397        24.9092 
 150   0.0000       0.918889        25.0043 
 151   0.0000       0.957197        26.0467 
 152   0.0000       0.959736        26.1157 
 153   0.0000       0.997607        27.1463 
 154   0.0000       1.020571        27.7711 
 155   0.0000       1.020891        27.7799 
 156   0.0000       1.028047        27.9746 
 157   0.0000       1.039467        28.2853 
 158   0.0000       1.046549        28.4781 
 159   0.0000       1.064312        28.9614 
 160   0.0000       1.093318        29.7507 
 161   0.0000       1.095803        29.8183 
 162   0.0000       1.112296        30.2671 
 163   0.0000       1.153990        31.4017 
 164   0.0000       1.167767        31.7765 
 165   0.0000       1.175251        31.9802 
 166   0.0000       1.178481        32.0681 
 167   0.0000       1.187140        32.3037 
 168   0.0000       1.197025        32.5727 
 169   0.0000       1.199540        32.6412 
 170   0.0000       1.225732        33.3539 
 171   0.0000       1.243672        33.8420 
 172   0.0000       1.282111        34.8880 
 173   0.0000       1.291929        35.1552 
 174   0.0000       1.301738        35.4221 
 175   0.0000       1.303462        35.4690 
 176   0.0000       1.320551        35.9340 
 177   0.0000       1.340909        36.4880 
 178   0.0000       1.345252        36.6062 
 179   0.0000       1.367568        37.2134 
 180   0.0000       1.372226        37.3402 
 181   0.0000       1.387515        37.7562 
 182   0.0000       1.418287        38.5935 
 183   0.0000       1.440629        39.2015 
 184   0.0000       1.446839        39.3705 
 185   0.0000       1.464613        39.8541 
 186   0.0000       1.480431        40.2846 
 187   0.0000       1.489501        40.5314 
 188   0.0000       1.500696        40.8360 
 189   0.0000       1.513681        41.1893 
 190   0.0000       1.518200        41.3123 
 191   0.0000       1.521821        41.4109 
 192   0.0000       1.526339        41.5338 
 193   0.0000       1.541078        41.9349 
 194   0.0000       1.552215        42.2379 
 195   0.0000       1.567161        42.6446 
 196   0.0000       1.572462        42.7889 
 197   0.0000       1.591604        43.3097 
 198   0.0000       1.593388        43.3583 
 199   0.0000       1.607385        43.7392 
 200   0.0000       1.622134        44.1405 
 201   0.0000       1.630372        44.3647 
 202   0.0000       1.646034        44.7909 
 203   0.0000       1.648504        44.8581 
 204   0.0000       1.676237        45.6127 
 205   0.0000       1.690795        46.0089 
 206   0.0000       1.699046        46.2334 
 207   0.0000       1.713239        46.6196 
 208   0.0000       1.716830        46.7173 
 209   0.0000       1.759457        47.8773 
 210   0.0000       1.767849        48.1056 
 211   0.0000       1.771945        48.2171 
 212   0.0000       1.792558        48.7780 
 213   0.0000       1.798820        48.9484 
 214   0.0000       1.809757        49.2460 
 215   0.0000       1.824560        49.6488 
 216   0.0000       1.834679        49.9242 
 217   0.0000       1.858076        50.5608 
 218   0.0000       1.875011        51.0216 
 219   0.0000       1.878368        51.1130 
 220   0.0000       1.898734        51.6672 
 221   0.0000       1.931835        52.5679 
 222   0.0000       1.951075        53.0914 
 223   0.0000       1.962890        53.4130 
 224   0.0000       1.976975        53.7962 
 225   0.0000       1.986922        54.0669 
 226   0.0000       2.007846        54.6363 
 227   0.0000       2.024630        55.0930 
 228   0.0000       2.046033        55.6754 
 229   0.0000       2.049756        55.7767 
 230   0.0000       2.056010        55.9469 
 231   0.0000       2.077186        56.5231 
 232   0.0000       2.083593        56.6974 
 233   0.0000       2.117986        57.6333 
 234   0.0000       2.128151        57.9099 
 235   0.0000       2.137210        58.1565 
 236   0.0000       2.149285        58.4850 
 237   0.0000       2.155343        58.6499 
 238   0.0000       2.159918        58.7744 
 239   0.0000       2.178711        59.2857 
 240   0.0000       2.185311        59.4653 
 241   0.0000       2.218899        60.3793 
 242   0.0000       2.243441        61.0471 
 243   0.0000       2.257064        61.4178 
 244   0.0000       2.271068        61.7989 
 245   0.0000       2.279742        62.0349 
 246   0.0000       2.285055        62.1795 
 247   0.0000       2.302761        62.6613 
 248   0.0000       2.336133        63.5694 
 249   0.0000       2.339389        63.6580 
 250   0.0000       2.341532        63.7163 
 251   0.0000       2.355281        64.0904 
 252   0.0000       2.384136        64.8756 
 253   0.0000       2.406797        65.4923 
 254   0.0000       2.419254        65.8313 
 255   0.0000       2.442236        66.4566 
 256   0.0000       2.460030        66.9408 
 257   0.0000       2.509540        68.2881 
 258   0.0000       2.513701        68.4013 
 259   0.0000       2.538673        69.0808 
 260   0.0000       2.540954        69.1429 
 261   0.0000       2.553471        69.4835 
 262   0.0000       2.555761        69.5458 
 263   0.0000       2.572572        70.0032 
 264   0.0000       2.592953        70.5578 
 265   0.0000       2.610992        71.0487 
 266   0.0000       2.613731        71.1232 
 267   0.0000       2.630793        71.5875 
 268   0.0000       2.643617        71.9365 
 269   0.0000       2.661319        72.4182 
 270   0.0000       2.664252        72.4980 
 271   0.0000       2.676660        72.8356 
 272   0.0000       2.677880        72.8688 
 273   0.0000       2.707803        73.6831 
 274   0.0000       2.730011        74.2874 
 275   0.0000       2.742506        74.6274 
 276   0.0000       2.749038        74.8051 
 277   0.0000       2.749415        74.8154 
 278   0.0000       2.759639        75.0936 
 279   0.0000       2.769162        75.3527 
 280   0.0000       2.785638        75.8011 
 281   0.0000       2.796307        76.0914 
 282   0.0000       2.806993        76.3822 
 283   0.0000       2.814024        76.5735 
 284   0.0000       2.814296        76.5809 
 285   0.0000       2.829712        77.0004 
 286   0.0000       2.845937        77.4419 
 287   0.0000       2.862260        77.8860 
 288   0.0000       2.867353        78.0246 
 289   0.0000       2.872301        78.1593 
 290   0.0000       2.890210        78.6466 
 291   0.0000       2.904260        79.0289 
 292   0.0000       2.911754        79.2329 
 293   0.0000       2.929880        79.7261 
 294   0.0000       2.942211        80.0616 
 295   0.0000       2.944680        80.1288 
 296   0.0000       2.953791        80.3767 
 297   0.0000       2.960327        80.5546 
 298   0.0000       2.986428        81.2648 
 299   0.0000       3.002580        81.7044 
 300   0.0000       3.016922        82.0946 
 301   0.0000       3.034396        82.5701 
 302   0.0000       3.052618        83.0660 
 303   0.0000       3.058400        83.2233 
 304   0.0000       3.070609        83.5555 
 305   0.0000       3.085217        83.9530 
 306   0.0000       3.093982        84.1915 
 307   0.0000       3.118271        84.8525 
 308   0.0000       3.122856        84.9772 
 309   0.0000       3.140189        85.4489 
 310   0.0000       3.147450        85.6465 
 311   0.0000       3.157930        85.9316 
 312   0.0000       3.166994        86.1783 
 313   0.0000       3.187847        86.7457 
 314   0.0000       3.196719        86.9871 
 315   0.0000       3.197776        87.0159 
 316   0.0000       3.219166        87.5980 
 317   0.0000       3.223705        87.7215 
 318   0.0000       3.241806        88.2140 
 319   0.0000       3.247535        88.3699 
 320   0.0000       3.254287        88.5537 
 321   0.0000       3.265743        88.8654 
 322   0.0000       3.270336        88.9904 
 323   0.0000       3.281688        89.2993 
 324   0.0000       3.306775        89.9819 
 325   0.0000       3.315460        90.2183 
 326   0.0000       3.318002        90.2874 
 327   0.0000       3.326930        90.5304 
 328   0.0000       3.328111        90.5625 
 329   0.0000       3.353071        91.2417 
 330   0.0000       3.358215        91.3817 
 331   0.0000       3.390671        92.2648 
 332   0.0000       3.391665        92.2919 
 333   0.0000       3.402921        92.5982 
 334   0.0000       3.404873        92.6513 
 335   0.0000       3.410108        92.7938 
 336   0.0000       3.423693        93.1634 
 337   0.0000       3.428661        93.2986 
 338   0.0000       3.450064        93.8810 
 339   0.0000       3.453201        93.9664 
 340   0.0000       3.467245        94.3485 
 341   0.0000       3.483643        94.7947 
 342   0.0000       3.486321        94.8676 
 343   0.0000       3.490805        94.9896 
 344   0.0000       3.507423        95.4418 
 345   0.0000       3.517880        95.7264 
 346   0.0000       3.545044        96.4656 
 347   0.0000       3.549229        96.5794 
 348   0.0000       3.571645        97.1894 
 349   0.0000       3.579410        97.4007 
 350   0.0000       3.583953        97.5243 
 351   0.0000       3.591262        97.7232 
 352   0.0000       3.614054        98.3434 
 353   0.0000       3.650543        99.3363 
 354   0.0000       3.655752        99.4781 
 355   0.0000       3.693557       100.5068 
 356   0.0000       3.719312       101.2076 
 357   0.0000       3.763330       102.4054 
 358   0.0000       3.772843       102.6643 
 359   0.0000       3.782352       102.9230 
 360   0.0000       3.787666       103.0676 
 361   0.0000       3.825549       104.0985 
 362   0.0000       3.828904       104.1898 
 363   0.0000       3.888700       105.8169 
 364   0.0000       3.909118       106.3725 
 365   0.0000       3.965781       107.9144 
 366   0.0000       3.975416       108.1766 
 367   0.0000       3.987067       108.4936 
 368   0.0000       4.030296       109.6699 
 369   0.0000       4.055381       110.3525 
 370   0.0000       4.080855       111.0457 
 371   0.0000       4.096771       111.4788 
 372   0.0000       4.118327       112.0654 
 373   0.0000       4.158977       113.1715 
 374   0.0000       4.169321       113.4530 
 375   0.0000       4.195568       114.1672 
 376   0.0000       4.208101       114.5083 
 377   0.0000       4.209747       114.5530 
 378   0.0000       4.229062       115.0786 
 379   0.0000       4.230663       115.1222 
 380   0.0000       4.257727       115.8586 
 381   0.0000       4.258624       115.8831 
 382   0.0000       4.271502       116.2335 
 383   0.0000       4.356515       118.5468 
 384   0.0000       4.363232       118.7296 
 385   0.0000       4.395406       119.6051 
 386   0.0000       4.396589       119.6373 
 387   0.0000       4.418950       120.2457 
 388   0.0000       4.431156       120.5779 
 389   0.0000       4.451917       121.1428 
 390   0.0000       4.487907       122.1221 
 391   0.0000       4.522328       123.0588 
 392   0.0000       4.535509       123.4175 
 393   0.0000       4.646960       126.4502 
 394   0.0000       4.674527       127.2003 
 395   0.0000       4.680865       127.3728 
 396   0.0000       4.702439       127.9599 
 397   0.0000       4.740073       128.9839 
 398   0.0000       4.765603       129.6787 
 399   0.0000       4.774866       129.9307 
 400   0.0000       4.879711       132.7837 
 401   0.0000       4.881773       132.8398 
 402   0.0000       4.893607       133.1618 
 403   0.0000       4.937530       134.3570 
 404   0.0000       4.948581       134.6577 
 405   0.0000       4.986924       135.7011 
 406   0.0000       5.027182       136.7966 
 407   0.0000       5.153633       140.2375 
 408   0.0000       5.174117       140.7949 
 409   0.0000       5.218547       142.0039 
 410   0.0000       5.246676       142.7693 
 411   0.0000       5.270734       143.4240 
 412   0.0000       5.294642       144.0745 
 413   0.0000       5.301258       144.2546 
 414   0.0000       5.400160       146.9458 
 415   0.0000       5.467854       148.7879 
 416   0.0000       5.491409       149.4288 
 417   0.0000       5.499586       149.6513 
 418   0.0000       5.515802       150.0926 
 419   0.0000       5.525280       150.3505 
 420   0.0000       5.557672       151.2319 
 421   0.0000       5.656888       153.9318 
 422   0.0000       5.690737       154.8528 
 423   0.0000       5.727612       155.8562 
 424   0.0000       5.823901       158.4764 
 425   0.0000       5.900753       160.5676 
 426   0.0000       5.990185       163.0012 
 427   0.0000       6.026867       163.9994 
 428   0.0000       6.128674       166.7697 
 429   0.0000       6.196874       168.6255 
 430   0.0000       6.281184       170.9197 
 431   0.0000       6.361133       173.0952 
 432   0.0000       6.366324       173.2365 
 433   0.0000       6.416215       174.5941 
 434   0.0000       6.431225       175.0025 
 435   0.0000       6.437213       175.1655 
 436   0.0000       6.552803       178.3108 
 437   0.0000       6.668542       181.4603 
 438   0.0000       6.712972       182.6692 
 439   0.0000       6.729742       183.1256 
 440   0.0000       6.783681       184.5933 
 441   0.0000       6.819079       185.5566 
 442   0.0000       6.898276       187.7116 
 443   0.0000       6.910044       188.0318 
 444   0.0000       7.003852       190.5845 
 445   0.0000       7.064498       192.2348 
 446   0.0000       7.150195       194.5667 
 447   0.0000       7.304598       198.7682 
 448   0.0000       7.328271       199.4124 
 449   0.0000       7.446339       202.6252 
 450   0.0000      22.193060       603.9039 
 451   0.0000      22.436784       610.5359 
 452   0.0000      22.658924       616.5807 
 453   0.0000      22.766315       619.5029 
 454   0.0000      22.806078       620.5849 
 455   0.0000      22.847910       621.7232 
 456   0.0000      22.956743       624.6847 
 457   0.0000      23.079858       628.0349 
 458   0.0000      23.441989       637.8889 
 459   0.0000      23.475500       638.8008 
 460   0.0000      44.000381      1197.3112 
 461   0.0000      44.026472      1198.0212 
 462   0.0000      44.239115      1203.8075 

                    ********************************
                    * MULLIKEN POPULATION ANALYSIS *
                    ********************************

-----------------------
MULLIKEN ATOMIC CHARGES
-----------------------
   0 C :    0.236325
   1 C :   -0.220268
   2 C :   -0.215720
   3 H :    0.157102
   4 H :    0.150850
   5 C :   -0.238482
   6 C :   -0.238683
   7 H :    0.162114
   8 H :    0.149309
   9 C :    0.282887
  10 O :   -0.416300
  11 H :    0.372361
  12 C :   -0.184037
  13 H :    0.143918
  14 C :   -0.193024
  15 H :    0.151737
  16 C :    0.367963
  17 O :   -0.433829
  18 O :   -0.238062
  19 C :   -0.252504
  20 H :    0.148937
  21 H :    0.148939
  22 H :    0.158466
Sum of atomic charges:    0.0000000

--------------------------------
MULLIKEN REDUCED ORBITAL CHARGES
--------------------------------
  0 C s       :     3.136889  s :     3.136889
      pz      :     0.715407  p :     2.480082
      px      :     0.977373
      py      :     0.787302
      dz2     :     0.034221  d :     0.136793
      dxz     :     0.022394
      dyz     :     0.041306
      dx2y2   :     0.016620
      dxy     :     0.022252
      f0      :     0.001294  f :     0.009910
      f+1     :     0.001002
      f-1     :     0.003476
      f+2     :     0.000888
      f-2     :     0.001086
      f+3     :     0.001390
      f-3     :     0.000773
  1 C s       :     3.236307  s :     3.236307
      pz      :     0.972197  p :     2.877385
      px      :     0.937225
      py      :     0.967963
      dz2     :     0.018697  d :     0.099126
      dxz     :     0.022917
      dyz     :     0.037354
      dx2y2   :     0.009186
      dxy     :     0.010973
      f0      :     0.000866  f :     0.007450
      f+1     :     0.001528
      f-1     :     0.002212
      f+2     :     0.000786
      f-2     :     0.000422
      f+3     :     0.000994
      f-3     :     0.000641
  2 C s       :     3.243424  s :     3.243424
      pz      :     0.957874  p :     2.869431
      px      :     0.935371
      py      :     0.976187
      dz2     :     0.020885  d :     0.095591
      dxz     :     0.023098
      dyz     :     0.034343
      dx2y2   :     0.008621
      dxy     :     0.008644
      f0      :     0.000910  f :     0.007274
      f+1     :     0.001497
      f-1     :     0.002138
      f+2     :     0.000697
      f-2     :     0.000576
      f+3     :     0.000788
      f-3     :     0.000669
  3 H s       :     0.820780  s :     0.820780
      pz      :     0.006711  p :     0.022117
      px      :     0.004473
      py      :     0.010934
  4 H s       :     0.826623  s :     0.826623
      pz      :     0.005711  p :     0.022527
      px      :     0.004437
      py      :     0.012378
  5 C s       :     3.228701  s :     3.228701
      pz      :     0.924017  p :     2.919728
      px      :     1.031373
      py      :     0.964339
      dz2     :     0.017354  d :     0.082879
      dxz     :     0.017401
      dyz     :     0.030459
      dx2y2   :     0.009368
      dxy     :     0.008296
      f0      :     0.000881  f :     0.007173
      f+1     :     0.001449
      f-1     :     0.002026
      f+2     :     0.000770
      f-2     :     0.000456
      f+3     :     0.000895
      f-3     :     0.000696
  6 C s       :     3.253272  s :     3.253272
      pz      :     0.933055  p :     2.894608
      px      :     1.015217
      py      :     0.946336
      dz2     :     0.015642  d :     0.083358
      dxz     :     0.016505
      dyz     :     0.032626
      dx2y2   :     0.007992
      dxy     :     0.010593
      f0      :     0.000799  f :     0.007445
      f+1     :     0.001465
      f-1     :     0.002239
      f+2     :     0.000840
      f-2     :     0.000368
      f+3     :     0.001049
      f-3     :     0.000684
  7 H s       :     0.815676  s :     0.815676
      pz      :     0.005411  p :     0.022210
      px      :     0.004988
      py      :     0.011811
  8 H s       :     0.828455  s :     0.828455
      pz      :     0.006687  p :     0.022237
      px      :     0.004881
      py      :     0.010669
  9 C s       :     2.998781  s :     2.998781
      pz      :     0.716371  p :     2.519653
      px      :     0.892856
      py      :     0.910426
      dz2     :     0.034833  d :     0.182796
      dxz     :     0.048460
      dyz     :     0.059015
      dx2y2   :     0.015551
      dxy     :     0.024937
      f0      :     0.002646  f :     0.015882
      f+1     :     0.003432
      f-1     :     0.005443
      f+2     :     0.000762
      f-2     :     0.001086
      f+3     :     0.001684
      f-3     :     0.000829
 10 O s       :     3.752243  s :     3.752243
      pz      :     1.346548  p :     4.629553
      px      :     1.803606
      py      :     1.479400
      dz2     :     0.011802  d :     0.032731
      dxz     :     0.005912
      dyz     :     0.007299
      dx2y2   :     0.006466
      dxy     :     0.001251
      f0      :     0.000533  f :     0.001773
      f+1     :     0.000319
      f-1     :     0.000278
      f+2     :     0.000221
      f-2     :     0.000022
      f+3     :     0.000053
      f-3     :     0.000346
 11 H s       :     0.582562  s :     0.582562
      pz      :     0.010861  p :     0.045077
      px      :     0.014656
      py      :     0.019560
 12 C s       :     3.271226  s :     3.271226
      pz      :     0.929874  p :     2.807902
      px      :     0.875899
      py      :     1.002129
      dz2     :     0.019053  d :     0.097733
      dxz     :     0.029001
      dyz     :     0.029286
      dx2y2   :     0.011291
      dxy     :     0.009101
      f0      :     0.001227  f :     0.007176
      f+1     :     0.001194
      f-1     :     0.002104
      f+2     :     0.000590
      f-2     :     0.000716
      f+3     :     0.000842
      f-3     :     0.000502
 13 H s       :     0.833745  s :     0.833745
      pz      :     0.006390  p :     0.022337
      px      :     0.003894
      py      :     0.012053
 14 C s       :     3.192286  s :     3.192286
      pz      :     0.923619  p :     2.923345
      px      :     1.050352
      py      :     0.949374
      dz2     :     0.024752  d :     0.070241
      dxz     :     0.011848
      dyz     :     0.014566
      dx2y2   :     0.012662
      dxy     :     0.006414
      f0      :     0.001349  f :     0.007153
      f+1     :     0.000915
      f-1     :     0.002123
      f+2     :     0.000588
      f-2     :     0.000604
      f+3     :     0.000842
      f-3     :     0.000732
 15 H s       :     0.825350  s :     0.825350
      pz      :     0.004996  p :     0.022912
      px      :     0.004947
      py      :     0.012970
 16 C s       :     3.043550  s :     3.043550
      pz      :     0.833222  p :     2.301720
      px      :     0.758889
      py      :     0.709610
      dz2     :     0.060221  d :     0.261752
      dxz     :     0.037023
      dyz     :     0.063616
      dx2y2   :     0.035961
      dxy     :     0.064931
      f0      :     0.001846  f :     0.025015
      f+1     :     0.001144
      f-1     :     0.009369
      f+2     :     0.003051
      f-2     :     0.003640
      f+3     :     0.003719
      f-3     :     0.002246
 17 O s       :     3.804469  s :     3.804469
      pz      :     1.678985  p :     4.597086
      px      :     1.465845
      py      :     1.452257
      dz2     :     0.004579  d :     0.030394
      dxz     :     0.002675
      dyz     :     0.008865
      dx2y2   :     0.006234
      dxy     :     0.008042
      f0      :     0.000162  f :     0.001880
      f+1     :     0.000006
      f-1     :     0.000497
      f+2     :     0.000342
      f-2     :     0.000332
      f+3     :     0.000324
      f-3     :     0.000218
 18 O s       :     3.741098  s :     3.741098
      pz      :     1.270408  p :     4.453716
      px      :     1.704625
      py      :     1.478684
      dz2     :     0.011766  d :     0.041124
      dxz     :     0.005582
      dyz     :     0.011590
      dx2y2   :     0.007002
      dxy     :     0.005184
      f0      :     0.000513  f :     0.002123
      f+1     :     0.000248
      f-1     :     0.000430
      f+2     :     0.000301
      f-2     :     0.000161
      f+3     :     0.000220
      f-3     :     0.000250
 19 C s       :     3.253873  s :     3.253873
      pz      :     0.669380  p :     2.902375
      px      :     1.105061
      py      :     1.127934
      dz2     :     0.019631  d :     0.088709
      dxz     :     0.031554
      dyz     :     0.022292
      dx2y2   :     0.007784
      dxy     :     0.007448
      f0      :     0.002347  f :     0.007548
      f+1     :     0.002526
      f-1     :     0.001901
      f+2     :    -0.000021
      f-2     :    -0.000034
      f+3     :     0.000006
      f-3     :     0.000823
 20 H s       :     0.830610  s :     0.830610
      pz      :     0.004002  p :     0.020452
      px      :     0.010088
      py      :     0.006362
 21 H s       :     0.830609  s :     0.830609
      pz      :     0.004004  p :     0.020452
      px      :     0.010087
      py      :     0.006361
 22 H s       :     0.820819  s :     0.820819
      pz      :     0.003757  p :     0.020715
      px      :     0.004479
      py      :     0.012479


                     *******************************
                     * LOEWDIN POPULATION ANALYSIS *
                     *******************************

----------------------
LOEWDIN ATOMIC CHARGES
----------------------
   0 C :   -0.165921
   1 C :   -0.093112
   2 C :   -0.086283
   3 H :    0.162054
[...]
     33      -0.000002  -0.000000  -0.000000   0.000000   0.000000   0.000000
     34      -0.000000   0.000385  -0.000050   0.001081  -0.000963  -0.002483
     35      -0.000000   0.000181  -0.000001   0.006106   0.000494  -0.004861
     36       0.000004  -0.000001  -0.000000   0.000000  -0.000000   0.000000
     37      -0.000000  -0.077838  -0.000532   0.003030   0.001166   0.002093
     38       0.000000   0.034815   0.000233  -0.001484  -0.002170  -0.001059
     39      -0.000008   0.000011   0.000000  -0.000000  -0.000000  -0.000000
     40       0.000002   0.893710   0.006136  -0.036061  -0.030318  -0.023113
     41      -0.000001  -0.431537  -0.002886   0.019453   0.015182   0.013238
     42      -0.000213   0.000000   0.000000   0.000000   0.000000   0.000000
     43      -0.000000   0.008551   0.000053  -0.000364   0.020927  -0.001504
     44       0.000000   0.000798  -0.000013   0.000120  -0.007113   0.000798
     45       0.000036  -0.000000  -0.000000  -0.000000  -0.000001   0.000000
     46       0.000000  -0.064725   0.000239   0.002691  -0.234336   0.016244
     47      -0.000000   0.025642  -0.000197  -0.001312   0.085812  -0.006312
     48       0.000262  -0.000000  -0.000000  -0.000000  -0.000000   0.000000
     49       0.000000  -0.000855  -0.000222   0.000062   0.000328   0.000086
     50       0.000000   0.000856   0.001135  -0.000032   0.000716  -0.000296
     51       0.000121   0.000000   0.000000  -0.000000   0.000000  -0.000000
     52      -0.000000   0.000592   0.000189  -0.000026  -0.000096  -0.000074
     53       0.000000  -0.000071  -0.000341  -0.000001   0.000023   0.000060
     54       0.000269   0.000000  -0.000000   0.000000  -0.000000   0.000000
     55      -0.000000  -0.000079   0.000224   0.000003  -0.000074   0.000036
     56      -0.000000  -0.000286   0.000080   0.000010  -0.000091   0.000071
     57      -0.094870   0.000000   0.000006  -0.000000  -0.000000   0.000000
     58      -0.000005   0.000559  -0.094130   0.000165  -0.000051  -0.000030
     59      -0.000009   0.000171  -0.006653   0.000007  -0.000037  -0.000040
     60       0.570839   0.000774  -0.254722   0.000463   0.000219   0.000098
     61      -0.342952  -0.000317   0.128528  -0.000235  -0.000137  -0.000059
     62       0.227759   0.000208  -0.096970   0.000172   0.000118   0.000096
     63       0.570843  -0.000776   0.254699  -0.000462  -0.000219  -0.000098
     64       0.342970  -0.000319   0.128521  -0.000235  -0.000137  -0.000059
     65      -0.227663   0.000209  -0.096917   0.000172   0.000117   0.000096
     66      -0.018206   0.000000  -0.000042   0.000000  -0.000000  -0.000000
     67       0.000036  -0.006550   0.859920  -0.001405   0.000235   0.000561
     68       0.000010  -0.002294   0.264560  -0.000422  -0.000027   0.000241
                 66         67         68    
      0      -0.000000   0.000000   0.000000
      1      -0.001118  -0.001148  -0.000007
      2       0.000917   0.001187  -0.000407
      3       0.000000   0.000000   0.000000
      4      -0.003922  -0.001710   0.000178
      5       0.002401   0.000978   0.000318
      6       0.000001   0.000001   0.000000
      7       0.018213   0.044081   0.000049
      8       0.011142   0.023617   0.000245
      9      -0.000000  -0.000000   0.000000
     10       0.043296   0.016506   0.000546
     11      -0.027789  -0.010358  -0.000897
     12      -0.000006  -0.000016   0.000000
     13      -0.202658  -0.506587  -0.000690
     14      -0.100035  -0.248096  -0.000237
     15      -0.000000  -0.000000  -0.000000
     16      -0.002507  -0.002133  -0.000560
     17      -0.001046  -0.000871  -0.001031
     18      -0.000001  -0.000001  -0.000000
     19       0.047364   0.037232  -0.000785
     20      -0.032397  -0.026912  -0.000744
     21       0.000001   0.000001   0.000000
     22       0.026306   0.022787   0.003331
     23       0.012871   0.011310   0.002622
     24       0.000007   0.000005   0.000000
     25      -0.539097  -0.423970  -0.000271
     26       0.359274   0.283612  -0.000063
     27      -0.000000  -0.000000  -0.000000
     28      -0.002027  -0.001817   0.002168
     29      -0.001948  -0.001685   0.000782
     30       0.000000   0.000000   0.000002
     31       0.000201   0.000181   0.058157
     32       0.000252   0.000230   0.021909
     33       0.000000  -0.000000  -0.000034
     34       0.000106   0.000216  -0.937872
     35       0.001759   0.001504  -0.341329
     36       0.000000  -0.000000  -0.000000
     37      -0.001425   0.000734   0.000073
     38       0.004438  -0.003090   0.000364
     39       0.000001  -0.000001   0.000000
     40       0.052688  -0.033958   0.000294
     41      -0.024916   0.014011  -0.000197
     42      -0.000000   0.000000   0.000000
     43      -0.059296   0.052625  -0.000127
     44       0.020133  -0.018217  -0.000283
     45       0.000003  -0.000003  -0.000000
     46       0.673039  -0.601548   0.000109
     47      -0.248185   0.222814   0.000008
     48       0.000000  -0.000000   0.000000
     49      -0.000825   0.000646  -0.000052
     50      -0.001900   0.001969   0.000294
     51      -0.000000  -0.000000   0.000000
     52       0.000277  -0.000170   0.000069
     53      -0.000140   0.000057  -0.000078
     54      -0.000000   0.000000  -0.000000
     55       0.000194  -0.000214  -0.000046
     56       0.000236  -0.000277  -0.000064
     57      -0.000000  -0.000000  -0.000000
     58       0.000191  -0.000114   0.000001
     59       0.000131  -0.000070   0.000032
     60      -0.000537   0.000419  -0.000038
     61       0.000343  -0.000268   0.000010
     62      -0.000336   0.000201  -0.000092
     63       0.000537  -0.000419   0.000038
     64       0.000343  -0.000268   0.000010
     65      -0.000336   0.000200  -0.000092
     66       0.000000  -0.000000  -0.000000
     67      -0.001254   0.000381  -0.000090
     68      -0.000123  -0.000176  -0.000077


-----------
IR SPECTRUM
-----------

 Mode   freq       eps      Int      T**2         TX        TY        TZ
       cm**-1   L/(mol*cm) km/mol    a.u.
----------------------------------------------------------------------------
  6:     37.16   0.001141    5.77  0.009581  ( 0.097884  0.000013 -0.000009)
  7:     63.27   0.000075    0.38  0.000372  (-0.019296 -0.000003  0.000007)
  8:     77.58   0.000246    1.24  0.000990  (-0.000001  0.011281 -0.029374)
  9:     95.28   0.000398    2.01  0.001302  (-0.036083  0.000022 -0.000009)
 10:    155.61   0.000055    0.28  0.000110  ( 0.010504  0.000001  0.000002)
 11:    205.18   0.000004    0.02  0.000006  (-0.002482 -0.000004 -0.000008)
 12:    206.87   0.000372    1.88  0.000561  ( 0.000011 -0.022616 -0.007062)
 13:    213.45   0.001019    5.15  0.001489  ( 0.038589 -0.000007  0.000007)
 14:    264.36   0.001039    5.25  0.001227  ( 0.000000  0.034243  0.007345)
 15:    338.81   0.004468   22.58  0.004115  ( 0.000007 -0.047748 -0.042839)
 16:    378.67   0.000936    4.73  0.000772  (-0.027776 -0.000011  0.000004)
 17:    402.19   0.034201  172.84  0.026537  ( 0.162902 -0.000001 -0.000007)
 18:    421.87   0.008215   41.52  0.006077  (-0.000018  0.011389  0.077117)
 19:    426.41   0.001412    7.14  0.001034  (-0.032149  0.000009  0.000020)
 20:    512.54   0.000817    4.13  0.000497  ( 0.000006  0.019632  0.010573)
 21:    527.22   0.006571   33.21  0.003889  ( 0.062364  0.000001  0.000027)
 22:    531.48   0.010720   54.17  0.006294  (-0.000018  0.011570  0.078489)
 23:    653.05   0.000041    0.21  0.000020  ( 0.000001  0.004422 -0.000036)
 24:    722.98   0.000003    0.02  0.000001  ( 0.001152  0.000007 -0.000012)
 25:    729.09   0.000414    2.09  0.000177  ( 0.000001  0.013171 -0.001946)
 26:    773.38   0.000138    0.70  0.000056  ( 0.007466  0.000005  0.000008)
 27:    815.23   0.003123   15.78  0.001196  ( 0.000002 -0.024086  0.024808)
 28:    828.85   0.001409    7.12  0.000531  ( 0.023033 -0.000004  0.000003)
 29:    855.99   0.025770  130.23  0.009395  ( 0.096926  0.000002 -0.000008)
 30:    878.66   0.004750   24.01  0.001687  ( 0.000004  0.021309  0.035114)
 31:    896.61   0.002614   13.21  0.000910  ( 0.030163 -0.000003  0.000009)
 32:    966.29   0.000385    1.95  0.000124  ( 0.011150  0.000005 -0.000015)
 33:    969.02   0.002905   14.68  0.000935  ( 0.000008 -0.019238  0.023777)
 34:    980.40   0.000074    0.37  0.000023  (-0.004846 -0.000007  0.000003)
 35:   1026.30   0.009804   49.55  0.002981  (-0.054600 -0.000001  0.000005)
 36:   1030.37   0.000073    0.37  0.000022  ( 0.000004  0.000246 -0.004693)
 37:   1063.88   0.000785    3.97  0.000230  (-0.000004 -0.009446  0.011878)
 38:   1129.05   0.008540   43.16  0.002360  (-0.000000 -0.038388 -0.029780)
 39:   1170.88   0.000168    0.85  0.000045  ( 0.006693 -0.000001  0.000009)
 40:   1185.02   0.147924  747.55  0.038954  ( 0.000002  0.042610  0.192714)
 41:   1195.58   0.079932  403.94  0.020863  ( 0.000000  0.029472  0.141403)
 42:   1203.27   0.008879   44.87  0.002303  ( 0.000004 -0.041723 -0.023702)
 43:   1218.03   0.062565  316.18  0.016029  (-0.000005  0.070151  0.105395)
 44:   1237.56   0.083812  423.55  0.021134  ( 0.000001 -0.060065 -0.132386)
 45:   1318.13   0.084919  429.15  0.020104  ( 0.000004  0.022478  0.139997)
 46:   1323.44   0.001135    5.74  0.000268  (-0.000001  0.012107 -0.011001)
 47:   1346.07   0.011548   58.36  0.002677  (-0.000004  0.049185  0.016061)
 48:   1361.44   0.045825  231.58  0.010504  ( 0.000002 -0.048494 -0.090289)
 49:   1398.16   0.001225    6.19  0.000273  (-0.000002  0.014930 -0.007101)
 50:   1464.37   0.003094   15.64  0.000659  ( 0.025679 -0.000029 -0.000068)
 51:   1465.10   0.014496   73.26  0.003088  ( 0.000032  0.020843  0.051510)
 52:   1475.60   0.002675   13.52  0.000566  (-0.000001 -0.023132 -0.005531)
 53:   1484.22   0.002273   11.49  0.000478  ( 0.000001 -0.002832 -0.021678)
 54:   1555.69   0.070552  356.54  0.014152  (-0.000004 -0.014384 -0.118091)
 55:   1639.60   0.076000  384.07  0.014465  (-0.000002  0.011492 -0.119720)
 56:   1659.12   0.155901  787.86  0.029323  ( 0.000004  0.014105  0.170659)
 57:   1692.25   0.046284  233.90  0.008535  (-0.000001  0.002554  0.092350)
 58:   1748.27   0.083160  420.26  0.014844  ( 0.000000  0.108859 -0.054715)
 59:   3066.45   0.008117   41.02  0.000826  (-0.000002  0.003284  0.028552)
 60:   3146.05   0.004892   24.72  0.000485  (-0.022029  0.000000 -0.000003)
 61:   3165.07   0.000483    2.44  0.000048  ( 0.000000 -0.004984  0.004777)
 62:   3181.49   0.003253   16.44  0.000319  ( 0.000001 -0.017397 -0.004047)
 63:   3187.23   0.002226   11.25  0.000218  (-0.000001  0.002033 -0.014624)
 64:   3198.73   0.001119    5.66  0.000109  (-0.000000 -0.003900 -0.009694)
 65:   3201.45   0.001221    6.17  0.000119  ( 0.000000  0.009838  0.004710)
 66:   3211.58   0.000014    0.07  0.000001  (-0.000000 -0.000308 -0.001119)
 67:   3216.64   0.001736    8.77  0.000168  ( 0.000000  0.008001 -0.010219)
 68:   3810.25   0.057292  289.53  0.004692  (-0.000003 -0.042403 -0.053798)

* The epsilon (eps) is given for a Dirac delta lineshape.
** The dipole moment derivative (T) already includes vibrational overlap.

The first frequency considered to be a vibration is 6
The total number of vibrations considered is 63


--------------------------
THERMOCHEMISTRY AT 298.15K
--------------------------

Temperature         ... 298.15 K
Pressure            ... 1.00 atm
Total Mass          ... 178.19 AMU

Throughout the following assumptions are being made:
  (1) The electronic state is orbitally nondegenerate
  (2) There are no thermally accessible electronically excited states
  (3) Hindered rotations indicated by low frequency modes are not
      treated as such but are treated as vibrations and this may
      cause some error
  (4) All equations used are the standard statistical mechanics
      equations for an ideal gas
  (5) All vibrations are strictly harmonic

freq.      37.16  E(vib)   ...       0.54 
freq.      63.27  E(vib)   ...       0.51 
freq.      77.58  E(vib)   ...       0.49 
freq.      95.28  E(vib)   ...       0.47 
freq.     155.61  E(vib)   ...       0.40 
freq.     205.18  E(vib)   ...       0.35 
freq.     206.87  E(vib)   ...       0.35 
freq.     213.45  E(vib)   ...       0.34 
freq.     264.36  E(vib)   ...       0.29 
freq.     338.81  E(vib)   ...       0.23 
freq.     378.67  E(vib)   ...       0.21 
freq.     402.19  E(vib)   ...       0.19 
freq.     421.87  E(vib)   ...       0.18 
freq.     426.41  E(vib)   ...       0.18 
freq.     512.54  E(vib)   ...       0.13 
freq.     527.22  E(vib)   ...       0.13 
freq.     531.48  E(vib)   ...       0.13 
freq.     653.05  E(vib)   ...       0.08 
freq.     722.98  E(vib)   ...       0.07 
freq.     729.09  E(vib)   ...       0.06 
freq.     773.38  E(vib)   ...       0.05 
freq.     815.23  E(vib)   ...       0.05 
freq.     828.85  E(vib)   ...       0.04 
freq.     855.99  E(vib)   ...       0.04 
freq.     878.66  E(vib)   ...       0.04 
freq.     896.61  E(vib)   ...       0.03 
freq.     966.29  E(vib)   ...       0.03 
freq.     969.02  E(vib)   ...       0.03 
freq.     980.40  E(vib)   ...       0.02 
freq.    1026.30  E(vib)   ...       0.02 
freq.    1030.37  E(vib)   ...       0.02 
freq.    1063.88  E(vib)   ...       0.02 
freq.    1129.05  E(vib)   ...       0.01 
freq.    1170.88  E(vib)   ...       0.01 
freq.    1185.02  E(vib)   ...       0.01 
freq.    1195.58  E(vib)   ...       0.01 
freq.    1203.27  E(vib)   ...       0.01 
freq.    1218.03  E(vib)   ...       0.01 
freq.    1237.56  E(vib)   ...       0.01 
freq.    1318.13  E(vib)   ...       0.01 
freq.    1323.44  E(vib)   ...       0.01 
freq.    1346.07  E(vib)   ...       0.01 
freq.    1361.44  E(vib)   ...       0.01 
freq.    1398.16  E(vib)   ...       0.00 
freq.    1464.37  E(vib)   ...       0.00 
freq.    1465.10  E(vib)   ...       0.00 
freq.    1475.60  E(vib)   ...       0.00 
freq.    1484.22  E(vib)   ...       0.00 
freq.    1555.69  E(vib)   ...       0.00 
freq.    1639.60  E(vib)   ...       0.00 
freq.    1659.12  E(vib)   ...       0.00 
freq.    1692.25  E(vib)   ...       0.00 
freq.    1748.27  E(vib)   ...       0.00 
freq.    3066.45  E(vib)   ...       0.00 
freq.    3146.05  E(vib)   ...       0.00 
freq.    3165.07  E(vib)   ...       0.00 
freq.    3181.49  E(vib)   ...       0.00 
freq.    3187.23  E(vib)   ...       0.00 
freq.    3198.73  E(vib)   ...       0.00 
freq.    3201.45  E(vib)   ...       0.00 
freq.    3211.58  E(vib)   ...       0.00 
freq.    3216.64  E(vib)   ...       0.00 
freq.    3810.25  E(vib)   ...       0.00 

------------
INNER ENERGY
------------

The inner energy is: U= E(el) + E(ZPE) + E(vib) + E(rot) + E(trans)
    E(el)   - is the total energy from the electronic structure calculation
              = E(kin-el) + E(nuc-el) + E(el-el) + E(nuc-nuc)
    E(ZPE)  - the the zero temperature vibrational energy from the frequency calculation
    E(vib)  - the the finite temperature correction to E(ZPE) due to population
              of excited vibrational states
    E(rot)  - is the rotational thermal energy
    E(trans)- is the translational thermal energy

Summary of contributions to the inner energy U:
Electronic energy                ...   -612.32826917 Eh
Zero point energy                ...      0.18157860 Eh     113.94 kcal/mol
Thermal vibrational correction   ...      0.00930936 Eh       5.84 kcal/mol
Thermal rotational correction    ...      0.00141627 Eh       0.89 kcal/mol
Thermal translational correction ...      0.00141627 Eh       0.89 kcal/mol
-----------------------------------------------------------------------
Total thermal energy                   -612.13454867 Eh


Summary of corrections to the electronic energy:
(perhaps to be used in another calculation)
Total thermal correction                  0.01214190 Eh       7.62 kcal/mol
Non-thermal (ZPE) correction              0.18157860 Eh     113.94 kcal/mol
-----------------------------------------------------------------------
Total correction                          0.19372050 Eh     121.56 kcal/mol


--------
ENTHALPY
--------

The enthalpy is H = U + kB*T
                kB is Boltzmann's constant
Total free energy                 ...   -612.13454867 Eh 
Thermal Enthalpy correction       ...      0.00094421 Eh       0.59 kcal/mol
-----------------------------------------------------------------------
Total Enthalpy                    ...   -612.13360446 Eh


Note: Only C1 symmetry has been detected, increase convergence thresholds 
      if your molecule has a higher symmetry. Symmetry factor of 1.0 is   
      used for the rotational entropy correction. 
 

Note: Rotational entropy computed according to Herzberg 
Infrared and Raman Spectra, Chapter V,1, Van Nostrand Reinhold, 1945 
Point Group:  C1, Symmetry Number:   1  
Rotational constants in cm-1:     0.114141     0.009095     0.008437 

Vibrational entropy computed according to the QRRHO of S. Grimme
Chem.Eur.J. 2012 18 9955


-------
ENTROPY
-------

The entropy contributions are T*S = T*(S(el)+S(vib)+S(rot)+S(trans))
     S(el)   - electronic entropy
     S(vib)  - vibrational entropy
     S(rot)  - rotational entropy
     S(trans)- translational entropy
The entropies will be listed as multiplied by the temperature to get
units of energy

Electronic entropy                ...      0.00000000 Eh      0.00 kcal/mol
Vibrational entropy               ...      0.01619229 Eh     10.16 kcal/mol
Rotational entropy                ...      0.01500850 Eh      9.42 kcal/mol
Translational entropy             ...      0.01968937 Eh     12.36 kcal/mol
-----------------------------------------------------------------------
Final entropy term                ...      0.05089017 Eh     31.93 kcal/mol

In case the symmetry of your molecule has not been determined correctly
or in case you have a reason to use a different symmetry number we print 
out the resulting rotational entropy values for sn=1,12 :
 --------------------------------------------------------
|  sn= 1 | S(rot)=       0.01500850 Eh      9.42 kcal/mol|
|  sn= 2 | S(rot)=       0.01435405 Eh      9.01 kcal/mol|
|  sn= 3 | S(rot)=       0.01397121 Eh      8.77 kcal/mol|
|  sn= 4 | S(rot)=       0.01369959 Eh      8.60 kcal/mol|
|  sn= 5 | S(rot)=       0.01348890 Eh      8.46 kcal/mol|
|  sn= 6 | S(rot)=       0.01331676 Eh      8.36 kcal/mol|
|  sn= 7 | S(rot)=       0.01317121 Eh      8.27 kcal/mol|
|  sn= 8 | S(rot)=       0.01304513 Eh      8.19 kcal/mol|
|  sn= 9 | S(rot)=       0.01293393 Eh      8.12 kcal/mol|
|  sn=10 | S(rot)=       0.01283445 Eh      8.05 kcal/mol|
|  sn=11 | S(rot)=       0.01274446 Eh      8.00 kcal/mol|
|  sn=12 | S(rot)=       0.01266230 Eh      7.95 kcal/mol|
 --------------------------------------------------------


-------------------
GIBBS FREE ENERGY
-------------------

The Gibbs free energy is G = H - T*S

Total enthalpy                    ...   -612.13360446 Eh 
Total entropy correction          ...     -0.05089017 Eh    -31.93 kcal/mol
-----------------------------------------------------------------------
Final Gibbs free energy         ...   -612.18449463 Eh

For completeness - the Gibbs free energy minus the electronic energy
G-E(el)                           ...      0.14377454 Eh     90.22 kcal/mol


Timings for individual modules:

Sum of individual times         ...      542.121 sec (=   9.035 min)
GTO integral calculation        ...        7.074 sec (=   0.118 min)   1.3 %
SCF iterations                  ...      130.649 sec (=   2.177 min)  24.1 %
SCF Gradient evaluation         ...       36.256 sec (=   0.604 min)   6.7 %
Geometry relaxation             ...        0.364 sec (=   0.006 min)   0.1 %
Analytical frequency calculation...      367.778 sec (=   6.130 min)  67.8 %
                             ****ORCA TERMINATED NORMALLY****
TOTAL RUN TIME: 0 days 0 hours 9 minutes 14 seconds 504 msec
