
                                 *****************
                                 * O   R   C   A *
                                 *****************

                                            #,                                       
                                            ###                                      
                                            ####                                     
                                            #####                                    
                                            ######                                   
                                           ########,                                 
                                     ,,################,,,,,                         
                               ,,#################################,,                 
                          ,,##########################################,,             
                       ,#########################################, ''#####,          
                    ,#############################################,,   '####,        
                  ,##################################################,,,,####,       
                ,###########''''           ''''###############################       
              ,#####''   ,,,,##########,,,,          '''####'''          '####       
            ,##' ,,,,###########################,,,                        '##       
           ' ,,###''''                  '''############,,,                           
         ,,##''                                '''############,,,,        ,,,,,,###''
      ,#''                                            '''#######################'''  
     '                                                          ''''####''''         
             ,#######,   #######,   ,#######,      ##                                
            ,#'     '#,  ##    ##  ,#'     '#,    #''#        ######   ,####,        
            ##       ##  ##   ,#'  ##            #'  '#       #        #'  '#        
            ##       ##  #######   ##           ,######,      #####,   #    #        
            '#,     ,#'  ##    ##  '#,     ,#' ,#      #,         ##   #,  ,#        
             '#######'   ##     ##  '#######'  #'      '#     #####' # '####'        



                  #######################################################
                  #                        -***-                        #
                  #          Department of theory and spectroscopy      #
                  #    Directorship and core code : Frank Neese         #
                  #        Max Planck Institute fuer Kohlenforschung    #
                  #                Kaiser Wilhelm Platz 1               #
                  #                 D-45470 Muelheim/Ruhr               #
                  #                      Germany                        #
                  #                                                     #
                  #                  All rights reserved                #
                  #                        -***-                        #
                  #######################################################


                         Program Version 5.0.4 -  RELEASE  -


 With contributions from (in alphabetic order):
   Daniel Aravena         : Magnetic Suceptibility
   Michael Atanasov       : Ab Initio Ligand Field Theory (pilot matlab implementation)
   Alexander A. Auer      : GIAO ZORA, VPT2 properties, NMR spectrum
   Ute Becker             : Parallelization
   Giovanni Bistoni       : ED, misc. LED, open-shell LED, HFLD
   Martin Brehm           : Molecular dynamics
   Dmytro Bykov           : SCF Hessian
   Vijay G. Chilkuri      : MRCI spin determinant printing, contributions to CSF-ICE
   Dipayan Datta          : RHF DLPNO-CCSD density
   Achintya Kumar Dutta   : EOM-CC, STEOM-CC
   Dmitry Ganyushin       : Spin-Orbit,Spin-Spin,Magnetic field MRCI
   Miquel Garcia          : C-PCM and meta-GGA Hessian, CC/C-PCM, Gaussian charge scheme
   Yang Guo               : DLPNO-NEVPT2, F12-NEVPT2, CIM, IAO-localization
   Andreas Hansen         : Spin unrestricted coupled pair/coupled cluster methods
   Benjamin Helmich-Paris : MC-RPA, TRAH-SCF, COSX integrals
   Lee Huntington         : MR-EOM, pCC
   Robert Izsak           : Overlap fitted RIJCOSX, COSX-SCS-MP3, EOM
   Marcus Kettner         : VPT2
   Christian Kollmar      : KDIIS, OOCD, Brueckner-CCSD(T), CCSD density, CASPT2, CASPT2-K
   Simone Kossmann        : Meta GGA functionals, TD-DFT gradient, OOMP2, MP2 Hessian
   Martin Krupicka        : Initial AUTO-CI
   Lucas Lang             : DCDCAS
   Marvin Lechner         : AUTO-CI (C++ implementation), FIC-MRCC
   Dagmar Lenk            : GEPOL surface, SMD
   Dimitrios Liakos       : Extrapolation schemes; Compound Job, initial MDCI parallelization
   Dimitrios Manganas     : Further ROCIS development; embedding schemes
   Dimitrios Pantazis     : SARC Basis sets
   Anastasios Papadopoulos: AUTO-CI, single reference methods and gradients
   Taras Petrenko         : DFT Hessian,TD-DFT gradient, ASA, ECA, R-Raman, ABS, FL, XAS/XES, NRVS
   Peter Pinski           : DLPNO-MP2, DLPNO-MP2 Gradient
   Christoph Reimann      : Effective Core Potentials
   Marius Retegan         : Local ZFS, SOC
   Christoph Riplinger    : Optimizer, TS searches, QM/MM, DLPNO-CCSD(T), (RO)-DLPNO pert. Triples
   Tobias Risthaus        : Range-separated hybrids, TD-DFT gradient, RPA, STAB
   Michael Roemelt        : Original ROCIS implementation
   Masaaki Saitow         : Open-shell DLPNO-CCSD energy and density
   Barbara Sandhoefer     : DKH picture change effects
   Avijit Sen             : IP-ROCIS
   Kantharuban Sivalingam : CASSCF convergence, NEVPT2, FIC-MRCI
   Bernardo de Souza      : ESD, SOC TD-DFT
   Georgi Stoychev        : AutoAux, RI-MP2 NMR, DLPNO-MP2 response
   Willem Van den Heuvel  : Paramagnetic NMR
   Boris Wezisla          : Elementary symmetry handling
   Frank Wennmohs         : Technical directorship


 We gratefully acknowledge several colleagues who have allowed us to
 interface, adapt or use parts of their codes:
   Stefan Grimme, W. Hujo, H. Kruse, P. Pracht,  : VdW corrections, initial TS optimization,
                  C. Bannwarth, S. Ehlert          DFT functionals, gCP, sTDA/sTD-DF
   Ed Valeev, F. Pavosevic, A. Kumar             : LibInt (2-el integral package), F12 methods
   Garnet Chan, S. Sharma, J. Yang, R. Olivares  : DMRG
   Ulf Ekstrom                                   : XCFun DFT Library
   Mihaly Kallay                                 : mrcc  (arbitrary order and MRCC methods)
   Jiri Pittner, Ondrej Demel                    : Mk-CCSD
   Frank Weinhold                                : gennbo (NPA and NBO analysis)
   Christopher J. Cramer and Donald G. Truhlar   : smd solvation model
   Lars Goerigk                                  : TD-DFT with DH, B97 family of functionals
   V. Asgeirsson, H. Jonsson                     : NEB implementation
   FAccTs GmbH                                   : IRC, NEB, NEB-TS, DLPNO-Multilevel, CI-OPT
                                                   MM, QMMM, 2- and 3-layer-ONIOM, Crystal-QMMM,
                                                   LR-CPCM, SF, NACMEs, symmetry and pop. for TD-DFT,
                                                   nearIR, NL-DFT gradient (VV10), updates on ESD,
                                                   ML-optimized integration grids
   S Lehtola, MJT Oliveira, MAL Marques          : LibXC Library
   Liviu Ungur et al                             : ANISO software


 Your calculation uses the libint2 library for the computation of 2-el integrals
 For citations please refer to: http://libint.valeyev.net

 Your ORCA version has been built with support for libXC version: 5.1.0
 For citations please refer to: https://tddft.org/programs/libxc/

 This ORCA versions uses:
   CBLAS   interface :  Fast vector & matrix operations
   LAPACKE interface :  Fast linear algebra routines
   SCALAPACK package :  Parallel linear algebra routines
   Shared memory     :  Shared parallel matrices
   BLAS/LAPACK       :  OpenBLAS 0.3.15  USE64BITINT DYNAMIC_ARCH NO_AFFINITY Haswell SINGLE_THREADED
        Core in use  :  Haswell
   Copyright (c) 2011-2014, The OpenBLAS Project


Your calculation utilizes the atom-pairwise dispersion correction
with the Becke-Johnson damping scheme (D3BJ)
Cite in your paper:
S.Grimme, S.Ehrlich, L.Goerigk, J Comput Chem, (2011), 32, 1456–1465 
S.Grimme, J.Antony, S.Ehrlich and H.Krieg, J.Chem.Phys., 132, (2010), 154104 
   

================================================================================

----- Orbital basis set information -----
Your calculation utilizes the basis: def2-TZVP
   F. Weigend and R. Ahlrichs, Phys. Chem. Chem. Phys. 7, 3297 (2005).

----- AuxJ basis set information -----
Your calculation utilizes the auxiliary basis: def2/J
   F. Weigend, Phys. Chem. Chem. Phys. 8, 1057 (2006).

================================================================================
                                        WARNINGS
                       Please study these warnings very carefully!
================================================================================


WARNING: Geometry Optimization
  ===> : Switching off AutoStart
         For restart on a previous wavefunction, please use MOREAD

INFO   : the flag for use of the SHARK integral package has been found!

================================================================================
                                       INPUT FILE
================================================================================
NAME = CHCHCO2Me-PhenO/CHCHCO2Me-PhenO.inp
|  1> %pal nprocs 24 end
|  2> %maxcore 3500
|  3> ! PBE0 D3BJ def2-TZVP TightSCF OPT FREQ TightOpt
|  4> ! CPCM(dmso)
|  5> %scf
|  6> MaxIter 800
|  7> end
|  8> %geom
|  9> MaxIter 800
| 10> MaxStep 0.2
| 11> end
| 12> *xyz -1 1
| 13> 
| 14> C      -0.00001300     -0.60915100     -1.64364300
| 15> C       0.00000100      0.63223600     -0.97367100
| 16> C      -0.00001400     -1.76795500     -0.83537900
| 17> H       0.00000000      1.53924200     -1.57360600
| 18> H      -0.00002800     -2.74549400     -1.30878400
| 19> C       0.00002800      0.72661500      0.39378800
| 20> C       0.00001100     -1.69323600      0.53047800
| 21> H       0.00004500      1.69866600      0.87808700
| 22> H       0.00001500     -2.60066100      1.12756400
| 23> C       0.00003000     -0.43676700      1.23426500
| 24> O       0.00005500     -0.36981600      2.49564900
| 25> C      -0.00003700     -0.63585100     -3.06816000
| 26> H      -0.00003100      0.34045100     -3.55112100
| 27> C      -0.00007200     -1.70807300     -3.89830000
| 28> H      -0.00008300     -2.72802400     -3.53342400
| 29> C      -0.00009900     -1.52709100     -5.33194300
| 30> O      -0.00001800     -0.46850900     -5.93951600
| 31> O      -0.00003100     -2.71293100     -5.97721300
| 32> C       0.00004500     -2.65054900     -7.39858800
| 33> H      -0.88910500     -2.13465700     -7.76480400
| 34> H       0.88920600     -2.13460700     -7.76470800
| 35> H       0.00009300     -3.68294800     -7.74206800
| 36> *
| 37> 
| 38>                          ****END OF INPUT****
================================================================================

                       *****************************
                       * Geometry Optimization Run *
                       *****************************

Geometry optimization settings:
Update method            Update   .... BFGS
Choice of coordinates    CoordSys .... Z-matrix Internals
Initial Hessian          InHess   .... Almoef's Model

Convergence Tolerances:
Energy Change            TolE     ....  1.0000e-06 Eh
Max. Gradient            TolMAXG  ....  1.0000e-04 Eh/bohr
RMS Gradient             TolRMSG  ....  3.0000e-05 Eh/bohr
Max. Displacement        TolMAXD  ....  1.0000e-03 bohr
RMS Displacement         TolRMSD  ....  6.0000e-04 bohr
Strict Convergence                ....  False
------------------------------------------------------------------------------
                        ORCA OPTIMIZATION COORDINATE SETUP
------------------------------------------------------------------------------

The optimization will be done in new redundant internal coordinates
Making redundant internal coordinates   ...  (new redundants) done
Evaluating the initial hessian          ...  (Almloef) done
Evaluating the coordinates              ...  done
Calculating the B-matrix                .... done
Calculating the G-matrix                .... done
Diagonalizing the G-matrix              .... done
Small eigenvalue found = 5.700e-03
Small eigenvalue found = 2.819e-02
The first mode is                       ....   37
The number of degrees of freedom        ....   60

    -----------------------------------------------------------------
                    Redundant Internal Coordinates


    -----------------------------------------------------------------
         Definition                    Initial Value    Approx d2E/dq
    -----------------------------------------------------------------
      1. B(C   1,C   0)                  1.4106         0.579174   
      2. B(C   2,C   0)                  1.4128         0.574511   
      3. B(H   3,C   1)                  1.0875         0.363468   
      4. B(H   4,C   2)                  1.0861         0.365246   
      5. B(C   5,C   1)                  1.3707         0.670674   
      6. B(C   6,C   2)                  1.3679         0.677640   
      7. B(H   7,C   5)                  1.0860         0.365410   
      8. B(H   8,C   6)                  1.0862         0.365100   
      9. B(C   9,C   6)                  1.4401         0.519671   
     10. B(C   9,C   5)                  1.4352         0.529165   
     11. B(O  10,C   9)                  1.2632         0.891746   
     12. B(C  11,C   0)                  1.4248         0.549882   
     13. B(H  12,C  11)                  1.0892         0.361123   
     14. B(C  13,C  11)                  1.3560         0.707865   
     15. B(H  14,C  13)                  1.0833         0.369139   
     16. B(C  15,C  13)                  1.4450         0.510453   
     17. B(O  16,C  15)                  1.2205         1.042853   
     18. B(O  17,C  15)                  1.3500         0.648097   
     19. B(C  18,O  17)                  1.4227         0.496176   
     20. B(H  19,C  18)                  1.0913         0.358438   
     21. B(H  20,C  18)                  1.0913         0.358438   
     22. B(H  21,C  18)                  1.0880         0.362705   
     23. A(C   1,C   0,C  11)          119.4294         0.419681   
     24. A(C   1,C   0,C   2)          116.7487         0.422977   
     25. A(C   2,C   0,C  11)          123.8219         0.419077   
     26. A(H   3,C   1,C   5)          119.5343         0.358210   
     27. A(C   0,C   1,H   3)          118.1620         0.349420   
     28. A(C   0,C   1,C   5)          122.3037         0.434883   
     29. A(H   4,C   2,C   6)          118.9713         0.359139   
     30. A(C   0,C   2,C   6)          121.7645         0.435059   
     31. A(C   0,C   2,H   4)          119.2642         0.349231   
     32. A(H   7,C   5,C   9)          117.6705         0.344459   
     33. A(C   1,C   5,C   9)          121.8978         0.427885   
     34. A(C   1,C   5,H   7)          120.4317         0.358535   
     35. A(H   8,C   6,C   9)          117.4005         0.343365   
     36. A(C   2,C   6,C   9)          122.3858         0.427290   
     37. A(C   2,C   6,H   8)          120.2137         0.359114   
     38. A(C   5,C   9,O  10)          122.8077         0.447483   
     39. A(C   5,C   9,C   6)          114.8995         0.408874   
     40. A(C   6,C   9,O  10)          122.2928         0.446017   
     41. A(H  12,C  11,C  13)          115.9312         0.361120   
     42. A(C   0,C  11,C  13)          128.8217         0.435045   
     43. A(C   0,C  11,H  12)          115.2471         0.346002   
     44. A(H  14,C  13,C  15)          116.8790         0.342968   
     45. A(C  11,C  13,C  15)          120.5530         0.429266   
     46. A(C  11,C  13,H  14)          122.5680         0.362476   
     47. A(O  16,C  15,O  17)          121.5937         0.474652   
     48. A(C  13,C  15,O  17)          111.3577         0.419795   
     49. A(C  13,C  15,O  16)          127.0486         0.457398   
     50. A(C  15,O  17,C  18)          116.0396         0.414974   
     51. A(H  19,C  18,H  20)          109.1347         0.290417   
     52. A(O  17,C  18,H  20)          110.8519         0.337606   
     53. A(O  17,C  18,H  19)          110.8518         0.337606   
     54. A(H  20,C  18,H  21)          110.0395         0.290957   
     55. A(H  19,C  18,H  21)          110.0395         0.290957   
     56. A(O  17,C  18,H  21)          105.8893         0.338273   
     57. D(C   5,C   1,C   0,C   2)      0.0007         0.023043   
     58. D(H   3,C   1,C   0,C  11)     -0.0004         0.023043   
     59. D(H   3,C   1,C   0,C   2)   -179.9999         0.023043   
     60. D(C   5,C   1,C   0,C  11)   -179.9998         0.023043   
     61. D(C   6,C   2,C   0,C  11)    179.9999         0.022657   
     62. D(H   4,C   2,C   0,C   1)    179.9998         0.022657   
     63. D(H   4,C   2,C   0,C  11)      0.0004         0.022657   
     64. D(C   6,C   2,C   0,C   1)     -0.0006         0.022657   
     65. D(C   9,C   5,C   1,H   3)    180.0000         0.031462   
     66. D(C   9,C   5,C   1,C   0)     -0.0006         0.031462   
     67. D(H   7,C   5,C   1,H   3)      0.0002         0.031462   
     68. D(H   7,C   5,C   1,C   0)    179.9996         0.031462   
     69. D(C   9,C   6,C   2,C   0)      0.0005         0.032171   
     70. D(H   8,C   6,C   2,H   4)     -0.0001         0.032171   
     71. D(H   8,C   6,C   2,C   0)   -179.9997         0.032171   
     72. D(C   9,C   6,C   2,H   4)   -180.0000         0.032171   
     73. D(O  10,C   9,C   6,H   8)      0.0002         0.018417   
     74. D(C   5,C   9,C   6,H   8)    179.9998         0.018417   
     75. D(C   5,C   9,C   6,C   2)     -0.0003         0.018417   
     76. D(O  10,C   9,C   5,H   7)     -0.0002         0.019112   
     77. D(O  10,C   9,C   5,C   1)    180.0000         0.019112   
     78. D(O  10,C   9,C   6,C   2)   -179.9999         0.018417   
     79. D(C   6,C   9,C   5,H   7)   -179.9998         0.019112   
     80. D(C   6,C   9,C   5,C   1)      0.0004         0.019112   
     81. D(C  13,C  11,C   0,C   2)      0.0004         0.020685   
     82. D(C  13,C  11,C   0,C   1)   -179.9990         0.020685   
     83. D(H  12,C  11,C   0,C   2)   -179.9999         0.020685   
     84. D(H  12,C  11,C   0,C   1)      0.0007         0.020685   
     85. D(C  15,C  13,C  11,C   0)    179.9997         0.035358   
     86. D(H  14,C  13,C  11,H  12)   -179.9999         0.035358   
     87. D(H  14,C  13,C  11,C   0)     -0.0002         0.035358   
     88. D(C  15,C  13,C  11,H  12)     -0.0000         0.035358   
     89. D(O  17,C  15,C  13,H  14)     -0.0047         0.017758   
     90. D(O  17,C  15,C  13,C  11)    179.9954         0.017758   
     91. D(O  16,C  15,C  13,H  14)   -179.9956         0.017758   
     92. D(O  16,C  15,C  13,C  11)      0.0045         0.017758   
     93. D(C  18,O  17,C  15,O  16)     -0.0042         0.031027   
     94. D(C  18,O  17,C  15,C  13)   -179.9957         0.031027   
     95. D(H  21,C  18,O  17,C  15)    180.0000         0.019454   
     96. D(H  20,C  18,O  17,C  15)     60.6806         0.019454   
     97. D(H  19,C  18,O  17,C  15)    -60.6807         0.019454   
    -----------------------------------------------------------------

Number of atoms                         .... 22
Number of degrees of freedom            .... 97

         *************************************************************
         *                GEOMETRY OPTIMIZATION CYCLE   1            *
         *************************************************************
---------------------------------
CARTESIAN COORDINATES (ANGSTROEM)
---------------------------------
  C     -0.000013   -0.609151   -1.643643
  C      0.000001    0.632236   -0.973671
  C     -0.000014   -1.767955   -0.835379
  H      0.000000    1.539242   -1.573606
  H     -0.000028   -2.745494   -1.308784
  C      0.000028    0.726615    0.393788
  C      0.000011   -1.693236    0.530478
  H      0.000045    1.698666    0.878087
  H      0.000015   -2.600661    1.127564
  C      0.000030   -0.436767    1.234265
  O      0.000055   -0.369816    2.495649
  C     -0.000037   -0.635851   -3.068160
  H     -0.000031    0.340451   -3.551121
  C     -0.000072   -1.708073   -3.898300
  H     -0.000083   -2.728024   -3.533424
  C     -0.000099   -1.527091   -5.331943
  O     -0.000018   -0.468509   -5.939516
  O     -0.000031   -2.712931   -5.977213
  C      0.000045   -2.650549   -7.398588
  H     -0.889105   -2.134657   -7.764804
  H      0.889206   -2.134607   -7.764708
  H      0.000093   -3.682948   -7.742068

----------------------------
CARTESIAN COORDINATES (A.U.)
----------------------------
  NO LB      ZA    FRAG     MASS         X           Y           Z
   0 C     6.0000    0    12.011   -0.000025   -1.151129   -3.106035
   1 C     6.0000    0    12.011    0.000002    1.194753   -1.839972
   2 C     6.0000    0    12.011   -0.000026   -3.340951   -1.578638
   3 H     1.0000    0     1.008    0.000000    2.908746   -2.973684
   4 H     1.0000    0     1.008   -0.000053   -5.188232   -2.473243
   5 C     6.0000    0    12.011    0.000053    1.373103    0.744151
   6 C     6.0000    0    12.011    0.000021   -3.199752    1.002458
   7 H     1.0000    0     1.008    0.000085    3.210014    1.659344
   8 H     1.0000    0     1.008    0.000028   -4.914537    2.130787
   9 C     6.0000    0    12.011    0.000057   -0.825370    2.332423
  10 O     8.0000    0    15.999    0.000104   -0.698851    4.716093
  11 C     6.0000    0    12.011   -0.000070   -1.201584   -5.797982
  12 H     1.0000    0     1.008   -0.000059    0.643359   -6.710646
  13 C     6.0000    0    12.011   -0.000136   -3.227790   -7.366719
  14 H     1.0000    0     1.008   -0.000157   -5.155218   -6.677204
  15 C     6.0000    0    12.011   -0.000187   -2.885784  -10.075912
  16 O     8.0000    0    15.999   -0.000034   -0.885354  -11.224059
  17 O     8.0000    0    15.999   -0.000059   -5.126697  -11.295296
  18 C     6.0000    0    12.011    0.000085   -5.008812  -13.981305
  19 H     1.0000    0     1.008   -1.680165   -4.033917  -14.673353
  20 H     1.0000    0     1.008    1.680356   -4.033823  -14.673172
  21 H     1.0000    0     1.008    0.000176   -6.959763  -14.630388

--------------------------------
INTERNAL COORDINATES (ANGSTROEM)
--------------------------------
 C      0   0   0     0.000000000000     0.00000000     0.00000000
 C      1   0   0     1.410639629654     0.00000000     0.00000000
 C      1   2   0     1.412840190578   116.74871275     0.00000000
 H      2   1   3     1.087465810158   118.16196449   180.00012299
 H      3   1   2     1.086137556087   119.26419292   179.99979250
 C      2   1   3     1.370712046001   122.30374053     0.00000000
 C      3   1   2     1.367899219254   121.76447796     0.00000000
 H      6   2   1     1.086015040545   120.43174817   179.99958199
 H      7   3   1     1.086246667216   120.21369594   180.00033042
 C      6   2   1     1.435220981402   121.89779240     0.00000000
 O     10   6   2     1.263159543558   122.80769876   179.99998193
 C      1   2   3     1.424767199884   119.42935365   179.99945385
 H     12   1   2     1.089227672602   115.24708668     0.00000000
 C     12   1   2     1.356020810352   128.82167632   180.00101315
 H     14  12   1     1.083251834939   122.56800547     0.00000000
 C     14  12   1     1.445021361954   120.55297968   179.99967863
 O     16  14  12     1.220549387618   127.04857962     0.00000000
 O     16  14  12     1.350033289635   111.35772532   179.99539728
 C     18  16  14     1.422743269295   116.03962946   180.00427440
 H     19  18  16     1.091259106180   110.85182362   299.31932092
 H     19  18  16     1.091259495118   110.85188766    60.68061998
 H     19  18  16     1.088037778712   105.88931428   179.99995976

---------------------------
INTERNAL COORDINATES (A.U.)
---------------------------
 C      0   0   0     0.000000000000     0.00000000     0.00000000
 C      1   0   0     2.665722573701     0.00000000     0.00000000
 C      1   2   0     2.669881031190   116.74871275     0.00000000
 H      2   1   3     2.055012561201   118.16196449   180.00012299
 H      3   1   2     2.052502524770   119.26419292   179.99979250
 C      2   1   3     2.590270375408   122.30374053     0.00000000
 C      3   1   2     2.584954903194   121.76447796     0.00000000
 H      6   2   1     2.052271003950   120.43174817   179.99958199
 H      7   3   1     2.052708714922   120.21369594   180.00033042
 C      6   2   1     2.712174596508   121.89779240     0.00000000
 O     10   6   2     2.387025600774   122.80769876   179.99998193
 C      1   2   3     2.692419812374   119.42935365   179.99945385
 H     12   1   2     2.058341998705   115.24708668     0.00000000
 C     12   1   2     2.562507963464   128.82167632   180.00101315
 H     14  12   1     2.047049302102   122.56800547     0.00000000
 C     14  12   1     2.730694631758   120.55297968   179.99967863
 O     16  14  12     2.306504075523   127.04857962     0.00000000
 O     16  14  12     2.551193189088   111.35772532   179.99539728
 C     18  16  14     2.688595137848   116.03962946   180.00427440
 H     19  18  16     2.062180851827   110.85182362   299.31932092
 H     19  18  16     2.062181586814   110.85188766    60.68061998
 H     19  18  16     2.056093425126   105.88931428   179.99995976

---------------------
BASIS SET INFORMATION
---------------------
There are 3 groups of distinct atoms

 Group   1 Type C   : 11s6p2d1f contracted to 5s3p2d1f pattern {62111/411/11/1}
 Group   2 Type H   : 5s1p contracted to 3s1p pattern {311/1}
 Group   3 Type O   : 11s6p2d1f contracted to 5s3p2d1f pattern {62111/411/11/1}

Atom   0C    basis set group =>   1
Atom   1C    basis set group =>   1
Atom   2C    basis set group =>   1
Atom   3H    basis set group =>   2
Atom   4H    basis set group =>   2
Atom   5C    basis set group =>   1
Atom   6C    basis set group =>   1
Atom   7H    basis set group =>   2
Atom   8H    basis set group =>   2
Atom   9C    basis set group =>   1
Atom  10O    basis set group =>   3
Atom  11C    basis set group =>   1
Atom  12H    basis set group =>   2
Atom  13C    basis set group =>   1
Atom  14H    basis set group =>   2
Atom  15C    basis set group =>   1
Atom  16O    basis set group =>   3
Atom  17O    basis set group =>   3
Atom  18C    basis set group =>   1
Atom  19H    basis set group =>   2
Atom  20H    basis set group =>   2
Atom  21H    basis set group =>   2
---------------------------------
AUXILIARY/J BASIS SET INFORMATION
---------------------------------
There are 3 groups of distinct atoms

 Group   1 Type C   : 12s5p4d2f1g contracted to 6s4p3d1f1g pattern {711111/2111/211/2/1}
 Group   2 Type H   : 5s2p1d contracted to 3s1p1d pattern {311/2/1}
 Group   3 Type O   : 12s5p4d2f1g contracted to 6s4p3d1f1g pattern {711111/2111/211/2/1}

Atom   0C    basis set group =>   1
Atom   1C    basis set group =>   1
Atom   2C    basis set group =>   1
Atom   3H    basis set group =>   2
Atom   4H    basis set group =>   2
Atom   5C    basis set group =>   1
Atom   6C    basis set group =>   1
Atom   7H    basis set group =>   2
Atom   8H    basis set group =>   2
Atom   9C    basis set group =>   1
Atom  10O    basis set group =>   3
Atom  11C    basis set group =>   1
Atom  12H    basis set group =>   2
Atom  13C    basis set group =>   1
Atom  14H    basis set group =>   2
Atom  15C    basis set group =>   1
Atom  16O    basis set group =>   3
Atom  17O    basis set group =>   3
Atom  18C    basis set group =>   1
Atom  19H    basis set group =>   2
Atom  20H    basis set group =>   2
Atom  21H    basis set group =>   2


           ************************************************************
           *        Program running with 24 parallel MPI-processes    *
           *              working on a common directory               *
           ************************************************************
------------------------------------------------------------------------------
                           ORCA GTO INTEGRAL CALCULATION
                           -- RI-GTO INTEGRALS CHOSEN --
------------------------------------------------------------------------------
------------------------------------------------------------------------------
                   ___                                                        
                  /   \      - P O W E R E D   B Y -                         
                 /     \                                                     
                 |  |  |   _    _      __       _____    __    __             
                 |  |  |  | |  | |    /  \     |  _  \  |  |  /  |          
                  \  \/   | |  | |   /    \    | | | |  |  | /  /          
                 / \  \   | |__| |  /  /\  \   | |_| |  |  |/  /          
                |  |  |   |  __  | /  /__\  \  |    /   |      \           
                |  |  |   | |  | | |   __   |  |    \   |  |\   \          
                \     /   | |  | | |  |  |  |  | |\  \  |  | \   \       
                 \___/    |_|  |_| |__|  |__|  |_| \__\ |__|  \__/        
                                                                              
                      - O R C A' S   B I G   F R I E N D -                    
                                      &                                       
                       - I N T E G R A L  F E E D E R -                       
                                                                              
 v1 FN, 2020, v2 2021                                                         
------------------------------------------------------------------------------


Reading SHARK input file CHCHCO2Me-PhenO/CHCHCO2Me-PhenO.SHARKINP.tmp ... ok
----------------------
SHARK INTEGRAL PACKAGE
----------------------

Number of atoms                             ...     22
Number of basis functions                   ...    457
Number of shells                            ...    179
Maximum angular momentum                    ...      3
Integral batch strategy                     ... SHARK/LIBINT Hybrid
RI-J (if used) integral strategy            ... SPLIT-RIJ (Revised 2003 algorithm where possible)
Printlevel                                  ...      1
Contraction scheme used                     ... SEGMENTED contraction
Coulomb Range Separation                    ... NOT USED
Exchange Range Separation                   ... NOT USED
Finite Nucleus Model                        ... NOT USED
Auxiliary Coulomb fitting basis             ... AVAILABLE
   # of basis functions in Aux-J            ...    736
   # of shells in Aux-J                     ...    240
   Maximum angular momentum in Aux-J        ...      4
Auxiliary J/K fitting basis                 ... NOT available
Auxiliary Correlation fitting basis         ... NOT available
Auxiliary 'external' fitting basis          ... NOT available
Integral threshold                          ...     2.500000e-11
Primitive cut-off                           ...     2.500000e-12
Primitive pair pre-selection threshold      ...     2.500000e-12

Calculating pre-screening integrals         ... done (  0.1 sec) Dimension = 179
Organizing shell pair data                  ... done (  0.2 sec)
Shell pair information
Total number of shell pairs                 ...     16110
Shell pairs after pre-screening             ...     12120
Total number of primitive shell pairs       ...     49768
Primitive shell pairs kept                  ...     26464
          la=0 lb=0:   3092 shell pairs
          la=1 lb=0:   3436 shell pairs
          la=1 lb=1:    973 shell pairs
          la=2 lb=0:   1751 shell pairs
          la=2 lb=1:    979 shell pairs
          la=2 lb=2:    260 shell pairs
          la=3 lb=0:    850 shell pairs
          la=3 lb=1:    477 shell pairs
          la=3 lb=2:    238 shell pairs
          la=3 lb=3:     64 shell pairs

Calculating one electron integrals          ... done (  0.0 sec)
Calculating RI/J V-Matrix + Cholesky decomp.... done (  0.1 sec)
Calculating Nuclear repulsion               ... done (  0.0 sec) ENN=    695.115720319847 Eh

SHARK setup successfully completed in   0.7 seconds

Maximum memory used throughout the entire GTOINT-calculation: 25.1 MB


           ************************************************************
           *        Program running with 24 parallel MPI-processes    *
           *              working on a common directory               *
           ************************************************************
-------------------------------------------------------------------------------
                                 ORCA SCF
-------------------------------------------------------------------------------

------------
SCF SETTINGS
------------
Hamiltonian:
 Density Functional     Method          .... DFT(GTOs)
 Exchange Functional    Exchange        .... PBE
   PBE kappa parameter   XKappa         ....  0.804000
   PBE mue parameter    XMuePBE         ....  0.219520
 Correlation Functional Correlation     .... PBE
   PBE beta parameter  CBetaPBE         ....  0.066725
 LDA part of GGA corr.  LDAOpt          .... PW91-LDA
 Gradients option       PostSCFGGA      .... off
 Hybrid DFT is turned on
   Fraction HF Exchange ScalHFX         ....  0.250000
   Scaling of DF-GGA-X  ScalDFX         ....  0.750000
   Scaling of DF-GGA-C  ScalDFC         ....  1.000000
   Scaling of DF-LDA-C  ScalLDAC        ....  1.000000
   Perturbative correction              ....  0.000000
   Density functional embedding theory  .... OFF
   NL short-range parameter             ....  6.900000
 RI-approximation to the Coulomb term is turned on
   Number of AuxJ basis functions       .... 736
   RIJ-COSX (HFX calculated with COS-X)).... on


General Settings:
 Integral files         IntName         .... CHCHCO2Me-PhenO/CHCHCO2Me-PhenO
 Hartree-Fock type      HFTyp           .... RHF
 Total Charge           Charge          ....   -1
 Multiplicity           Mult            ....    1
 Number of Electrons    NEL             ....   94
 Basis Dimension        Dim             ....  457
 Nuclear Repulsion      ENuc            ....    695.1157203198 Eh

Convergence Acceleration:
 DIIS                   CNVDIIS         .... on
   Start iteration      DIISMaxIt       ....    12
   Startup error        DIISStart       ....  0.200000
   # of expansion vecs  DIISMaxEq       ....     5
   Bias factor          DIISBfac        ....   1.050
   Max. coefficient     DIISMaxC        ....  10.000
 Trust-Rad. Augm. Hess. CNVTRAH         .... auto
   Auto Start mean grad. ratio tolernc. ....  1.125000
   Auto Start start iteration           ....    20
   Auto Start num. interpolation iter.  ....    10
   Max. Number of Micro iterations      ....    16
   Max. Number of Macro iterations      .... Maxiter - #DIIS iter
   Number of Davidson start vectors     ....     2
   Converg. threshold I  (grad. norm)   ....   1.000e-05
   Converg. threshold II (energy diff.) ....   1.000e-08
   Grad. Scal. Fac. for Micro threshold ....   0.100
   Minimum threshold for Micro iter.    ....   0.010
   NR start threshold (gradient norm)   ....   0.001
   Initial trust radius                 ....   0.400
   Minimum AH scaling param. (alpha)    ....   1.000
   Maximum AH scaling param. (alpha)    .... 1000.000
   Orbital update algorithm             .... Taylor
   White noise on init. David. guess    .... on
   Maximum white noise                  ....   0.010
   Quad. conv. algorithm                .... NR
 SOSCF                  CNVSOSCF        .... on
   Start iteration      SOSCFMaxIt      ....   150
   Startup grad/error   SOSCFStart      ....  0.003300
 Level Shifting         CNVShift        .... on
   Level shift para.    LevelShift      ....    0.2500
   Turn off err/grad.   ShiftErr        ....    0.0010
 Zerner damping         CNVZerner       .... off
 Static damping         CNVDamp         .... on
   Fraction old density DampFac         ....    0.7000
   Max. Damping (<1)    DampMax         ....    0.9800
   Min. Damping (>=0)   DampMin         ....    0.0000
   Turn off err/grad.   DampErr         ....    0.1000
 Fernandez-Rico         CNVRico         .... off

SCF Procedure:
 Maximum # iterations   MaxIter         ....   800
 SCF integral mode      SCFMode         .... Direct
   Integral package                     .... SHARK and LIBINT hybrid scheme
 Reset frequency        DirectResetFreq ....    20
 Integral Threshold     Thresh          ....  2.500e-11 Eh
 Primitive CutOff       TCut            ....  2.500e-12 Eh

Convergence Tolerance:
 Convergence Check Mode ConvCheckMode   .... Total+1el-Energy
 Convergence forced     ConvForced      .... 0
 Energy Change          TolE            ....  1.000e-08 Eh
 1-El. energy change                    ....  1.000e-05 Eh
 Orbital Gradient       TolG            ....  1.000e-05
 Orbital Rotation angle TolX            ....  1.000e-05
 DIIS Error             TolErr          ....  5.000e-07


Diagonalization of the overlap matrix:
Smallest eigenvalue                        ... 1.042e-05
Time for diagonalization                   ...    0.055 sec
Threshold for overlap eigenvalues          ... 1.000e-08
Number of eigenvalues below threshold      ... 0
Time for construction of square roots      ...    0.045 sec
Total time needed                          ...    0.105 sec

Time for model grid setup =    0.142 sec

------------------------------
INITIAL GUESS: MODEL POTENTIAL
------------------------------
Loading Hartree-Fock densities                     ... done
Calculating cut-offs                               ... done
Initializing the effective Hamiltonian             ... done
Setting up the integral package (SHARK)            ... done
Starting the Coulomb interaction                   ... done (   0.2 sec)
Reading the grid                                   ... done
Mapping shells                                     ... done
Starting the XC term evaluation                    ... done (   0.1 sec)
  promolecular density results
     # of electrons  =     92.994216365
     EX              =    -78.221309541
     EC              =     -3.102547903
     EX+EC           =    -81.323857444
Transforming the Hamiltonian                       ... done (   0.0 sec)
Diagonalizing the Hamiltonian                      ... done (   0.1 sec)
Back transforming the eigenvectors                 ... done (   0.0 sec)
Now organizing SCF variables                       ... done
                      ------------------
                      INITIAL GUESS DONE (   0.5 sec)
                      ------------------
-------------------
DFT GRID GENERATION
-------------------

General Integration Accuracy     IntAcc      ... 4.388
Radial Grid Type                 RadialGrid  ... OptM3 with GC (2021)
Angular Grid (max. ang.)         AngularGrid ... 4 (Lebedev-302)
Angular grid pruning method      GridPruning ... 4 (adaptive)
Weight generation scheme         WeightScheme... Becke
Basis function cutoff            BFCut       ... 1.0000e-11
Integration weight cutoff        WCut        ... 1.0000e-14
Angular grids for H and He will be reduced by one unit
Partially contracted basis set               ... off
Rotationally invariant grid construction     ... off

Total number of grid points                  ...   107242
Total number of batches                      ...     1689
Average number of points per batch           ...       63
Average number of grid points per atom       ...     4875
Time for grid setup =    0.574 sec

--------------------
COSX GRID GENERATION
--------------------

GRIDX 1
-------
General Integration Accuracy     IntAcc      ... 3.816
Radial Grid Type                 RadialGrid  ... OptM3 with GC (2021)
Angular Grid (max. ang.)         AngularGrid ... 1 (Lebedev-50)
Angular grid pruning method      GridPruning ... 4 (adaptive)
Weight generation scheme         WeightScheme... Becke
Basis function cutoff            BFCut       ... 1.0000e-11
Integration weight cutoff        WCut        ... 1.0000e-14
Angular grids for H and He will be reduced by one unit
Partially contracted basis set               ... on
Rotationally invariant grid construction     ... off

Total number of grid points                  ...    13688
Total number of batches                      ...      223
Average number of points per batch           ...       61
Average number of grid points per atom       ...      622
UseSFitting                                  ... on

GRIDX 2
-------
General Integration Accuracy     IntAcc      ... 4.020
Radial Grid Type                 RadialGrid  ... OptM3 with GC (2021)
Angular Grid (max. ang.)         AngularGrid ... 2 (Lebedev-110)
Angular grid pruning method      GridPruning ... 4 (adaptive)
Weight generation scheme         WeightScheme... Becke
Basis function cutoff            BFCut       ... 1.0000e-11
Integration weight cutoff        WCut        ... 1.0000e-14
Angular grids for H and He will be reduced by one unit
Partially contracted basis set               ... on
Rotationally invariant grid construction     ... off

Total number of grid points                  ...    30181
Total number of batches                      ...      481
Average number of points per batch           ...       62
Average number of grid points per atom       ...     1372
UseSFitting                                  ... on

GRIDX 3
-------
General Integration Accuracy     IntAcc      ... 4.338
Radial Grid Type                 RadialGrid  ... OptM3 with GC (2021)
Angular Grid (max. ang.)         AngularGrid ... 3 (Lebedev-194)
Angular grid pruning method      GridPruning ... 4 (adaptive)
Weight generation scheme         WeightScheme... Becke
Basis function cutoff            BFCut       ... 1.0000e-11
Integration weight cutoff        WCut        ... 1.0000e-14
Angular grids for H and He will be reduced by one unit
Partially contracted basis set               ... on
Rotationally invariant grid construction     ... off

Total number of grid points                  ...    66379
Total number of batches                      ...     1049
Average number of points per batch           ...       63
Average number of grid points per atom       ...     3017
UseSFitting                                  ... on

Time for X-Grid setup             =    0.892 sec


--------------------
CPCM SOLVATION MODEL
--------------------
CPCM parameters:
  Epsilon                                         ...      47.2000
  Refrac                                          ...       1.4790
  Rsolv                                           ...       1.3000
  Surface type                                    ... GAUSSIAN VDW
  Epsilon function type                           ...         CPCM
Radii:
 Radius for C  used is    3.8550 Bohr (=   2.0400 Ang.)
 Radius for H  used is    2.4944 Bohr (=   1.3200 Ang.)
 Radius for O  used is    3.4469 Bohr (=   1.8240 Ang.)
Calculating surface                               ...        done! (  0.0s)
GEPOL surface points                              ...         1256
GEPOL Volume                                      ...    1465.5809
GEPOL Surface-area                                ...     811.5111
Calculating surface distance matrix               ...        done! (  0.0s)
Performing Cholesky decomposition & store         ...        done! (  0.1s)
Overall time for CPCM initialization              ...                 0.2s
--------------
SCF ITERATIONS
--------------
ITER       Energy         Delta-E        Max-DP      RMS-DP      [F,P]     Damp
               ***  Starting incremental Fock matrix formation  ***
  0   -611.4370469235   0.000000000000 0.39893285  0.00324178  0.3187947 0.7000
  1   -611.6164582518  -0.179411328361 0.37771752  0.00298086  0.1371267 0.7000
                               ***Turning on DIIS***
  2   -611.6902796501  -0.073821398234 0.38233306  0.00350205  0.0444096 0.0000
  3   -611.8074799319  -0.117200281818 0.39286699  0.00294271  0.0795532 0.0000
  4   -611.8306805224  -0.023200590483 0.07864602  0.00060787  0.0161818 0.0000
  5   -611.8321844868  -0.001503964391 0.03436272  0.00027396  0.0062689 0.0000
                      *** Initiating the SOSCF procedure ***
                           *** Shutting down DIIS ***
                      *** Re-Reading the Fockian *** 
                      *** Removing any level shift *** 
ITER      Energy       Delta-E        Grad      Rot      Max-DP    RMS-DP
  6   -611.83229680  -0.0001123134  0.000369  0.000369  0.016472  0.000134
               *** Restarting incremental Fock matrix formation ***
  7   -611.83231177  -0.0000149718  0.000194  0.001364  0.002723  0.000037
  8   -611.83230797   0.0000038031  0.000339  0.000652  0.001273  0.000011
  9   -611.83231472  -0.0000067484  0.000033  0.000136  0.000405  0.000004
 10   -611.83231468   0.0000000336  0.000039  0.000043  0.000060  0.000001
 11   -611.83231476  -0.0000000768  0.000006  0.000014  0.000106  0.000001
 12   -611.83231476  -0.0000000002  0.000008  0.000013  0.000051  0.000001
                  ***Gradient check signals convergence***
              ***Rediagonalizing the Fockian in SOSCF/NRSCF***

               *****************************************************
               *                     SUCCESS                       *
               *           SCF CONVERGED AFTER  13 CYCLES          *
               *****************************************************

Old exchange energy                            =    -19.999927394 Eh
New exchange energy                            =    -19.999895165 Eh
Exchange energy change after final integration =      0.000032229 Eh
Total energy after final integration           =   -611.832282539 Eh
Final COS-X integration done in                =     2.876 sec

----------------
TOTAL SCF ENERGY
----------------

Total Energy       :         -611.83228254 Eh          -16648.80282 eV

Components:
Nuclear Repulsion  :          695.11572032 Eh           18915.06037 eV
Electronic Energy  :        -1306.94800286 Eh          -35563.86319 eV
One Electron Energy:        -2225.38577142 Eh          -60555.82544 eV
Two Electron Energy:          918.43776856 Eh           24991.96225 eV
Max COSX asymmetry :            0.00000228 Eh               0.00006 eV
CPCM Dielectric    :           -0.09063202 Eh              -2.46622 eV

Virial components:
Potential Energy   :        -1220.97212350 Eh          -33224.34057 eV
Kinetic Energy     :          609.13984096 Eh           16575.53776 eV
Virial Ratio       :            2.00442007


DFT components:
N(Alpha)           :       47.000054108256 electrons
N(Beta)            :       47.000054108256 electrons
N(Total)           :       94.000108216512 electrons
E(X)               :      -59.899916414982 Eh       
E(C)               :       -3.147736404412 Eh       
E(XC)              :      -63.047652819394 Eh       
DFET-embed. en.    :        0.000000000000 Eh       
CPCM Solvation Model Properties:
Surface-charge          :            0.96795395
Charge-correction       :           -0.00376251 Eh              -0.10238 eV
Free-energy (cav+disp)  :  This term is not implemented in the current solvation scheme

---------------
SCF CONVERGENCE
---------------

  Last Energy change         ...   -7.5901e-09  Tolerance :   1.0000e-08
  Last MAX-Density change    ...    8.8818e-16  Tolerance :   1.0000e-07
  Last RMS-Density change    ...    1.5535e-17  Tolerance :   5.0000e-09
  Last Orbital Gradient      ...    9.3399e-07  Tolerance :   1.0000e-05
  Last Orbital Rotation      ...    3.5129e-06  Tolerance :   1.0000e-05

             **** THE GBW FILE WAS UPDATED (CHCHCO2Me-PhenO/CHCHCO2Me-PhenO.gbw) ****
             **** DENSITY CHCHCO2Me-PhenO/CHCHCO2Me-PhenO.scfp WAS UPDATED ****
             **** ENERGY FILE WAS UPDATED (CHCHCO2Me-PhenO/CHCHCO2Me-PhenO.en.tmp) ****
             **** THE GBW FILE WAS UPDATED (CHCHCO2Me-PhenO/CHCHCO2Me-PhenO.gbw) ****
             **** DENSITY CHCHCO2Me-PhenO/CHCHCO2Me-PhenO.scfp WAS UPDATED ****
----------------
ORBITAL ENERGIES
----------------

  NO   OCC          E(Eh)            E(eV) 
   0   2.0000     -19.242269      -523.6088 
   1   2.0000     -19.175895      -521.8026 
   2   2.0000     -19.131621      -520.5979 
   3   2.0000     -10.334245      -281.2091 
   4   2.0000     -10.260501      -279.2024 
   5   2.0000     -10.259517      -279.1757 
   6   2.0000     -10.233479      -278.4671 
   7   2.0000     -10.216895      -278.0158 
   8   2.0000     -10.216828      -278.0140 
   9   2.0000     -10.210516      -277.8423 
  10   2.0000     -10.207088      -277.7490 
  11   2.0000     -10.199093      -277.5314 
  12   2.0000     -10.195631      -277.4372 
  13   2.0000      -1.125906       -30.6375 
  14   2.0000      -1.030918       -28.0527 
  15   2.0000      -1.000348       -27.2208 
  16   2.0000      -0.865825       -23.5603 
  17   2.0000      -0.809531       -22.0285 
  18   2.0000      -0.757864       -20.6225 
  19   2.0000      -0.755170       -20.5492 
  20   2.0000      -0.712092       -19.3770 
  21   2.0000      -0.633605       -17.2413 
  22   2.0000      -0.611982       -16.6529 
  23   2.0000      -0.581952       -15.8357 
  24   2.0000      -0.555081       -15.1045 
  25   2.0000      -0.522274       -14.2118 
  26   2.0000      -0.500331       -13.6147 
  27   2.0000      -0.491718       -13.3803 
  28   2.0000      -0.480347       -13.0709 
  29   2.0000      -0.460206       -12.5228 
  30   2.0000      -0.450659       -12.2631 
  31   2.0000      -0.428070       -11.6484 
  32   2.0000      -0.416830       -11.3425 
  33   2.0000      -0.408107       -11.1051 
  34   2.0000      -0.407519       -11.0891 
  35   2.0000      -0.396814       -10.7979 
  36   2.0000      -0.383283       -10.4297 
  37   2.0000      -0.366590        -9.9754 
  38   2.0000      -0.360094        -9.7986 
  39   2.0000      -0.345905        -9.4126 
  40   2.0000      -0.337088        -9.1726 
  41   2.0000      -0.312455        -8.5023 
  42   2.0000      -0.287677        -7.8281 
  43   2.0000      -0.276082        -7.5126 
  44   2.0000      -0.260654        -7.0928 
  45   2.0000      -0.232746        -6.3333 
  46   2.0000      -0.185167        -5.0387 
  47   0.0000      -0.045447        -1.2367 
  48   0.0000       0.008248         0.2244 
  49   0.0000       0.051473         1.4006 
  50   0.0000       0.071131         1.9356 
  51   0.0000       0.084501         2.2994 
  52   0.0000       0.085314         2.3215 
  53   0.0000       0.101860         2.7718 
  54   0.0000       0.104279         2.8376 
  55   0.0000       0.111259         3.0275 
  56   0.0000       0.120207         3.2710 
  57   0.0000       0.130682         3.5560 
  58   0.0000       0.133973         3.6456 
  59   0.0000       0.145811         3.9677 
  60   0.0000       0.154134         4.1942 
  61   0.0000       0.163550         4.4504 
  62   0.0000       0.173141         4.7114 
  63   0.0000       0.180362         4.9079 
  64   0.0000       0.197659         5.3786 
  65   0.0000       0.206796         5.6272 
  66   0.0000       0.208198         5.6654 
  67   0.0000       0.218186         5.9371 
  68   0.0000       0.222073         6.0429 
  69   0.0000       0.231316         6.2944 
  70   0.0000       0.241435         6.5698 
  71   0.0000       0.251435         6.8419 
  72   0.0000       0.254494         6.9251 
  73   0.0000       0.255066         6.9407 
  74   0.0000       0.273849         7.4518 
  75   0.0000       0.283424         7.7123 
  76   0.0000       0.286090         7.7849 
  77   0.0000       0.291168         7.9231 
  78   0.0000       0.306684         8.3453 
  79   0.0000       0.315443         8.5836 
  80   0.0000       0.319437         8.6923 
  81   0.0000       0.335224         9.1219 
  82   0.0000       0.341324         9.2879 
  83   0.0000       0.344227         9.3669 
  84   0.0000       0.359740         9.7890 
  85   0.0000       0.364007         9.9051 
  86   0.0000       0.370734        10.0882 
  87   0.0000       0.378826        10.3084 
  88   0.0000       0.379334        10.3222 
  89   0.0000       0.383082        10.4242 
  90   0.0000       0.384366        10.4591 
  91   0.0000       0.401157        10.9160 
  92   0.0000       0.413163        11.2427 
  93   0.0000       0.421179        11.4609 
  94   0.0000       0.427528        11.6336 
  95   0.0000       0.433734        11.8025 
  96   0.0000       0.438423        11.9301 
  97   0.0000       0.451386        12.2828 
  98   0.0000       0.454545        12.3688 
  99   0.0000       0.463136        12.6026 
 100   0.0000       0.467996        12.7348 
 101   0.0000       0.469707        12.7814 
 102   0.0000       0.477706        12.9990 
 103   0.0000       0.488461        13.2917 
 104   0.0000       0.506458        13.7814 
 105   0.0000       0.509286        13.8584 
 106   0.0000       0.513068        13.9613 
 107   0.0000       0.513482        13.9726 
 108   0.0000       0.533087        14.5060 
 109   0.0000       0.537165        14.6170 
 110   0.0000       0.555086        15.1046 
 111   0.0000       0.559857        15.2345 
 112   0.0000       0.567732        15.4488 
 113   0.0000       0.592089        16.1116 
 114   0.0000       0.598201        16.2779 
 115   0.0000       0.606797        16.5118 
 116   0.0000       0.610484        16.6121 
 117   0.0000       0.614604        16.7242 
 118   0.0000       0.627306        17.0699 
 119   0.0000       0.636471        17.3193 
 120   0.0000       0.638778        17.3820 
 121   0.0000       0.655324        17.8323 
 122   0.0000       0.669561        18.2197 
 123   0.0000       0.675375        18.3779 
 124   0.0000       0.689797        18.7703 
 125   0.0000       0.711752        19.3678 
 126   0.0000       0.714828        19.4514 
 127   0.0000       0.721661        19.6374 
 128   0.0000       0.746873        20.3234 
 129   0.0000       0.748784        20.3754 
 130   0.0000       0.756733        20.5918 
 131   0.0000       0.765832        20.8394 
 132   0.0000       0.776634        21.1333 
 133   0.0000       0.790702        21.5161 
 134   0.0000       0.812257        22.1026 
 135   0.0000       0.819014        22.2865 
 136   0.0000       0.822104        22.3706 
 137   0.0000       0.837275        22.7834 
 138   0.0000       0.849553        23.1175 
 139   0.0000       0.871866        23.7247 
 140   0.0000       0.873133        23.7592 
 141   0.0000       0.880003        23.9461 
 142   0.0000       0.892143        24.2764 
 143   0.0000       0.893195        24.3051 
 144   0.0000       0.905895        24.6507 
 145   0.0000       0.914807        24.8932 
 146   0.0000       0.921110        25.0647 
 147   0.0000       0.928284        25.2599 
 148   0.0000       0.928694        25.2710 
 149   0.0000       0.971463        26.4348 
 150   0.0000       0.972854        26.4727 
 151   0.0000       1.007508        27.4157 
 152   0.0000       1.030776        28.0488 
 153   0.0000       1.032574        28.0978 
 154   0.0000       1.040656        28.3177 
 155   0.0000       1.056975        28.7618 
 156   0.0000       1.063039        28.9267 
 157   0.0000       1.069511        29.1029 
 158   0.0000       1.101436        29.9716 
 159   0.0000       1.124220        30.5916 
 160   0.0000       1.128547        30.7093 
 161   0.0000       1.178497        32.0685 
 162   0.0000       1.188469        32.3399 
 163   0.0000       1.195030        32.5184 
 164   0.0000       1.199751        32.6469 
 165   0.0000       1.207513        32.8581 
 166   0.0000       1.225822        33.3563 
 167   0.0000       1.230523        33.4842 
 168   0.0000       1.241712        33.7887 
 169   0.0000       1.263478        34.3810 
 170   0.0000       1.305310        35.5193 
 171   0.0000       1.310262        35.6540 
 172   0.0000       1.315964        35.8092 
 173   0.0000       1.332809        36.2676 
 174   0.0000       1.336989        36.3813 
 175   0.0000       1.354253        36.8511 
 176   0.0000       1.359360        36.9901 
 177   0.0000       1.387720        37.7618 
 178   0.0000       1.404298        38.2129 
 179   0.0000       1.424902        38.7735 
 180   0.0000       1.458842        39.6971 
 181   0.0000       1.478125        40.2218 
 182   0.0000       1.483763        40.3752 
 183   0.0000       1.484292        40.3896 
 184   0.0000       1.498536        40.7772 
 185   0.0000       1.498678        40.7811 
 186   0.0000       1.510265        41.0964 
 187   0.0000       1.527943        41.5774 
 188   0.0000       1.528378        41.5893 
 189   0.0000       1.543997        42.0143 
 190   0.0000       1.547042        42.0971 
 191   0.0000       1.562791        42.5257 
 192   0.0000       1.567076        42.6423 
 193   0.0000       1.573926        42.8287 
 194   0.0000       1.590988        43.2930 
 195   0.0000       1.600633        43.5554 
 196   0.0000       1.618478        44.0410 
 197   0.0000       1.624292        44.1992 
 198   0.0000       1.634725        44.4831 
 199   0.0000       1.660435        45.1827 
 200   0.0000       1.665490        45.3203 
 201   0.0000       1.688044        45.9340 
 202   0.0000       1.691032        46.0153 
 203   0.0000       1.713173        46.6178 
 204   0.0000       1.730093        47.0782 
 205   0.0000       1.735196        47.2171 
 206   0.0000       1.760324        47.9008 
 207   0.0000       1.770033        48.1650 
 208   0.0000       1.783960        48.5440 
 209   0.0000       1.803664        49.0802 
 210   0.0000       1.811507        49.2936 
 211   0.0000       1.850038        50.3421 
 212   0.0000       1.855466        50.4898 
 213   0.0000       1.865870        50.7729 
 214   0.0000       1.866969        50.8028 
 215   0.0000       1.897723        51.6397 
 216   0.0000       1.936910        52.7060 
 217   0.0000       1.945342        52.9354 
 218   0.0000       1.959745        53.3274 
 219   0.0000       1.964831        53.4658 
 220   0.0000       1.969347        53.5886 
 221   0.0000       1.997201        54.3466 
 222   0.0000       2.017090        54.8878 
 223   0.0000       2.028248        55.1914 
 224   0.0000       2.037859        55.4530 
 225   0.0000       2.063129        56.1406 
 226   0.0000       2.078548        56.5602 
 227   0.0000       2.089448        56.8568 
 228   0.0000       2.094029        56.9814 
 229   0.0000       2.134933        58.0945 
 230   0.0000       2.145415        58.3797 
 231   0.0000       2.146273        58.4031 
 232   0.0000       2.155094        58.6431 
 233   0.0000       2.162127        58.8345 
 234   0.0000       2.196157        59.7605 
 235   0.0000       2.201500        59.9059 
 236   0.0000       2.208843        60.1057 
 237   0.0000       2.251268        61.2601 
 238   0.0000       2.267382        61.6986 
 239   0.0000       2.278178        61.9924 
 240   0.0000       2.279181        62.0197 
 241   0.0000       2.282651        62.1141 
 242   0.0000       2.301854        62.6366 
 243   0.0000       2.323462        63.2246 
 244   0.0000       2.344985        63.8103 
 245   0.0000       2.357892        64.1615 
 246   0.0000       2.363725        64.3202 
 247   0.0000       2.395391        65.1819 
 248   0.0000       2.414934        65.7137 
 249   0.0000       2.440276        66.4033 
 250   0.0000       2.459174        66.9175 
 251   0.0000       2.479133        67.4606 
 252   0.0000       2.530379        68.8551 
 253   0.0000       2.531018        68.8725 
 254   0.0000       2.549801        69.3836 
 255   0.0000       2.555485        69.5383 
 256   0.0000       2.561667        69.7065 
 257   0.0000       2.563883        69.7668 
 258   0.0000       2.568909        69.9036 
 259   0.0000       2.594178        70.5912 
 260   0.0000       2.615571        71.1733 
 261   0.0000       2.620942        71.3195 
 262   0.0000       2.650217        72.1161 
 263   0.0000       2.657036        72.3016 
 264   0.0000       2.675208        72.7961 
 265   0.0000       2.679480        72.9123 
 266   0.0000       2.685011        73.0629 
 267   0.0000       2.691915        73.2507 
 268   0.0000       2.710157        73.7471 
 269   0.0000       2.754782        74.9614 
 270   0.0000       2.762356        75.1675 
 271   0.0000       2.768267        75.3284 
 272   0.0000       2.785367        75.7937 
 273   0.0000       2.786107        75.8138 
 274   0.0000       2.804445        76.3128 
 275   0.0000       2.805792        76.3495 
 276   0.0000       2.817909        76.6792 
 277   0.0000       2.822954        76.8165 
 278   0.0000       2.827699        76.9456 
 279   0.0000       2.837066        77.2005 
 280   0.0000       2.839826        77.2756 
 281   0.0000       2.856775        77.7368 
 282   0.0000       2.871752        78.1443 
 283   0.0000       2.878829        78.3369 
 284   0.0000       2.884619        78.4945 
 285   0.0000       2.892558        78.7105 
 286   0.0000       2.916218        79.3543 
 287   0.0000       2.927997        79.6748 
 288   0.0000       2.959652        80.5362 
 289   0.0000       2.963406        80.6384 
 290   0.0000       2.965266        80.6890 
 291   0.0000       2.974158        80.9310 
 292   0.0000       2.998899        81.6042 
 293   0.0000       3.013543        82.0027 
 294   0.0000       3.033496        82.5456 
 295   0.0000       3.042229        82.7833 
 296   0.0000       3.044906        82.8561 
 297   0.0000       3.079731        83.8038 
 298   0.0000       3.093961        84.1910 
 299   0.0000       3.096182        84.2514 
 300   0.0000       3.112840        84.7047 
 301   0.0000       3.120573        84.9151 
 302   0.0000       3.137055        85.3636 
 303   0.0000       3.149172        85.6933 
 304   0.0000       3.157305        85.9146 
 305   0.0000       3.163128        86.0731 
 306   0.0000       3.177590        86.4666 
 307   0.0000       3.200058        87.0780 
 308   0.0000       3.201269        87.1110 
 309   0.0000       3.211588        87.3918 
 310   0.0000       3.212814        87.4251 
 311   0.0000       3.232035        87.9481 
 312   0.0000       3.232567        87.9626 
 313   0.0000       3.241993        88.2191 
 314   0.0000       3.251057        88.4658 
 315   0.0000       3.260327        88.7180 
 316   0.0000       3.276859        89.1679 
 317   0.0000       3.287345        89.4532 
 318   0.0000       3.293009        89.6073 
 319   0.0000       3.320830        90.3644 
 320   0.0000       3.325314        90.4864 
 321   0.0000       3.334902        90.7473 
 322   0.0000       3.360382        91.4407 
 323   0.0000       3.362431        91.4964 
 324   0.0000       3.366525        91.6078 
 325   0.0000       3.379063        91.9490 
 326   0.0000       3.394586        92.3714 
 327   0.0000       3.402887        92.5973 
 328   0.0000       3.419264        93.0429 
 329   0.0000       3.431443        93.3743 
 330   0.0000       3.432636        93.4068 
 331   0.0000       3.443173        93.6935 
 332   0.0000       3.456089        94.0450 
 333   0.0000       3.464947        94.2860 
 334   0.0000       3.479130        94.6719 
 335   0.0000       3.493166        95.0539 
 336   0.0000       3.498118        95.1886 
 337   0.0000       3.506195        95.4084 
 338   0.0000       3.515959        95.6741 
 339   0.0000       3.521373        95.8214 
 340   0.0000       3.543676        96.4283 
 341   0.0000       3.552088        96.6572 
 342   0.0000       3.578691        97.3811 
 343   0.0000       3.583362        97.5082 
 344   0.0000       3.587364        97.6171 
 345   0.0000       3.599695        97.9527 
 346   0.0000       3.622590        98.5757 
 347   0.0000       3.622792        98.5812 
 348   0.0000       3.661264        99.6281 
 349   0.0000       3.679150       100.1148 
 350   0.0000       3.725833       101.3851 
 351   0.0000       3.729066       101.4731 
 352   0.0000       3.772213       102.6471 
 353   0.0000       3.795377       103.2775 
 354   0.0000       3.801431       103.4422 
 355   0.0000       3.833398       104.3121 
 356   0.0000       3.845031       104.6286 
 357   0.0000       3.872287       105.3703 
 358   0.0000       3.899820       106.1195 
 359   0.0000       3.926180       106.8368 
 360   0.0000       3.984564       108.4255 
 361   0.0000       3.990870       108.5971 
 362   0.0000       4.053091       110.2902 
 363   0.0000       4.059861       110.4744 
 364   0.0000       4.066121       110.6448 
 365   0.0000       4.081834       111.0724 
 366   0.0000       4.124935       112.2452 
 367   0.0000       4.129197       112.3612 
 368   0.0000       4.156965       113.1168 
 369   0.0000       4.190222       114.0217 
 370   0.0000       4.192840       114.0930 
 371   0.0000       4.207075       114.4803 
 372   0.0000       4.217126       114.7538 
 373   0.0000       4.248023       115.5946 
 374   0.0000       4.248250       115.6008 
 375   0.0000       4.261629       115.9648 
 376   0.0000       4.300816       117.0311 
 377   0.0000       4.332357       117.8894 
 378   0.0000       4.360353       118.6512 
 379   0.0000       4.382389       119.2509 
 380   0.0000       4.406699       119.9124 
 381   0.0000       4.416142       120.1693 
 382   0.0000       4.448456       121.0486 
 383   0.0000       4.460229       121.3690 
 384   0.0000       4.485463       122.0556 
 385   0.0000       4.545140       123.6795 
 386   0.0000       4.564883       124.2168 
 387   0.0000       4.634781       126.1188 
 388   0.0000       4.662112       126.8625 
 389   0.0000       4.688428       127.5786 
 390   0.0000       4.709764       128.1592 
 391   0.0000       4.722896       128.5165 
 392   0.0000       4.769936       129.7966 
 393   0.0000       4.802917       130.6940 
 394   0.0000       4.849245       131.9547 
 395   0.0000       4.885696       132.9465 
 396   0.0000       4.900461       133.3483 
 397   0.0000       4.920465       133.8927 
 398   0.0000       4.961273       135.0031 
 399   0.0000       5.011857       136.3796 
 400   0.0000       5.026756       136.7850 
 401   0.0000       5.143867       139.9717 
 402   0.0000       5.187707       141.1647 
 403   0.0000       5.208536       141.7315 
 404   0.0000       5.246131       142.7545 
 405   0.0000       5.265704       143.2871 
 406   0.0000       5.289137       143.9247 
 407   0.0000       5.308463       144.4506 
 408   0.0000       5.328122       144.9856 
 409   0.0000       5.412879       147.2919 
 410   0.0000       5.480934       149.1438 
 411   0.0000       5.522265       150.2685 
 412   0.0000       5.526003       150.3702 
 413   0.0000       5.553874       151.1286 
 414   0.0000       5.605457       152.5322 
 415   0.0000       5.661510       154.0575 
 416   0.0000       5.702499       155.1729 
 417   0.0000       5.737810       156.1338 
 418   0.0000       5.809051       158.0723 
 419   0.0000       5.909633       160.8093 
 420   0.0000       5.981209       162.7570 
 421   0.0000       6.096968       165.9069 
 422   0.0000       6.131869       166.8566 
 423   0.0000       6.196006       168.6019 
 424   0.0000       6.299178       171.4094 
 425   0.0000       6.377838       173.5498 
 426   0.0000       6.404792       174.2832 
 427   0.0000       6.408471       174.3834 
 428   0.0000       6.448340       175.4683 
 429   0.0000       6.562028       178.5619 
 430   0.0000       6.668365       181.4554 
 431   0.0000       6.673020       181.5821 
 432   0.0000       6.678352       181.7272 
 433   0.0000       6.724464       182.9820 
 434   0.0000       6.797815       184.9780 
 435   0.0000       6.868217       186.8937 
 436   0.0000       6.905132       187.8982 
 437   0.0000       6.911769       188.0788 
 438   0.0000       7.073582       192.4819 
 439   0.0000       7.123508       193.8405 
 440   0.0000       7.125311       193.8896 
 441   0.0000       7.151783       194.6099 
 442   0.0000       7.323160       199.2733 
 443   0.0000       7.448700       202.6894 
 444   0.0000      22.238171       605.1314 
 445   0.0000      22.450184       610.9006 
 446   0.0000      22.710523       617.9848 
 447   0.0000      22.725164       618.3831 
 448   0.0000      22.852385       621.8450 
 449   0.0000      22.875996       622.4875 
 450   0.0000      22.957603       624.7081 
 451   0.0000      23.149826       629.9388 
 452   0.0000      23.447583       638.0412 
 453   0.0000      23.551147       640.8593 
 454   0.0000      44.019100      1197.8206 
 455   0.0000      44.069327      1199.1873 
 456   0.0000      44.244719      1203.9600 

                    ********************************
                    * MULLIKEN POPULATION ANALYSIS *
                    ********************************

-----------------------
MULLIKEN ATOMIC CHARGES
-----------------------
   0 C :    0.195271
   1 C :   -0.225551
   2 C :   -0.240606
   3 H :    0.136459
   4 H :    0.136603
   5 C :   -0.299791
   6 C :   -0.280834
   7 H :    0.109307
   8 H :    0.111957
   9 C :    0.282557
  10 O :   -0.598307
  11 C :   -0.160815
  12 H :    0.126869
  13 C :   -0.261148
  14 H :    0.136976
  15 C :    0.365495
  16 O :   -0.468712
  17 O :   -0.253188
  18 C :   -0.250606
  19 H :    0.142322
  20 H :    0.142333
  21 H :    0.153411
Sum of atomic charges:   -1.0000000

--------------------------------
MULLIKEN REDUCED ORBITAL CHARGES
--------------------------------
  0 C s       :     3.132780  s :     3.132780
      pz      :     0.705832  p :     2.526754
      px      :     1.033803
      py      :     0.787119
      dz2     :     0.033166  d :     0.135340
      dxz     :     0.022588
      dyz     :     0.041794
      dx2y2   :     0.016190
      dxy     :     0.021602
      f0      :     0.001263  f :     0.009854
      f+1     :     0.001061
      f-1     :     0.003489
      f+2     :     0.000920
      f-2     :     0.001109
      f+3     :     0.001210
      f-3     :     0.000801
  1 C s       :     3.232042  s :     3.232042
      pz      :     0.964510  p :     2.882543
      px      :     0.949210
      py      :     0.968823
      dz2     :     0.018379  d :     0.103691
      dxz     :     0.025983
      dyz     :     0.038715
      dx2y2   :     0.008972
      dxy     :     0.011643
      f0      :     0.000759  f :     0.007274
      f+1     :     0.001507
      f-1     :     0.002215
      f+2     :     0.000796
      f-2     :     0.000456
      f+3     :     0.000918
      f-3     :     0.000625
  2 C s       :     3.235937  s :     3.235937
      pz      :     0.966967  p :     2.897912
      px      :     0.949087
      py      :     0.981857
      dz2     :     0.020437  d :     0.099599
      dxz     :     0.025798
      dyz     :     0.035858
      dx2y2   :     0.008778
      dxy     :     0.008729
      f0      :     0.000860  f :     0.007158
      f+1     :     0.001484
      f-1     :     0.002111
      f+2     :     0.000715
      f-2     :     0.000621
      f+3     :     0.000717
      f-3     :     0.000650
  3 H s       :     0.841721  s :     0.841721
      pz      :     0.006671  p :     0.021820
      px      :     0.004559
      py      :     0.010590
  4 H s       :     0.841137  s :     0.841137
      pz      :     0.005744  p :     0.022259
      px      :     0.004536
      py      :     0.011979
  5 C s       :     3.252224  s :     3.252224
      pz      :     0.925004  p :     2.961342
      px      :     1.081312
      py      :     0.955026
      dz2     :     0.016835  d :     0.079223
      dxz     :     0.016816
      dyz     :     0.031264
      dx2y2   :     0.008380
      dxy     :     0.005928
      f0      :     0.001011  f :     0.007003
      f+1     :     0.001463
      f-1     :     0.002071
      f+2     :     0.000792
      f-2     :     0.000436
      f+3     :     0.000613
      f-3     :     0.000617
  6 C s       :     3.248244  s :     3.248244
      pz      :     0.930400  p :     2.945378
      px      :     1.060735
      py      :     0.954243
      dz2     :     0.015986  d :     0.080202
      dxz     :     0.015991
      dyz     :     0.032950
      dx2y2   :     0.008303
      dxy     :     0.006972
      f0      :     0.000861  f :     0.007010
      f+1     :     0.001455
      f-1     :     0.002200
      f+2     :     0.000833
      f-2     :     0.000338
      f+3     :     0.000712
      f-3     :     0.000612
  7 H s       :     0.868360  s :     0.868360
      pz      :     0.005352  p :     0.022333
      px      :     0.005498
      py      :     0.011483
  8 H s       :     0.865793  s :     0.865793
      pz      :     0.006386  p :     0.022250
      px      :     0.005342
      py      :     0.010522
  9 C s       :     2.944269  s :     2.944269
      pz      :     0.850412  p :     2.581072
      px      :     0.814055
      py      :     0.916604
      dz2     :     0.032971  d :     0.175113
      dxz     :     0.056352
      dyz     :     0.055704
      dx2y2   :     0.012514
      dxy     :     0.017572
      f0      :     0.002896  f :     0.016989
      f+1     :     0.003415
      f-1     :     0.007063
      f+2     :     0.000812
      f-2     :     0.001050
      f+3     :     0.001145
      f-3     :     0.000607
 10 O s       :     3.786759  s :     3.786759
      pz      :     1.369980  p :     4.782070
      px      :     1.562746
      py      :     1.849344
      dz2     :     0.011951  d :     0.027847
      dxz     :     0.008656
      dyz     :     0.007042
      dx2y2   :     0.000119
      dxy     :     0.000078
      f0      :     0.000646  f :     0.001631
      f+1     :     0.000504
      f-1     :     0.000456
      f+2     :     0.000010
      f-2     :     0.000009
      f+3     :     0.000002
      f-3     :     0.000003
 11 C s       :     3.246772  s :     3.246772
      pz      :     0.932320  p :     2.801993
      px      :     0.878290
      py      :     0.991383
      dz2     :     0.018330  d :     0.104818
      dxz     :     0.034664
      dyz     :     0.031192
      dx2y2   :     0.010806
      dxy     :     0.009827
      f0      :     0.001174  f :     0.007231
      f+1     :     0.001296
      f-1     :     0.002106
      f+2     :     0.000625
      f-2     :     0.000754
      f+3     :     0.000778
      f-3     :     0.000499
 12 H s       :     0.850969  s :     0.850969
      pz      :     0.006354  p :     0.022162
      px      :     0.003946
      py      :     0.011862
 13 C s       :     3.204446  s :     3.204446
      pz      :     0.912515  p :     2.980577
      px      :     1.131274
      py      :     0.936788
      dz2     :     0.024099  d :     0.068969
      dxz     :     0.012684
      dyz     :     0.013578
      dx2y2   :     0.012667
      dxy     :     0.005941
      f0      :     0.001338  f :     0.007157
      f+1     :     0.000985
      f-1     :     0.002084
      f+2     :     0.000636
      f-2     :     0.000589
      f+3     :     0.000769
      f-3     :     0.000755
 14 H s       :     0.839957  s :     0.839957
      pz      :     0.004875  p :     0.023067
      px      :     0.005595
      py      :     0.012597
 15 C s       :     3.039503  s :     3.039503
      pz      :     0.831238  p :     2.313027
      px      :     0.772761
      py      :     0.709029
      dz2     :     0.057086  d :     0.257199
      dxz     :     0.041924
      dyz     :     0.061911
      dx2y2   :     0.034749
      dxy     :     0.061528
      f0      :     0.001841  f :     0.024776
      f+1     :     0.001244
      f-1     :     0.009258
      f+2     :     0.003020
      f-2     :     0.003647
      f+3     :     0.003608
      f-3     :     0.002157
 16 O s       :     3.802263  s :     3.802263
      pz      :     1.679432  p :     4.634686
      px      :     1.494610
      py      :     1.460645
      dz2     :     0.004518  d :     0.029910
      dxz     :     0.002650
      dyz     :     0.008885
      dx2y2   :     0.006188
      dxy     :     0.007669
      f0      :     0.000162  f :     0.001853
      f+1     :     0.000007
      f-1     :     0.000487
      f+2     :     0.000347
      f-2     :     0.000325
      f+3     :     0.000309
      f-3     :     0.000218
 17 O s       :     3.739656  s :     3.739656
      pz      :     1.261495  p :     4.470759
      px      :     1.720881
      py      :     1.488383
      dz2     :     0.011707  d :     0.040676
      dxz     :     0.005680
      dyz     :     0.011615
      dx2y2   :     0.006794
      dxy     :     0.004880
      f0      :     0.000521  f :     0.002097
      f+1     :     0.000251
      f-1     :     0.000425
      f+2     :     0.000296
      f-2     :     0.000157
      f+3     :     0.000204
      f-3     :     0.000241
 18 C s       :     3.249606  s :     3.249606
      pz      :     0.678401  p :     2.902620
      px      :     1.100787
      py      :     1.123433
      dz2     :     0.019106  d :     0.090732
      dxz     :     0.033248
      dyz     :     0.023156
      dx2y2   :     0.007822
      dxy     :     0.007399
      f0      :     0.002359  f :     0.007648
      f+1     :     0.002592
      f-1     :     0.001924
      f+2     :    -0.000010
      f-2     :    -0.000031
      f+3     :     0.000006
      f-3     :     0.000808
 19 H s       :     0.837276  s :     0.837276
      pz      :     0.004009  p :     0.020403
      px      :     0.010001
      py      :     0.006392
 20 H s       :     0.837264  s :     0.837264
      pz      :     0.004008  p :     0.020403
      px      :     0.010002
      py      :     0.006393
 21 H s       :     0.825967  s :     0.825967
      pz      :     0.003866  p :     0.020622
      px      :     0.004470
      py      :     0.012285


                     *******************************
                     * LOEWDIN POPULATION ANALYSIS *
                     *******************************

----------------------
LOEWDIN ATOMIC CHARGES
----------------------
   0 C :   -0.206183
   1 C :   -0.130503
   2 C :   -0.122386
   3 H :    0.152886
   4 H :    0.152333
   5 C :   -0.178880
   6 C :   -0.167214
   7 H :    0.140449
   8 H :    0.141344
   9 C :   -0.413356
  10 O :   -0.131392
  11 C :   -0.099811
  12 H :    0.162503
  13 C :   -0.198567
  14 H :    0.148109
  15 C :   -0.511245
  16 O :    0.014881
  17 O :    0.228667
  18 C :   -0.327806
  19 H :    0.113930
  20 H :    0.113931
  21 H :    0.118311

-------------------------------
LOEWDIN REDUCED ORBITAL CHARGES
-------------------------------
  0 C s       :     2.693916  s :     2.693916
      pz      :     0.987289  p :     2.932070
      px      :     0.921594
      py      :     1.023188
      dz2     :     0.143392  d :     0.522703
      dxz     :     0.064954
      dyz     :     0.170310
      dx2y2   :     0.069549
      dxy     :     0.074498
      f0      :     0.007758  f :     0.057494
      f+1     :     0.004647
      f-1     :     0.022500
      f+2     :     0.006264
      f-2     :     0.007386
      f+3     :     0.003673
      f-3     :     0.005266
  1 C s       :     2.760054  s :     2.760054
      pz      :     1.054223  p :     2.913810
[...]
     52      -0.028868  -0.007728   0.036859  -0.000972   0.000000   0.000081
     53      -0.017794  -0.008196  -0.028779  -0.002733  -0.000000   0.000302
     54       0.000003   0.000004  -0.000002  -0.000008  -0.094665   0.000001
     55       0.004253   0.003166  -0.013550   0.014762   0.000024  -0.000320
     56       0.001172   0.008698   0.027956  -0.043072   0.000020  -0.000211
     57       0.007658   0.011593   0.033525   0.523487   0.569754   0.000314
     58       0.028857   0.002966  -0.062164  -0.298056  -0.345394  -0.000260
     59       0.007590  -0.019371  -0.079181   0.202797   0.226777   0.000243
     60      -0.007645  -0.011598  -0.033578  -0.523495   0.569800  -0.000324
     61       0.028851   0.002971  -0.062133  -0.297834   0.345175  -0.000266
     62       0.007570  -0.019369  -0.079119   0.202977  -0.226985   0.000247
     63       0.000026   0.000003  -0.000056   0.000106  -0.018824   0.000002
     64      -0.023011   0.004573   0.059746   0.414763  -0.000069   0.004903
     65       0.091509   0.011950  -0.202347   0.133834  -0.000020   0.001893
                 60         61         62         63         64         65    
      0       0.000000   0.000000   0.000000  -0.000000  -0.000000   0.000000
      1      -0.001020   0.000487  -0.000001   0.002214   0.001118  -0.000252
      2      -0.002018  -0.001275   0.000032   0.000412  -0.001890  -0.000045
      3      -0.000001  -0.000000  -0.000000   0.000000  -0.000000   0.000000
      4       0.063728  -0.001737   0.000043  -0.029225   0.012618  -0.000136
      5      -0.040737   0.002233  -0.000056   0.023101  -0.009303  -0.000073
      6      -0.000000   0.000003   0.000000   0.000001   0.000003   0.000001
      7      -0.001209  -0.053089  -0.000104  -0.020124  -0.051542  -0.009667
      8       0.000738  -0.023650  -0.000069  -0.010918  -0.028107  -0.005110
      9       0.000014  -0.000000   0.000000  -0.000006   0.000002  -0.000000
     10      -0.739087   0.025137  -0.000637   0.337043  -0.142990   0.002133
     11       0.483791  -0.017583   0.000402  -0.225177   0.094186  -0.001301
     12      -0.000001  -0.000034  -0.000000  -0.000012  -0.000032  -0.000006
     13       0.009823   0.620342   0.001300   0.231200   0.591193   0.115501
     14       0.003247   0.299807   0.000622   0.114100   0.290124   0.056981
     15       0.000002   0.000000  -0.000000   0.000003  -0.000001  -0.000000
     16      -0.033323   0.002035   0.000110  -0.065073   0.024137   0.000459
     17      -0.014217   0.000944   0.000078  -0.034736   0.012558   0.000252
     18       0.000000  -0.000002   0.000000   0.000001   0.000001   0.000000
     19       0.002706   0.051173  -0.000037  -0.017265  -0.046946  -0.002154
     20      -0.001854  -0.032213   0.000049   0.012909   0.033872   0.001998
     21      -0.000018   0.000001   0.000000  -0.000034   0.000012   0.000000
     22       0.395354  -0.021923  -0.001344   0.750865  -0.277877  -0.005541
     23       0.193092  -0.011826  -0.000665   0.372580  -0.137024  -0.002867
     24       0.000001   0.000021  -0.000000  -0.000007  -0.000019  -0.000001
     25      -0.033419  -0.599277   0.000519   0.199570   0.542419   0.025505
     26       0.020992   0.390337  -0.000338  -0.132284  -0.355727  -0.016958
     27      -0.000000  -0.000000  -0.000000  -0.000000  -0.000000   0.000000
     28      -0.000040  -0.000881  -0.000002   0.002438   0.001124   0.000102
     29      -0.000710  -0.001532  -0.000015  -0.002092   0.003411   0.000168
     30      -0.000000  -0.000000  -0.000000   0.000000   0.000000  -0.000000
     31       0.000082  -0.000010   0.000001  -0.000181  -0.000142  -0.000013
     32      -0.000083   0.000208   0.000015   0.000471  -0.000953  -0.000041
     33       0.000000   0.000000   0.000000   0.000000   0.000000  -0.000001
     34       0.009855   0.001679   0.000338  -0.000875   0.001588  -0.001700
     35      -0.004847  -0.001392  -0.000192   0.000272  -0.002037   0.004941
     36      -0.000003  -0.000001  -0.000000   0.000000  -0.000001   0.000000
     37      -0.116391  -0.025895  -0.004183   0.006316  -0.029887   0.056362
     38       0.059688   0.013205   0.001962  -0.003725   0.016436  -0.026015
     39      -0.000000   0.000000  -0.000000   0.000000  -0.000000  -0.000001
     40      -0.001259   0.005608  -0.000004   0.003125   0.009049  -0.080512
     41       0.000450  -0.001943   0.000062  -0.001346  -0.002569   0.028001
     42      -0.000000  -0.000000  -0.000000  -0.000000  -0.000001   0.000006
     43       0.011663  -0.061797  -0.000623  -0.034983  -0.099690   0.926242
     44      -0.004689   0.021842   0.000342   0.012600   0.035273  -0.336477
     45      -0.000000  -0.000000  -0.000000   0.000000  -0.000000   0.000000
     46       0.000202   0.000156   0.000302  -0.000032   0.000313  -0.001157
     47      -0.000351   0.000204  -0.001200   0.000350  -0.000164  -0.003097
     48       0.000000   0.000000   0.000000  -0.000000   0.000000  -0.000000
     49      -0.000150  -0.000044  -0.000211   0.000058  -0.000193   0.000349
     50       0.000068  -0.000008   0.000396  -0.000061   0.000139  -0.000113
     51       0.000000  -0.000000  -0.000000  -0.000000   0.000000   0.000000
     52       0.000040  -0.000015  -0.000193  -0.000041   0.000049   0.000265
     53       0.000087  -0.000021  -0.000103  -0.000070   0.000075   0.000378
     54       0.000000   0.000000   0.000026  -0.000000  -0.000000   0.000000
     55      -0.000029  -0.000082   0.093733   0.000079  -0.000202   0.000236
     56      -0.000069  -0.000014   0.007726   0.000048  -0.000123   0.000122
     57       0.000327  -0.000123   0.253024   0.000009   0.000109  -0.000536
     58      -0.000195   0.000057  -0.127809   0.000008  -0.000092   0.000345
     59       0.000188  -0.000038   0.096223  -0.000050   0.000183  -0.000313
     60      -0.000329   0.000123  -0.253117  -0.000008  -0.000109   0.000534
     61      -0.000196   0.000057  -0.127761   0.000008  -0.000092   0.000343
     62       0.000189  -0.000038   0.096347  -0.000051   0.000183  -0.000313
     63       0.000000   0.000000  -0.000214  -0.000000   0.000001  -0.000001
     64       0.000887   0.000662  -0.857634  -0.001114   0.002363  -0.001029
     65       0.000369   0.000185  -0.276225  -0.000426   0.000805   0.000125


-----------
IR SPECTRUM
-----------

 Mode   freq       eps      Int      T**2         TX        TY        TZ
       cm**-1   L/(mol*cm) km/mol    a.u.
----------------------------------------------------------------------------
  6:     45.98   0.000044    0.22  0.000300  ( 0.017313 -0.000009  0.000029)
  7:     66.33   0.001194    6.04  0.005619  ( 0.074963  0.000028  0.000030)
  8:     77.56   0.000431    2.18  0.001734  ( 0.000034 -0.034966 -0.022617)
  9:    102.60   0.001971    9.96  0.005995  ( 0.077430  0.000003  0.000038)
 10:    157.67   0.000005    0.03  0.000011  (-0.003261  0.000021  0.000017)
 11:    192.02   0.000004    0.02  0.000007  (-0.002601  0.000008 -0.000025)
 12:    206.23   0.001770    8.95  0.002679  (-0.000013 -0.041948 -0.030319)
 13:    224.42   0.000686    3.47  0.000955  ( 0.030896 -0.000017  0.000007)
 14:    268.06   0.002394   12.10  0.002788  ( 0.000010  0.044892 -0.027790)
 15:    344.16   0.007625   38.54  0.006914  (-0.000007 -0.036865 -0.074534)
 16:    363.95   0.000537    2.71  0.000460  (-0.021459 -0.000012  0.000020)
 17:    433.50   0.000051    0.26  0.000036  (-0.006037 -0.000007 -0.000024)
 18:    452.26   0.004344   21.95  0.002997  (-0.000001  0.039790  0.037604)
 19:    513.07   0.006778   34.25  0.004123  (-0.064208  0.000083  0.000195)
 20:    514.27   0.009251   46.75  0.005614  ( 0.000164  0.031239  0.068100)
 21:    527.69   0.036786  185.90  0.021754  ( 0.000006 -0.016416 -0.146578)
 22:    642.19   0.000682    3.45  0.000332  (-0.000001  0.005734  0.017282)
 23:    725.27   0.004927   24.90  0.002120  (-0.000006  0.023598  0.039539)
 24:    735.46   0.000428    2.16  0.000181  ( 0.013469  0.000011  0.000051)
 25:    775.91   0.001291    6.52  0.000519  (-0.022786  0.000001  0.000019)
 26:    806.14   0.000108    0.55  0.000042  (-0.006461  0.000001 -0.000011)
 27:    822.31   0.003351   16.93  0.001272  (-0.000009  0.030633  0.018255)
 28:    851.63   0.028395  143.50  0.010405  ( 0.102004  0.000012  0.000065)
 29:    855.67   0.002748   13.88  0.001002  (-0.000087 -0.018515  0.025675)
 30:    866.17   0.006614   33.43  0.002383  ( 0.048815 -0.000007 -0.000017)
 31:    967.37   0.000102    0.52  0.000033  ( 0.005732  0.000133  0.000075)
 32:    968.42   0.003803   19.22  0.001225  (-0.000006  0.030942  0.016372)
 33:    976.59   0.000007    0.04  0.000002  ( 0.001507 -0.000002 -0.000005)
 34:    996.38   0.006648   33.60  0.002082  (-0.000003  0.004690  0.045389)
 35:   1017.96   0.007591   38.36  0.002327  ( 0.048239 -0.000026 -0.000054)
 36:   1075.06   0.000476    2.40  0.000138  (-0.000009  0.010475 -0.005325)
 37:   1108.68   0.009108   46.03  0.002564  (-0.000001  0.045193  0.022830)
 38:   1158.14   0.457952  2314.30  0.123397  ( 0.000003 -0.083772 -0.341143)
 39:   1170.20   0.000162    0.82  0.000043  ( 0.006565  0.000003 -0.000014)
 40:   1187.45   0.205441  1038.21  0.053990  ( 0.000006  0.089335  0.214498)
 41:   1208.25   0.029067  146.89  0.007507  ( 0.000007  0.033897  0.079739)
 42:   1232.88   0.102365  517.31  0.025910  (-0.000004  0.059674  0.149497)
 43:   1279.63   0.000108    0.54  0.000026  ( 0.000001 -0.003277  0.003938)
 44:   1315.16   0.000901    4.55  0.000214  ( 0.000005  0.014617  0.000110)
 45:   1342.79   0.027181  137.36  0.006317  ( 0.000007  0.024246 -0.075691)
 46:   1368.33   0.072148  364.61  0.016454  ( 0.000000 -0.053417 -0.116622)
 47:   1436.92   0.096038  485.34  0.020857  ( 0.000003  0.005694 -0.144308)
 48:   1463.75   0.002728   13.79  0.000582  (-0.024117 -0.000057 -0.000047)
 49:   1465.77   0.004879   24.66  0.001039  (-0.000057  0.023148  0.022427)
 50:   1478.08   0.009746   49.25  0.002058  ( 0.000005  0.023588  0.038745)
 51:   1500.22   0.132294  668.56  0.027519  ( 0.000009 -0.030103 -0.163134)
 52:   1544.43   0.253022  1278.67  0.051125  (-0.000009 -0.020143  0.225210)
 53:   1557.57   0.517870  2617.10  0.103757  ( 0.000013 -0.045968 -0.318816)
 54:   1605.01   0.287344  1452.12  0.055869  ( 0.000019 -0.013920 -0.235955)
 55:   1671.11   0.000740    3.74  0.000138  ( 0.000006 -0.011753  0.000070)
 56:   1719.11   0.083261  420.77  0.015114  (-0.000005 -0.109207  0.056461)
 57:   3059.93   0.012841   64.89  0.001310  (-0.000005 -0.003733 -0.035995)
 58:   3136.02   0.006451   32.60  0.000642  (-0.025337  0.000005  0.000010)
 59:   3147.17   0.001034    5.23  0.000103  (-0.000000  0.009141 -0.004360)
 60:   3156.63   0.004500   22.74  0.000445  (-0.000000  0.009734 -0.018710)
 61:   3164.86   0.003889   19.65  0.000383  ( 0.000000  0.001195 -0.019546)
 62:   3171.47   0.004228   21.37  0.000416  ( 0.000005  0.019970  0.004150)
 63:   3179.55   0.011767   59.46  0.001155  ( 0.000002 -0.032348 -0.010413)
 64:   3184.15   0.004395   22.21  0.000431  (-0.000001 -0.010141  0.018107)
 65:   3207.92   0.002233   11.29  0.000217  ( 0.000000 -0.011286  0.009480)

* The epsilon (eps) is given for a Dirac delta lineshape.
** The dipole moment derivative (T) already includes vibrational overlap.

The first frequency considered to be a vibration is 6
The total number of vibrations considered is 60


--------------------------
THERMOCHEMISTRY AT 298.15K
--------------------------

Temperature         ... 298.15 K
Pressure            ... 1.00 atm
Total Mass          ... 177.18 AMU

Throughout the following assumptions are being made:
  (1) The electronic state is orbitally nondegenerate
  (2) There are no thermally accessible electronically excited states
  (3) Hindered rotations indicated by low frequency modes are not
      treated as such but are treated as vibrations and this may
      cause some error
  (4) All equations used are the standard statistical mechanics
      equations for an ideal gas
  (5) All vibrations are strictly harmonic

freq.      45.98  E(vib)   ...       0.53 
freq.      66.33  E(vib)   ...       0.50 
freq.      77.56  E(vib)   ...       0.49 
freq.     102.60  E(vib)   ...       0.46 
freq.     157.67  E(vib)   ...       0.40 
freq.     192.02  E(vib)   ...       0.36 
freq.     206.23  E(vib)   ...       0.35 
freq.     224.42  E(vib)   ...       0.33 
freq.     268.06  E(vib)   ...       0.29 
freq.     344.16  E(vib)   ...       0.23 
freq.     363.95  E(vib)   ...       0.22 
freq.     433.50  E(vib)   ...       0.17 
freq.     452.26  E(vib)   ...       0.16 
freq.     513.07  E(vib)   ...       0.13 
freq.     514.27  E(vib)   ...       0.13 
freq.     527.69  E(vib)   ...       0.13 
freq.     642.19  E(vib)   ...       0.09 
freq.     725.27  E(vib)   ...       0.06 
freq.     735.46  E(vib)   ...       0.06 
freq.     775.91  E(vib)   ...       0.05 
freq.     806.14  E(vib)   ...       0.05 
freq.     822.31  E(vib)   ...       0.05 
freq.     851.63  E(vib)   ...       0.04 
freq.     855.67  E(vib)   ...       0.04 
freq.     866.17  E(vib)   ...       0.04 
freq.     967.37  E(vib)   ...       0.03 
freq.     968.42  E(vib)   ...       0.03 
freq.     976.59  E(vib)   ...       0.03 
freq.     996.38  E(vib)   ...       0.02 
freq.    1017.96  E(vib)   ...       0.02 
freq.    1075.06  E(vib)   ...       0.02 
freq.    1108.68  E(vib)   ...       0.02 
freq.    1158.14  E(vib)   ...       0.01 
freq.    1170.20  E(vib)   ...       0.01 
freq.    1187.45  E(vib)   ...       0.01 
freq.    1208.25  E(vib)   ...       0.01 
freq.    1232.88  E(vib)   ...       0.01 
freq.    1279.63  E(vib)   ...       0.01 
freq.    1315.16  E(vib)   ...       0.01 
freq.    1342.79  E(vib)   ...       0.01 
freq.    1368.33  E(vib)   ...       0.01 
freq.    1436.92  E(vib)   ...       0.00 
freq.    1463.75  E(vib)   ...       0.00 
freq.    1465.77  E(vib)   ...       0.00 
freq.    1478.08  E(vib)   ...       0.00 
freq.    1500.22  E(vib)   ...       0.00 
freq.    1544.43  E(vib)   ...       0.00 
freq.    1557.57  E(vib)   ...       0.00 
freq.    1605.01  E(vib)   ...       0.00 
freq.    1671.11  E(vib)   ...       0.00 
freq.    1719.11  E(vib)   ...       0.00 
freq.    3059.93  E(vib)   ...       0.00 
freq.    3136.02  E(vib)   ...       0.00 
freq.    3147.17  E(vib)   ...       0.00 
freq.    3156.63  E(vib)   ...       0.00 
freq.    3164.86  E(vib)   ...       0.00 
freq.    3171.47  E(vib)   ...       0.00 
freq.    3179.55  E(vib)   ...       0.00 
freq.    3184.15  E(vib)   ...       0.00 
freq.    3207.92  E(vib)   ...       0.00 

------------
INNER ENERGY
------------

The inner energy is: U= E(el) + E(ZPE) + E(vib) + E(rot) + E(trans)
    E(el)   - is the total energy from the electronic structure calculation
              = E(kin-el) + E(nuc-el) + E(el-el) + E(nuc-nuc)
    E(ZPE)  - the the zero temperature vibrational energy from the frequency calculation
    E(vib)  - the the finite temperature correction to E(ZPE) due to population
              of excited vibrational states
    E(rot)  - is the rotational thermal energy
    E(trans)- is the translational thermal energy

Summary of contributions to the inner energy U:
Electronic energy                ...   -611.85222608 Eh
Zero point energy                ...      0.16811390 Eh     105.49 kcal/mol
Thermal vibrational correction   ...      0.00896230 Eh       5.62 kcal/mol
Thermal rotational correction    ...      0.00141627 Eh       0.89 kcal/mol
Thermal translational correction ...      0.00141627 Eh       0.89 kcal/mol
-----------------------------------------------------------------------
Total thermal energy                   -611.67231734 Eh


Summary of corrections to the electronic energy:
(perhaps to be used in another calculation)
Total thermal correction                  0.01179485 Eh       7.40 kcal/mol
Non-thermal (ZPE) correction              0.16811390 Eh     105.49 kcal/mol
-----------------------------------------------------------------------
Total correction                          0.17990875 Eh     112.89 kcal/mol


--------
ENTHALPY
--------

The enthalpy is H = U + kB*T
                kB is Boltzmann's constant
Total free energy                 ...   -611.67231734 Eh 
Thermal Enthalpy correction       ...      0.00094421 Eh       0.59 kcal/mol
-----------------------------------------------------------------------
Total Enthalpy                    ...   -611.67137313 Eh


Note: Only C1 symmetry has been detected, increase convergence thresholds 
      if your molecule has a higher symmetry. Symmetry factor of 1.0 is   
      used for the rotational entropy correction. 
 

Note: Rotational entropy computed according to Herzberg 
Infrared and Raman Spectra, Chapter V,1, Van Nostrand Reinhold, 1945 
Point Group:  C1, Symmetry Number:   1  
Rotational constants in cm-1:     0.114611     0.009199     0.008529 

Vibrational entropy computed according to the QRRHO of S. Grimme
Chem.Eur.J. 2012 18 9955


-------
ENTROPY
-------

The entropy contributions are T*S = T*(S(el)+S(vib)+S(rot)+S(trans))
     S(el)   - electronic entropy
     S(vib)  - vibrational entropy
     S(rot)  - rotational entropy
     S(trans)- translational entropy
The entropies will be listed as multiplied by the temperature to get
units of energy

Electronic entropy                ...      0.00000000 Eh      0.00 kcal/mol
Vibrational entropy               ...      0.01560052 Eh      9.79 kcal/mol
Rotational entropy                ...      0.01499613 Eh      9.41 kcal/mol
Translational entropy             ...      0.01968134 Eh     12.35 kcal/mol
-----------------------------------------------------------------------
Final entropy term                ...      0.05027798 Eh     31.55 kcal/mol

In case the symmetry of your molecule has not been determined correctly
or in case you have a reason to use a different symmetry number we print 
out the resulting rotational entropy values for sn=1,12 :
 --------------------------------------------------------
|  sn= 1 | S(rot)=       0.01499613 Eh      9.41 kcal/mol|
|  sn= 2 | S(rot)=       0.01434167 Eh      9.00 kcal/mol|
|  sn= 3 | S(rot)=       0.01395884 Eh      8.76 kcal/mol|
|  sn= 4 | S(rot)=       0.01368721 Eh      8.59 kcal/mol|
|  sn= 5 | S(rot)=       0.01347653 Eh      8.46 kcal/mol|
|  sn= 6 | S(rot)=       0.01330438 Eh      8.35 kcal/mol|
|  sn= 7 | S(rot)=       0.01315883 Eh      8.26 kcal/mol|
|  sn= 8 | S(rot)=       0.01303276 Eh      8.18 kcal/mol|
|  sn= 9 | S(rot)=       0.01292155 Eh      8.11 kcal/mol|
|  sn=10 | S(rot)=       0.01282207 Eh      8.05 kcal/mol|
|  sn=11 | S(rot)=       0.01273208 Eh      7.99 kcal/mol|
|  sn=12 | S(rot)=       0.01264992 Eh      7.94 kcal/mol|
 --------------------------------------------------------


-------------------
GIBBS FREE ENERGY
-------------------

The Gibbs free energy is G = H - T*S

Total enthalpy                    ...   -611.67137313 Eh 
Total entropy correction          ...     -0.05027798 Eh    -31.55 kcal/mol
-----------------------------------------------------------------------
Final Gibbs free energy         ...   -611.72165111 Eh

For completeness - the Gibbs free energy minus the electronic energy
G-E(el)                           ...      0.13057498 Eh     81.94 kcal/mol


Timings for individual modules:

Sum of individual times         ...      482.395 sec (=   8.040 min)
GTO integral calculation        ...        7.245 sec (=   0.121 min)   1.5 %
SCF iterations                  ...      108.798 sec (=   1.813 min)  22.6 %
SCF Gradient evaluation         ...       25.319 sec (=   0.422 min)   5.2 %
Geometry relaxation             ...        0.301 sec (=   0.005 min)   0.1 %
Analytical frequency calculation...      340.731 sec (=   5.679 min)  70.6 %
                             ****ORCA TERMINATED NORMALLY****
TOTAL RUN TIME: 0 days 0 hours 8 minutes 15 seconds 198 msec
