
                                 *****************
                                 * O   R   C   A *
                                 *****************

                                            #,                                       
                                            ###                                      
                                            ####                                     
                                            #####                                    
                                            ######                                   
                                           ########,                                 
                                     ,,################,,,,,                         
                               ,,#################################,,                 
                          ,,##########################################,,             
                       ,#########################################, ''#####,          
                    ,#############################################,,   '####,        
                  ,##################################################,,,,####,       
                ,###########''''           ''''###############################       
              ,#####''   ,,,,##########,,,,          '''####'''          '####       
            ,##' ,,,,###########################,,,                        '##       
           ' ,,###''''                  '''############,,,                           
         ,,##''                                '''############,,,,        ,,,,,,###''
      ,#''                                            '''#######################'''  
     '                                                          ''''####''''         
             ,#######,   #######,   ,#######,      ##                                
            ,#'     '#,  ##    ##  ,#'     '#,    #''#        ######   ,####,        
            ##       ##  ##   ,#'  ##            #'  '#       #        #'  '#        
            ##       ##  #######   ##           ,######,      #####,   #    #        
            '#,     ,#'  ##    ##  '#,     ,#' ,#      #,         ##   #,  ,#        
             '#######'   ##     ##  '#######'  #'      '#     #####' # '####'        



                  #######################################################
                  #                        -***-                        #
                  #          Department of theory and spectroscopy      #
                  #    Directorship and core code : Frank Neese         #
                  #        Max Planck Institute fuer Kohlenforschung    #
                  #                Kaiser Wilhelm Platz 1               #
                  #                 D-45470 Muelheim/Ruhr               #
                  #                      Germany                        #
                  #                                                     #
                  #                  All rights reserved                #
                  #                        -***-                        #
                  #######################################################


                         Program Version 5.0.4 -  RELEASE  -


 With contributions from (in alphabetic order):
   Daniel Aravena         : Magnetic Suceptibility
   Michael Atanasov       : Ab Initio Ligand Field Theory (pilot matlab implementation)
   Alexander A. Auer      : GIAO ZORA, VPT2 properties, NMR spectrum
   Ute Becker             : Parallelization
   Giovanni Bistoni       : ED, misc. LED, open-shell LED, HFLD
   Martin Brehm           : Molecular dynamics
   Dmytro Bykov           : SCF Hessian
   Vijay G. Chilkuri      : MRCI spin determinant printing, contributions to CSF-ICE
   Dipayan Datta          : RHF DLPNO-CCSD density
   Achintya Kumar Dutta   : EOM-CC, STEOM-CC
   Dmitry Ganyushin       : Spin-Orbit,Spin-Spin,Magnetic field MRCI
   Miquel Garcia          : C-PCM and meta-GGA Hessian, CC/C-PCM, Gaussian charge scheme
   Yang Guo               : DLPNO-NEVPT2, F12-NEVPT2, CIM, IAO-localization
   Andreas Hansen         : Spin unrestricted coupled pair/coupled cluster methods
   Benjamin Helmich-Paris : MC-RPA, TRAH-SCF, COSX integrals
   Lee Huntington         : MR-EOM, pCC
   Robert Izsak           : Overlap fitted RIJCOSX, COSX-SCS-MP3, EOM
   Marcus Kettner         : VPT2
   Christian Kollmar      : KDIIS, OOCD, Brueckner-CCSD(T), CCSD density, CASPT2, CASPT2-K
   Simone Kossmann        : Meta GGA functionals, TD-DFT gradient, OOMP2, MP2 Hessian
   Martin Krupicka        : Initial AUTO-CI
   Lucas Lang             : DCDCAS
   Marvin Lechner         : AUTO-CI (C++ implementation), FIC-MRCC
   Dagmar Lenk            : GEPOL surface, SMD
   Dimitrios Liakos       : Extrapolation schemes; Compound Job, initial MDCI parallelization
   Dimitrios Manganas     : Further ROCIS development; embedding schemes
   Dimitrios Pantazis     : SARC Basis sets
   Anastasios Papadopoulos: AUTO-CI, single reference methods and gradients
   Taras Petrenko         : DFT Hessian,TD-DFT gradient, ASA, ECA, R-Raman, ABS, FL, XAS/XES, NRVS
   Peter Pinski           : DLPNO-MP2, DLPNO-MP2 Gradient
   Christoph Reimann      : Effective Core Potentials
   Marius Retegan         : Local ZFS, SOC
   Christoph Riplinger    : Optimizer, TS searches, QM/MM, DLPNO-CCSD(T), (RO)-DLPNO pert. Triples
   Tobias Risthaus        : Range-separated hybrids, TD-DFT gradient, RPA, STAB
   Michael Roemelt        : Original ROCIS implementation
   Masaaki Saitow         : Open-shell DLPNO-CCSD energy and density
   Barbara Sandhoefer     : DKH picture change effects
   Avijit Sen             : IP-ROCIS
   Kantharuban Sivalingam : CASSCF convergence, NEVPT2, FIC-MRCI
   Bernardo de Souza      : ESD, SOC TD-DFT
   Georgi Stoychev        : AutoAux, RI-MP2 NMR, DLPNO-MP2 response
   Willem Van den Heuvel  : Paramagnetic NMR
   Boris Wezisla          : Elementary symmetry handling
   Frank Wennmohs         : Technical directorship


 We gratefully acknowledge several colleagues who have allowed us to
 interface, adapt or use parts of their codes:
   Stefan Grimme, W. Hujo, H. Kruse, P. Pracht,  : VdW corrections, initial TS optimization,
                  C. Bannwarth, S. Ehlert          DFT functionals, gCP, sTDA/sTD-DF
   Ed Valeev, F. Pavosevic, A. Kumar             : LibInt (2-el integral package), F12 methods
   Garnet Chan, S. Sharma, J. Yang, R. Olivares  : DMRG
   Ulf Ekstrom                                   : XCFun DFT Library
   Mihaly Kallay                                 : mrcc  (arbitrary order and MRCC methods)
   Jiri Pittner, Ondrej Demel                    : Mk-CCSD
   Frank Weinhold                                : gennbo (NPA and NBO analysis)
   Christopher J. Cramer and Donald G. Truhlar   : smd solvation model
   Lars Goerigk                                  : TD-DFT with DH, B97 family of functionals
   V. Asgeirsson, H. Jonsson                     : NEB implementation
   FAccTs GmbH                                   : IRC, NEB, NEB-TS, DLPNO-Multilevel, CI-OPT
                                                   MM, QMMM, 2- and 3-layer-ONIOM, Crystal-QMMM,
                                                   LR-CPCM, SF, NACMEs, symmetry and pop. for TD-DFT,
                                                   nearIR, NL-DFT gradient (VV10), updates on ESD,
                                                   ML-optimized integration grids
   S Lehtola, MJT Oliveira, MAL Marques          : LibXC Library
   Liviu Ungur et al                             : ANISO software


 Your calculation uses the libint2 library for the computation of 2-el integrals
 For citations please refer to: http://libint.valeyev.net

 Your ORCA version has been built with support for libXC version: 5.1.0
 For citations please refer to: https://tddft.org/programs/libxc/

 This ORCA versions uses:
   CBLAS   interface :  Fast vector & matrix operations
   LAPACKE interface :  Fast linear algebra routines
   SCALAPACK package :  Parallel linear algebra routines
   Shared memory     :  Shared parallel matrices
   BLAS/LAPACK       :  OpenBLAS 0.3.15  USE64BITINT DYNAMIC_ARCH NO_AFFINITY Haswell SINGLE_THREADED
        Core in use  :  Haswell
   Copyright (c) 2011-2014, The OpenBLAS Project


Your calculation utilizes the atom-pairwise dispersion correction
with the Becke-Johnson damping scheme (D3BJ)
Cite in your paper:
S.Grimme, S.Ehrlich, L.Goerigk, J Comput Chem, (2011), 32, 1456–1465 
S.Grimme, J.Antony, S.Ehrlich and H.Krieg, J.Chem.Phys., 132, (2010), 154104 
   

================================================================================

----- Orbital basis set information -----
Your calculation utilizes the basis: def2-TZVP
   F. Weigend and R. Ahlrichs, Phys. Chem. Chem. Phys. 7, 3297 (2005).

----- AuxJ basis set information -----
Your calculation utilizes the auxiliary basis: def2/J
   F. Weigend, Phys. Chem. Chem. Phys. 8, 1057 (2006).

================================================================================
                                        WARNINGS
                       Please study these warnings very carefully!
================================================================================


WARNING: Geometry Optimization
  ===> : Switching off AutoStart
         For restart on a previous wavefunction, please use MOREAD

INFO   : the flag for use of the SHARK integral package has been found!

================================================================================
                                       INPUT FILE
================================================================================
NAME = CHCHNMe2-PhenOH/CHCHNMe2-PhenOH.inp
|  1> %pal nprocs 24 end
|  2> %maxcore 3500
|  3> ! PBE0 D3BJ def2-TZVP TightSCF OPT FREQ TightOpt
|  4> ! CPCM(dmso)
|  5> %scf
|  6> MaxIter 800
|  7> end
|  8> %geom
|  9> MaxIter 800
| 10> MaxStep 0.2
| 11> end
| 12> *xyz 0 1
| 13> 
| 14> C      -0.05626300     -0.50286300     -1.62095500
| 15> C      -0.24882200      0.66875000     -0.88056800
| 16> C       0.19938100     -1.67233200     -0.89054600
| 17> H      -0.43917200      1.59863300     -1.40749700
| 18> H       0.38945000     -2.60535300     -1.40952300
| 19> C      -0.21176300      0.67957800      0.50499000
| 20> C       0.23225300     -1.67600900      0.49210300
| 21> H      -0.36692400      1.60696800      1.04841400
| 22> H       0.43240300     -2.59330600      1.03512700
| 23> C       0.02351900     -0.49803100      1.20238300
| 24> O       0.06986000     -0.55346600      2.56081300
| 25> H      -0.08919600      0.32520800      2.92418600
| 26> C      -0.12925100     -0.44990700     -3.07501300
| 27> H      -0.14651800      0.54496400     -3.50807300
| 28> C      -0.19353000     -1.52847900     -3.88396700
| 29> H      -0.24847000     -2.52574300     -3.45599200
| 30> N      -0.17306700     -1.53242400     -5.24747600
| 31> C      -0.77756000     -2.65132400     -5.93240000
| 32> H      -0.32857000     -2.76655300     -6.92103200
| 33> H      -0.60463100     -3.56535800     -5.36253600
| 34> H      -1.86208500     -2.52486700     -6.06002100
| 35> C      -0.19331200     -0.27615400     -5.94864400
| 36> H      -0.03575300     -0.45760800     -7.01202900
| 37> H      -1.14746900      0.25709300     -5.82322100
| 38> H       0.60691200      0.37209100     -5.58423700
| 39> *
| 40> 
| 41>                          ****END OF INPUT****
================================================================================

                       *****************************
                       * Geometry Optimization Run *
                       *****************************

Geometry optimization settings:
Update method            Update   .... BFGS
Choice of coordinates    CoordSys .... Z-matrix Internals
Initial Hessian          InHess   .... Almoef's Model

Convergence Tolerances:
Energy Change            TolE     ....  1.0000e-06 Eh
Max. Gradient            TolMAXG  ....  1.0000e-04 Eh/bohr
RMS Gradient             TolRMSG  ....  3.0000e-05 Eh/bohr
Max. Displacement        TolMAXD  ....  1.0000e-03 bohr
RMS Displacement         TolRMSD  ....  6.0000e-04 bohr
Strict Convergence                ....  False
------------------------------------------------------------------------------
                        ORCA OPTIMIZATION COORDINATE SETUP
------------------------------------------------------------------------------

The optimization will be done in new redundant internal coordinates
Making redundant internal coordinates   ...  (new redundants) done
Evaluating the initial hessian          ...  (Almloef) done
Evaluating the coordinates              ...  done
Calculating the B-matrix                .... done
Calculating the G-matrix                .... done
Diagonalizing the G-matrix              .... done
Small eigenvalue found = 6.140e-03
Small eigenvalue found = 2.774e-02
The first mode is                       ....   46
The number of degrees of freedom        ....   69

    -----------------------------------------------------------------
                    Redundant Internal Coordinates


    -----------------------------------------------------------------
         Definition                    Initial Value    Approx d2E/dq
    -----------------------------------------------------------------
      1. B(C   1,C   0)                  1.3993         0.603899   
      2. B(C   2,C   0)                  1.4023         0.597143   
      3. B(H   3,C   1)                  1.0856         0.365942   
      4. B(H   4,C   2)                  1.0844         0.367542   
      5. B(C   5,C   1)                  1.3861         0.633822   
      6. B(C   6,C   2)                  1.3830         0.640967   
      7. B(H   7,C   5)                  1.0860         0.365405   
      8. B(H   8,C   6)                  1.0846         0.367308   
      9. B(C   9,C   6)                  1.3913         0.621833   
     10. B(C   9,C   5)                  1.3887         0.627796   
     11. B(O  10,C   9)                  1.3604         0.623993   
     12. B(H  11,O  10)                  0.9641         0.512263   
     13. B(C  12,C   0)                  1.4569         0.488744   
     14. B(H  13,C  12)                  1.0852         0.366538   
     15. B(C  14,C  12)                  1.3498         0.724330   
     16. B(H  15,C  14)                  1.0866         0.364616   
     17. B(N  16,C  14)                  1.3637         0.616433   
     18. B(C  17,N  16)                  1.4445         0.458126   
     19. B(H  18,C  17)                  1.0919         0.357585   
     20. B(H  19,C  17)                  1.0909         0.358884   
     21. B(H  20,C  17)                  1.0993         0.347998   
     22. B(C  21,N  16)                  1.4388         0.467686   
     23. B(H  22,C  21)                  1.0902         0.359834   
     24. B(H  23,C  21)                  1.1002         0.346822   
     25. B(H  24,C  21)                  1.0924         0.356918   
     26. A(C   1,C   0,C   2)          116.6002         0.429113   
     27. A(C   1,C   0,C  12)          119.3920         0.414037   
     28. A(C   2,C   0,C  12)          124.0077         0.413210   
     29. A(C   0,C   1,H   3)          118.9797         0.352299   
     30. A(H   3,C   1,C   5)          118.8933         0.355197   
     31. A(C   0,C   1,C   5)          122.1261         0.433733   
     32. A(H   4,C   2,C   6)          118.1629         0.356137   
     33. A(C   0,C   2,H   4)          120.0132         0.351889   
     34. A(C   0,C   2,C   6)          121.8204         0.433730   
     35. A(H   7,C   5,C   9)          119.8052         0.354534   
     36. A(C   1,C   5,C   9)          119.9936         0.436775   
     37. A(C   1,C   5,H   7)          120.2012         0.355109   
     38. A(H   8,C   6,C   9)          119.2197         0.354273   
     39. A(C   2,C   6,C   9)          120.3018         0.436906   
     40. A(C   2,C   6,H   8)          120.4746         0.356098   
     41. A(C   5,C   9,O  10)          122.8070         0.432695   
     42. A(C   5,C   9,C   6)          119.1449         0.435275   
     43. A(C   6,C   9,O  10)          118.0462         0.431953   
     44. A(C   9,O  10,H  11)          109.4891         0.369577   
     45. A(H  13,C  12,C  14)          119.5152         0.363463   
     46. A(C   0,C  12,C  14)          124.8564         0.427694   
     47. A(C   0,C  12,H  13)          115.6216         0.340080   
     48. A(H  15,C  14,N  16)          113.0741         0.351134   
     49. A(C  12,C  14,N  16)          126.9314         0.443026   
     50. A(C  12,C  14,H  15)          119.9824         0.363137   
     51. A(C  14,N  16,C  17)          118.0394         0.405531   
     52. A(C  17,N  16,C  21)          116.0634         0.386352   
     53. A(C  14,N  16,C  21)          118.9811         0.407014   
     54. A(H  18,C  17,H  20)          108.2218         0.288966   
     55. A(N  16,C  17,H  20)          112.2597         0.331529   
     56. A(H  18,C  17,H  19)          108.6243         0.290365   
     57. A(N  16,C  17,H  19)          109.5715         0.333226   
     58. A(N  16,C  17,H  18)          109.8151         0.333025   
     59. A(H  19,C  17,H  20)          108.2648         0.289130   
     60. A(H  23,C  21,H  24)          108.0376         0.288729   
     61. A(H  22,C  21,H  24)          108.5586         0.290401   
     62. A(N  16,C  21,H  24)          110.1967         0.334065   
     63. A(H  22,C  21,H  23)          108.4935         0.289097   
     64. A(N  16,C  21,H  23)          112.3226         0.332478   
     65. A(N  16,C  21,H  22)          109.1458         0.334517   
     66. D(C   5,C   1,C   0,C   2)     -0.9906         0.025159   
     67. D(C   5,C   1,C   0,C  12)    179.0064         0.025159   
     68. D(H   3,C   1,C   0,C  12)     -0.6303         0.025159   
     69. D(H   3,C   1,C   0,C   2)    179.3727         0.025159   
     70. D(H   4,C   2,C   0,C   1)   -177.9834         0.024569   
     71. D(C   6,C   2,C   0,C   1)      1.3168         0.024569   
     72. D(H   4,C   2,C   0,C  12)      2.0197         0.024569   
     73. D(C   6,C   2,C   0,C  12)   -178.6801         0.024569   
     74. D(C   9,C   5,C   1,C   0)      0.0529         0.027876   
     75. D(H   7,C   5,C   1,H   3)     -0.2705         0.027876   
     76. D(H   7,C   5,C   1,C   0)   -179.9075         0.027876   
     77. D(C   9,C   5,C   1,H   3)    179.6899         0.027876   
     78. D(H   8,C   6,C   2,H   4)     -0.6678         0.028550   
     79. D(C   9,C   6,C   2,C   0)     -0.7091         0.028550   
     80. D(H   8,C   6,C   2,C   0)   -179.9805         0.028550   
     81. D(C   9,C   6,C   2,H   4)    178.6036         0.028550   
     82. D(O  10,C   9,C   6,H   8)     -0.5257         0.026767   
     83. D(C   5,C   9,C   6,H   8)    178.9960         0.026767   
     84. D(C   5,C   9,C   6,C   2)     -0.2845         0.026767   
     85. D(O  10,C   9,C   5,H   7)      0.0634         0.027315   
     86. D(O  10,C   9,C   5,C   1)   -179.8972         0.027315   
     87. D(O  10,C   9,C   6,C   2)   -179.8062         0.026767   
     88. D(C   6,C   9,C   5,H   7)   -179.4344         0.027315   
     89. D(C   6,C   9,C   5,C   1)      0.6050         0.027315   
     90. D(H  11,O  10,C   9,C   6)    179.9376         0.028594   
     91. D(H  11,O  10,C   9,C   5)      0.4345         0.028594   
     92. D(C  14,C  12,C   0,C   2)     12.0673         0.016265   
     93. D(C  14,C  12,C   0,C   1)   -167.9296         0.016265   
     94. D(H  13,C  12,C   0,C   2)   -168.8944         0.016265   
     95. D(H  13,C  12,C   0,C   1)     11.1088         0.016265   
     96. D(H  15,C  14,C  12,C   0)      3.3723         0.037173   
     97. D(N  16,C  14,C  12,H  13)      5.7279         0.037173   
     98. D(N  16,C  14,C  12,C   0)   -175.2686         0.037173   
     99. D(H  15,C  14,C  12,H  13)   -175.6313         0.037173   
    100. D(C  21,N  16,C  14,H  15)    175.8179         0.030742   
    101. D(C  21,N  16,C  14,C  12)     -5.4617         0.030742   
    102. D(C  17,N  16,C  14,H  15)     26.0445         0.030742   
    103. D(C  17,N  16,C  14,C  12)   -155.2351         0.030742   
    104. D(H  20,C  17,N  16,C  21)    -66.0619         0.017914   
    105. D(H  20,C  17,N  16,C  14)     84.5821         0.017914   
    106. D(H  19,C  17,N  16,C  21)    173.6114         0.017914   
    107. D(H  19,C  17,N  16,C  14)    -35.7447         0.017914   
    108. D(H  18,C  17,N  16,C  21)     54.3772         0.017914   
    109. D(H  18,C  17,N  16,C  14)   -154.9788         0.017914   
    110. D(H  24,C  21,N  16,C  17)   -156.4236         0.018684   
    111. D(H  24,C  21,N  16,C  14)     53.2218         0.018684   
    112. D(H  23,C  21,N  16,C  17)     83.0659         0.018684   
    113. D(H  23,C  21,N  16,C  14)    -67.2887         0.018684   
    114. D(H  22,C  21,N  16,C  17)    -37.3000         0.018684   
    115. D(H  22,C  21,N  16,C  14)    172.3455         0.018684   
    -----------------------------------------------------------------

Number of atoms                         .... 25
Number of degrees of freedom            .... 115

         *************************************************************
         *                GEOMETRY OPTIMIZATION CYCLE   1            *
         *************************************************************
---------------------------------
CARTESIAN COORDINATES (ANGSTROEM)
---------------------------------
  C     -0.056263   -0.502863   -1.620955
  C     -0.248822    0.668750   -0.880568
  C      0.199381   -1.672332   -0.890546
  H     -0.439172    1.598633   -1.407497
  H      0.389450   -2.605353   -1.409523
  C     -0.211763    0.679578    0.504990
  C      0.232253   -1.676009    0.492103
  H     -0.366924    1.606968    1.048414
  H      0.432403   -2.593306    1.035127
  C      0.023519   -0.498031    1.202383
  O      0.069860   -0.553466    2.560813
  H     -0.089196    0.325208    2.924186
  C     -0.129251   -0.449907   -3.075013
  H     -0.146518    0.544964   -3.508073
  C     -0.193530   -1.528479   -3.883967
  H     -0.248470   -2.525743   -3.455992
  N     -0.173067   -1.532424   -5.247476
  C     -0.777560   -2.651324   -5.932400
  H     -0.328570   -2.766553   -6.921032
  H     -0.604631   -3.565358   -5.362536
  H     -1.862085   -2.524867   -6.060021
  C     -0.193312   -0.276154   -5.948644
  H     -0.035753   -0.457608   -7.012029
  H     -1.147469    0.257093   -5.823221
  H      0.606912    0.372091   -5.584237

----------------------------
CARTESIAN COORDINATES (A.U.)
----------------------------
  NO LB      ZA    FRAG     MASS         X           Y           Z
   0 C     6.0000    0    12.011   -0.106322   -0.950273   -3.063161
   1 C     6.0000    0    12.011   -0.470205    1.263754   -1.664032
   2 C     6.0000    0    12.011    0.376775   -3.160249   -1.682888
   3 H     1.0000    0     1.008   -0.829915    3.020979   -2.659784
   4 H     1.0000    0     1.008    0.735954   -4.923404   -2.663612
   5 C     6.0000    0    12.011   -0.400174    1.284216    0.954293
   6 C     6.0000    0    12.011    0.438895   -3.167198    0.929940
   7 H     1.0000    0     1.008   -0.693386    3.036729    1.981215
   8 H     1.0000    0     1.008    0.817123   -4.900638    1.956107
   9 C     6.0000    0    12.011    0.044444   -0.941142    2.272175
  10 O     8.0000    0    15.999    0.132016   -1.045899    4.839235
  11 H     1.0000    0     1.008   -0.168556    0.614554    5.525911
  12 C     6.0000    0    12.011   -0.244249   -0.850201   -5.810932
  13 H     1.0000    0     1.008   -0.276879    1.029833   -6.629297
  14 C     6.0000    0    12.011   -0.365719   -2.888407   -7.339634
  15 H     1.0000    0     1.008   -0.469540   -4.772963   -6.530878
  16 N     7.0000    0    14.007   -0.327049   -2.895862   -9.916293
  17 C     6.0000    0    12.011   -1.469375   -5.010276  -11.210611
  18 H     1.0000    0     1.008   -0.620907   -5.228028  -13.078855
  19 H     1.0000    0     1.008   -1.142587   -6.737550  -10.133724
  20 H     1.0000    0     1.008   -3.518831   -4.771307  -11.451780
  21 C     6.0000    0    12.011   -0.365307   -0.521855  -11.241308
  22 H     1.0000    0     1.008   -0.067563   -0.864754  -13.250814
  23 H     1.0000    0     1.008   -2.168402    0.485835  -11.004293
  24 H     1.0000    0     1.008    1.146897    0.703150  -10.552679

--------------------------------
INTERNAL COORDINATES (ANGSTROEM)
--------------------------------
 C      0   0   0     0.000000000000     0.00000000     0.00000000
 C      1   0   0     1.399260125930     0.00000000     0.00000000
 C      1   2   0     1.402322681831   116.60023063     0.00000000
 H      2   1   3     1.085619494680   118.97966261   179.37268306
 H      3   1   2     1.084431435237   120.01315097   182.01656289
 C      2   1   3     1.386095807089   122.12606060   359.00939510
 C      3   1   2     1.383044592887   121.82035234     1.31683730
 H      6   2   1     1.086018780591   120.20123727   180.09245547
 H      7   3   1     1.084605399804   120.47460361   180.01949648
 C      6   2   1     1.388696357327   119.99359060     0.05286054
 O     10   6   2     1.360350172715   122.80704822   180.10283055
 H     11  10   6     0.964057439441   109.48905168     0.43451339
 C      1   2   3     1.456851486406   119.39202968   179.99705470
 H     13   1   2     1.085176215888   115.62158755    11.10877808
 C     13   1   2     1.349761431936   124.85638509   192.07044228
 H     15  13   1     1.086607790291   119.98239933     3.37231774
 N     15  13   1     1.363668247953   126.93138547   184.73144522
 C     17  15  13     1.444461796942   118.03937211   204.76487396
 H     18  17  15     1.091907951233   109.81514371   205.02123761
 H     18  17  15     1.090920515296   109.57153788   324.25534628
 H     18  17  15     1.099305675467   112.25965575    84.58213318
 C     17  15  13     1.438840066564   118.98108497   354.53833004
 H     22  17  15     1.090200922226   109.14578955   172.34547204
 H     22  17  15     1.100226736899   112.32262559   292.71128372
 H     22  17  15     1.092415896923   110.19673402    53.22184780

---------------------------
INTERNAL COORDINATES (A.U.)
---------------------------
 C      0   0   0     0.000000000000     0.00000000     0.00000000
 C      1   0   0     2.644218428125     0.00000000     0.00000000
 C      1   2   0     2.650005820047   116.60023063     0.00000000
 H      2   1   3     2.051523530592   118.97966261   179.37268306
 H      3   1   2     2.049278423614   120.01315097   182.01656289
 C      2   1   3     2.619341470774   122.12606060   359.00939510
 C      3   1   2     2.613575511557   121.82035234     1.31683730
 H      6   2   1     2.052278071613   120.20123727   180.09245547
 H      7   3   1     2.049607169003   120.47460361   180.01949648
 C      6   2   1     2.624255798523   119.99359060     0.05286054
 O     10   6   2     2.570689272664   122.80704822   180.10283055
 H     11  10   6     1.821804537912   109.48905168     0.43451339
 C      1   2   3     2.753050327104   119.39202968   179.99705470
 H     13   1   2     2.050685855074   115.62158755    11.10877808
 C     13   1   2     2.550679452488   124.85638509   192.07044228
 H     15  13   1     2.053391138635   119.98239933     3.37231774
 N     15  13   1     2.576959526155   126.93138547   184.73144522
 C     17  15  13     2.729637207132   118.03937211   204.76487396
 H     18  17  15     2.063406991281   109.81514371   205.02123761
 H     18  17  15     2.061541007785   109.57153788   324.25534628
 H     18  17  15     2.077386664099   112.25965575    84.58213318
 C     17  15  13     2.719013676318   118.98108497   354.53833004
 H     22  17  15     2.060181173955   109.14578955   172.34547204
 H     22  17  15     2.079127217957   112.32262559   292.71128372
 H     22  17  15     2.064366869526   110.19673402    53.22184780

---------------------
BASIS SET INFORMATION
---------------------
There are 4 groups of distinct atoms

 Group   1 Type C   : 11s6p2d1f contracted to 5s3p2d1f pattern {62111/411/11/1}
 Group   2 Type H   : 5s1p contracted to 3s1p pattern {311/1}
 Group   3 Type O   : 11s6p2d1f contracted to 5s3p2d1f pattern {62111/411/11/1}
 Group   4 Type N   : 11s6p2d1f contracted to 5s3p2d1f pattern {62111/411/11/1}

Atom   0C    basis set group =>   1
Atom   1C    basis set group =>   1
Atom   2C    basis set group =>   1
Atom   3H    basis set group =>   2
Atom   4H    basis set group =>   2
Atom   5C    basis set group =>   1
Atom   6C    basis set group =>   1
Atom   7H    basis set group =>   2
Atom   8H    basis set group =>   2
Atom   9C    basis set group =>   1
Atom  10O    basis set group =>   3
Atom  11H    basis set group =>   2
Atom  12C    basis set group =>   1
Atom  13H    basis set group =>   2
Atom  14C    basis set group =>   1
Atom  15H    basis set group =>   2
Atom  16N    basis set group =>   4
Atom  17C    basis set group =>   1
Atom  18H    basis set group =>   2
Atom  19H    basis set group =>   2
Atom  20H    basis set group =>   2
Atom  21C    basis set group =>   1
Atom  22H    basis set group =>   2
Atom  23H    basis set group =>   2
Atom  24H    basis set group =>   2
---------------------------------
AUXILIARY/J BASIS SET INFORMATION
---------------------------------
There are 4 groups of distinct atoms

 Group   1 Type C   : 12s5p4d2f1g contracted to 6s4p3d1f1g pattern {711111/2111/211/2/1}
 Group   2 Type H   : 5s2p1d contracted to 3s1p1d pattern {311/2/1}
 Group   3 Type O   : 12s5p4d2f1g contracted to 6s4p3d1f1g pattern {711111/2111/211/2/1}
 Group   4 Type N   : 12s5p4d2f1g contracted to 6s4p3d1f1g pattern {711111/2111/211/2/1}

Atom   0C    basis set group =>   1
Atom   1C    basis set group =>   1
Atom   2C    basis set group =>   1
Atom   3H    basis set group =>   2
Atom   4H    basis set group =>   2
Atom   5C    basis set group =>   1
Atom   6C    basis set group =>   1
Atom   7H    basis set group =>   2
Atom   8H    basis set group =>   2
Atom   9C    basis set group =>   1
Atom  10O    basis set group =>   3
Atom  11H    basis set group =>   2
Atom  12C    basis set group =>   1
Atom  13H    basis set group =>   2
Atom  14C    basis set group =>   1
Atom  15H    basis set group =>   2
Atom  16N    basis set group =>   4
Atom  17C    basis set group =>   1
Atom  18H    basis set group =>   2
Atom  19H    basis set group =>   2
Atom  20H    basis set group =>   2
Atom  21C    basis set group =>   1
Atom  22H    basis set group =>   2
Atom  23H    basis set group =>   2
Atom  24H    basis set group =>   2


           ************************************************************
           *        Program running with 24 parallel MPI-processes    *
           *              working on a common directory               *
           ************************************************************
------------------------------------------------------------------------------
                           ORCA GTO INTEGRAL CALCULATION
                           -- RI-GTO INTEGRALS CHOSEN --
------------------------------------------------------------------------------
------------------------------------------------------------------------------
                   ___                                                        
                  /   \      - P O W E R E D   B Y -                         
                 /     \                                                     
                 |  |  |   _    _      __       _____    __    __             
                 |  |  |  | |  | |    /  \     |  _  \  |  |  /  |          
                  \  \/   | |  | |   /    \    | | | |  |  | /  /          
                 / \  \   | |__| |  /  /\  \   | |_| |  |  |/  /          
                |  |  |   |  __  | /  /__\  \  |    /   |      \           
                |  |  |   | |  | | |   __   |  |    \   |  |\   \          
                \     /   | |  | | |  |  |  |  | |\  \  |  | \   \       
                 \___/    |_|  |_| |__|  |__|  |_| \__\ |__|  \__/        
                                                                              
                      - O R C A' S   B I G   F R I E N D -                    
                                      &                                       
                       - I N T E G R A L  F E E D E R -                       
                                                                              
 v1 FN, 2020, v2 2021                                                         
------------------------------------------------------------------------------


Reading SHARK input file CHCHNMe2-PhenOH/CHCHNMe2-PhenOH.SHARKINP.tmp ... ok
----------------------
SHARK INTEGRAL PACKAGE
----------------------

Number of atoms                             ...     25
Number of basis functions                   ...    450
Number of shells                            ...    184
Maximum angular momentum                    ...      3
Integral batch strategy                     ... SHARK/LIBINT Hybrid
RI-J (if used) integral strategy            ... SPLIT-RIJ (Revised 2003 algorithm where possible)
Printlevel                                  ...      1
Contraction scheme used                     ... SEGMENTED contraction
Coulomb Range Separation                    ... NOT USED
Exchange Range Separation                   ... NOT USED
Finite Nucleus Model                        ... NOT USED
Auxiliary Coulomb fitting basis             ... AVAILABLE
   # of basis functions in Aux-J            ...    731
   # of shells in Aux-J                     ...    245
   Maximum angular momentum in Aux-J        ...      4
Auxiliary J/K fitting basis                 ... NOT available
Auxiliary Correlation fitting basis         ... NOT available
Auxiliary 'external' fitting basis          ... NOT available
Integral threshold                          ...     2.500000e-11
Primitive cut-off                           ...     2.500000e-12
Primitive pair pre-selection threshold      ...     2.500000e-12

Calculating pre-screening integrals         ... done (  0.1 sec) Dimension = 184
Organizing shell pair data                  ... done (  0.2 sec)
Shell pair information
Total number of shell pairs                 ...     17020
Shell pairs after pre-screening             ...     13325
Total number of primitive shell pairs       ...     51024
Primitive shell pairs kept                  ...     28675
          la=0 lb=0:   3767 shell pairs
          la=1 lb=0:   3873 shell pairs
          la=1 lb=1:   1020 shell pairs
          la=2 lb=0:   1845 shell pairs
          la=2 lb=1:    958 shell pairs
          la=2 lb=2:    242 shell pairs
          la=3 lb=0:    883 shell pairs
          la=3 lb=1:    460 shell pairs
          la=3 lb=2:    218 shell pairs
          la=3 lb=3:     59 shell pairs

Calculating one electron integrals          ... done (  0.0 sec)
Calculating RI/J V-Matrix + Cholesky decomp.... done (  0.1 sec)
Calculating Nuclear repulsion               ... done (  0.0 sec) ENN=    645.788909350219 Eh

SHARK setup successfully completed in   0.7 seconds

Maximum memory used throughout the entire GTOINT-calculation: 26.0 MB


           ************************************************************
           *        Program running with 24 parallel MPI-processes    *
           *              working on a common directory               *
           ************************************************************
-------------------------------------------------------------------------------
                                 ORCA SCF
-------------------------------------------------------------------------------

------------
SCF SETTINGS
------------
Hamiltonian:
 Density Functional     Method          .... DFT(GTOs)
 Exchange Functional    Exchange        .... PBE
   PBE kappa parameter   XKappa         ....  0.804000
   PBE mue parameter    XMuePBE         ....  0.219520
 Correlation Functional Correlation     .... PBE
   PBE beta parameter  CBetaPBE         ....  0.066725
 LDA part of GGA corr.  LDAOpt          .... PW91-LDA
 Gradients option       PostSCFGGA      .... off
 Hybrid DFT is turned on
   Fraction HF Exchange ScalHFX         ....  0.250000
   Scaling of DF-GGA-X  ScalDFX         ....  0.750000
   Scaling of DF-GGA-C  ScalDFC         ....  1.000000
   Scaling of DF-LDA-C  ScalLDAC        ....  1.000000
   Perturbative correction              ....  0.000000
   Density functional embedding theory  .... OFF
   NL short-range parameter             ....  6.900000
 RI-approximation to the Coulomb term is turned on
   Number of AuxJ basis functions       .... 731
   RIJ-COSX (HFX calculated with COS-X)).... on


General Settings:
 Integral files         IntName         .... CHCHNMe2-PhenOH/CHCHNMe2-PhenOH
 Hartree-Fock type      HFTyp           .... RHF
 Total Charge           Charge          ....    0
 Multiplicity           Mult            ....    1
 Number of Electrons    NEL             ....   88
 Basis Dimension        Dim             ....  450
 Nuclear Repulsion      ENuc            ....    645.7889093502 Eh

Convergence Acceleration:
 DIIS                   CNVDIIS         .... on
   Start iteration      DIISMaxIt       ....    12
   Startup error        DIISStart       ....  0.200000
   # of expansion vecs  DIISMaxEq       ....     5
   Bias factor          DIISBfac        ....   1.050
   Max. coefficient     DIISMaxC        ....  10.000
 Trust-Rad. Augm. Hess. CNVTRAH         .... auto
   Auto Start mean grad. ratio tolernc. ....  1.125000
   Auto Start start iteration           ....    20
   Auto Start num. interpolation iter.  ....    10
   Max. Number of Micro iterations      ....    16
   Max. Number of Macro iterations      .... Maxiter - #DIIS iter
   Number of Davidson start vectors     ....     2
   Converg. threshold I  (grad. norm)   ....   1.000e-05
   Converg. threshold II (energy diff.) ....   1.000e-08
   Grad. Scal. Fac. for Micro threshold ....   0.100
   Minimum threshold for Micro iter.    ....   0.010
   NR start threshold (gradient norm)   ....   0.001
   Initial trust radius                 ....   0.400
   Minimum AH scaling param. (alpha)    ....   1.000
   Maximum AH scaling param. (alpha)    .... 1000.000
   Orbital update algorithm             .... Taylor
   White noise on init. David. guess    .... on
   Maximum white noise                  ....   0.010
   Quad. conv. algorithm                .... NR
 SOSCF                  CNVSOSCF        .... on
   Start iteration      SOSCFMaxIt      ....   150
   Startup grad/error   SOSCFStart      ....  0.003300
 Level Shifting         CNVShift        .... on
   Level shift para.    LevelShift      ....    0.2500
   Turn off err/grad.   ShiftErr        ....    0.0010
 Zerner damping         CNVZerner       .... off
 Static damping         CNVDamp         .... on
   Fraction old density DampFac         ....    0.7000
   Max. Damping (<1)    DampMax         ....    0.9800
   Min. Damping (>=0)   DampMin         ....    0.0000
   Turn off err/grad.   DampErr         ....    0.1000
 Fernandez-Rico         CNVRico         .... off

SCF Procedure:
 Maximum # iterations   MaxIter         ....   800
 SCF integral mode      SCFMode         .... Direct
   Integral package                     .... SHARK and LIBINT hybrid scheme
 Reset frequency        DirectResetFreq ....    20
 Integral Threshold     Thresh          ....  2.500e-11 Eh
 Primitive CutOff       TCut            ....  2.500e-12 Eh

Convergence Tolerance:
 Convergence Check Mode ConvCheckMode   .... Total+1el-Energy
 Convergence forced     ConvForced      .... 0
 Energy Change          TolE            ....  1.000e-08 Eh
 1-El. energy change                    ....  1.000e-05 Eh
 Orbital Gradient       TolG            ....  1.000e-05
 Orbital Rotation angle TolX            ....  1.000e-05
 DIIS Error             TolErr          ....  5.000e-07


Diagonalization of the overlap matrix:
Smallest eigenvalue                        ... 8.578e-06
Time for diagonalization                   ...    0.067 sec
Threshold for overlap eigenvalues          ... 1.000e-08
Number of eigenvalues below threshold      ... 0
Time for construction of square roots      ...    0.052 sec
Total time needed                          ...    0.122 sec

Time for model grid setup =    0.157 sec

------------------------------
INITIAL GUESS: MODEL POTENTIAL
------------------------------
Loading Hartree-Fock densities                     ... done
Calculating cut-offs                               ... done
Initializing the effective Hamiltonian             ... done
Setting up the integral package (SHARK)            ... done
Starting the Coulomb interaction                   ... done (   0.1 sec)
Reading the grid                                   ... done
Mapping shells                                     ... done
Starting the XC term evaluation                    ... done (   0.1 sec)
  promolecular density results
     # of electrons  =     87.997404984
     EX              =    -69.722944975
     EC              =     -2.920894989
     EX+EC           =    -72.643839964
Transforming the Hamiltonian                       ... done (   0.0 sec)
Diagonalizing the Hamiltonian                      ... done (   0.0 sec)
Back transforming the eigenvectors                 ... done (   0.0 sec)
Now organizing SCF variables                       ... done
                      ------------------
                      INITIAL GUESS DONE (   0.5 sec)
                      ------------------
-------------------
DFT GRID GENERATION
-------------------

General Integration Accuracy     IntAcc      ... 4.388
Radial Grid Type                 RadialGrid  ... OptM3 with GC (2021)
Angular Grid (max. ang.)         AngularGrid ... 4 (Lebedev-302)
Angular grid pruning method      GridPruning ... 4 (adaptive)
Weight generation scheme         WeightScheme... Becke
Basis function cutoff            BFCut       ... 1.0000e-11
Integration weight cutoff        WCut        ... 1.0000e-14
Angular grids for H and He will be reduced by one unit
Partially contracted basis set               ... off
Rotationally invariant grid construction     ... off

Total number of grid points                  ...   113685
Total number of batches                      ...     1788
Average number of points per batch           ...       63
Average number of grid points per atom       ...     4547
Time for grid setup =    0.655 sec

--------------------
COSX GRID GENERATION
--------------------

GRIDX 1
-------
General Integration Accuracy     IntAcc      ... 3.816
Radial Grid Type                 RadialGrid  ... OptM3 with GC (2021)
Angular Grid (max. ang.)         AngularGrid ... 1 (Lebedev-50)
Angular grid pruning method      GridPruning ... 4 (adaptive)
Weight generation scheme         WeightScheme... Becke
Basis function cutoff            BFCut       ... 1.0000e-11
Integration weight cutoff        WCut        ... 1.0000e-14
Angular grids for H and He will be reduced by one unit
Partially contracted basis set               ... on
Rotationally invariant grid construction     ... off

Total number of grid points                  ...    14562
Total number of batches                      ...      240
Average number of points per batch           ...       60
Average number of grid points per atom       ...      582
UseSFitting                                  ... on

GRIDX 2
-------
General Integration Accuracy     IntAcc      ... 4.020
Radial Grid Type                 RadialGrid  ... OptM3 with GC (2021)
Angular Grid (max. ang.)         AngularGrid ... 2 (Lebedev-110)
Angular grid pruning method      GridPruning ... 4 (adaptive)
Weight generation scheme         WeightScheme... Becke
Basis function cutoff            BFCut       ... 1.0000e-11
Integration weight cutoff        WCut        ... 1.0000e-14
Angular grids for H and He will be reduced by one unit
Partially contracted basis set               ... on
Rotationally invariant grid construction     ... off

Total number of grid points                  ...    31215
Total number of batches                      ...      502
Average number of points per batch           ...       62
Average number of grid points per atom       ...     1249
UseSFitting                                  ... on

GRIDX 3
-------
General Integration Accuracy     IntAcc      ... 4.338
Radial Grid Type                 RadialGrid  ... OptM3 with GC (2021)
Angular Grid (max. ang.)         AngularGrid ... 3 (Lebedev-194)
Angular grid pruning method      GridPruning ... 4 (adaptive)
Weight generation scheme         WeightScheme... Becke
Basis function cutoff            BFCut       ... 1.0000e-11
Integration weight cutoff        WCut        ... 1.0000e-14
Angular grids for H and He will be reduced by one unit
Partially contracted basis set               ... on
Rotationally invariant grid construction     ... off

Total number of grid points                  ...    68267
Total number of batches                      ...     1081
Average number of points per batch           ...       63
Average number of grid points per atom       ...     2731
UseSFitting                                  ... on

Time for X-Grid setup             =    0.925 sec


--------------------
CPCM SOLVATION MODEL
--------------------
CPCM parameters:
  Epsilon                                         ...      47.2000
  Refrac                                          ...       1.4790
  Rsolv                                           ...       1.3000
  Surface type                                    ... GAUSSIAN VDW
  Epsilon function type                           ...         CPCM
Radii:
 Radius for C  used is    3.8550 Bohr (=   2.0400 Ang.)
 Radius for H  used is    2.4944 Bohr (=   1.3200 Ang.)
 Radius for O  used is    3.4469 Bohr (=   1.8240 Ang.)
 Radius for N  used is    3.5149 Bohr (=   1.8600 Ang.)
Calculating surface                               ...        done! (  0.0s)
GEPOL surface points                              ...         1380
GEPOL Volume                                      ...    1444.6172
GEPOL Surface-area                                ...     793.7096
Calculating surface distance matrix               ...        done! (  0.0s)
Performing Cholesky decomposition & store         ...        done! (  0.2s)
Overall time for CPCM initialization              ...                 0.2s
--------------
SCF ITERATIONS
--------------
ITER       Energy         Delta-E        Max-DP      RMS-DP      [F,P]     Damp
               ***  Starting incremental Fock matrix formation  ***
  0   -518.1414619366   0.000000000000 0.08779929  0.00091382  0.2125065 0.7000
  1   -518.2710003305  -0.129538393942 0.09945078  0.00084531  0.1014726 0.7000
                               ***Turning on DIIS***
  2   -518.3304925838  -0.059492253325 0.16146776  0.00157193  0.0433822 0.0000
  3   -518.4158334690  -0.085340885127 0.08735968  0.00062271  0.0481578 0.0000
  4   -518.4364263692  -0.020592900237 0.02128419  0.00019172  0.0081897 0.0000
  5   -518.4372850346  -0.000858665434 0.01325413  0.00010019  0.0063706 0.0000
                      *** Initiating the SOSCF procedure ***
                           *** Shutting down DIIS ***
                      *** Re-Reading the Fockian *** 
                      *** Removing any level shift *** 
ITER      Energy       Delta-E        Grad      Rot      Max-DP    RMS-DP
  6   -518.43737423  -0.0000891975  0.000262  0.000262  0.002979  0.000033
               *** Restarting incremental Fock matrix formation ***
  7   -518.43738244  -0.0000082068  0.000114  0.000454  0.001775  0.000032
  8   -518.43738312  -0.0000006796  0.000096  0.000313  0.000572  0.000010
  9   -518.43738357  -0.0000004543  0.000047  0.000154  0.000531  0.000008
 10   -518.43738363  -0.0000000564  0.000018  0.000051  0.000084  0.000002
 11   -518.43738364  -0.0000000153  0.000010  0.000030  0.000119  0.000002
 12   -518.43738365  -0.0000000036  0.000003  0.000008  0.000056  0.000001
                  ***Gradient check signals convergence***
              ***Rediagonalizing the Fockian in SOSCF/NRSCF***

               *****************************************************
               *                     SUCCESS                       *
               *           SCF CONVERGED AFTER  13 CYCLES          *
               *****************************************************

Old exchange energy                            =    -17.844899576 Eh
New exchange energy                            =    -17.844896977 Eh
Exchange energy change after final integration =      0.000002599 Eh
Total energy after final integration           =   -518.437381045 Eh
Final COS-X integration done in                =     3.552 sec

----------------
TOTAL SCF ENERGY
----------------

Total Energy       :         -518.43738105 Eh          -14107.39834 eV

Components:
Nuclear Repulsion  :          645.78890935 Eh           17572.80961 eV
Electronic Energy  :        -1164.22629040 Eh          -31680.20795 eV
One Electron Energy:        -1982.98596801 Eh          -53959.79145 eV
Two Electron Energy:          818.75967761 Eh           22279.58350 eV
Max COSX asymmetry :            0.00000164 Eh               0.00004 eV
CPCM Dielectric    :           -0.01770437 Eh              -0.48176 eV

Virial components:
Potential Energy   :        -1034.40104678 Eh          -28147.48347 eV
Kinetic Energy     :          515.96366573 Eh           14040.08513 eV
Virial Ratio       :            2.00479436


DFT components:
N(Alpha)           :       43.999963707905 electrons
N(Beta)            :       43.999963707905 electrons
N(Total)           :       87.999927415809 electrons
E(X)               :      -53.371352439734 Eh       
E(C)               :       -2.927154050165 Eh       
E(XC)              :      -56.298506489899 Eh       
DFET-embed. en.    :        0.000000000000 Eh       
CPCM Solvation Model Properties:
Surface-charge          :           -0.03050846
Charge-correction       :           -0.00001379 Eh              -0.00038 eV
Free-energy (cav+disp)  :  This term is not implemented in the current solvation scheme

---------------
SCF CONVERGENCE
---------------

  Last Energy change         ...    3.1868e-09  Tolerance :   1.0000e-08
  Last MAX-Density change    ...    1.9984e-15  Tolerance :   1.0000e-07
  Last RMS-Density change    ...    1.4992e-17  Tolerance :   5.0000e-09
  Last Orbital Gradient      ...    2.0063e-06  Tolerance :   1.0000e-05
  Last Orbital Rotation      ...    5.9675e-06  Tolerance :   1.0000e-05

             **** THE GBW FILE WAS UPDATED (CHCHNMe2-PhenOH/CHCHNMe2-PhenOH.gbw) ****
             **** DENSITY CHCHNMe2-PhenOH/CHCHNMe2-PhenOH.scfp WAS UPDATED ****
             **** ENERGY FILE WAS UPDATED (CHCHNMe2-PhenOH/CHCHNMe2-PhenOH.en.tmp) ****
             **** THE GBW FILE WAS UPDATED (CHCHNMe2-PhenOH/CHCHNMe2-PhenOH.gbw) ****
             **** DENSITY CHCHNMe2-PhenOH/CHCHNMe2-PhenOH.scfp WAS UPDATED ****
----------------
ORBITAL ENERGIES
----------------

  NO   OCC          E(Eh)            E(eV) 
   0   2.0000     -19.233182      -523.3615 
   1   2.0000     -14.404461      -391.9653 
   2   2.0000     -10.280065      -279.7348 
   3   2.0000     -10.248498      -278.8758 
   4   2.0000     -10.240968      -278.6709 
   5   2.0000     -10.239022      -278.6180 
   6   2.0000     -10.228747      -278.3384 
   7   2.0000     -10.221226      -278.1337 
   8   2.0000     -10.220900      -278.1248 
   9   2.0000     -10.220244      -278.1070 
  10   2.0000     -10.219279      -278.0807 
  11   2.0000     -10.202812      -277.6326 
  12   2.0000      -1.089670       -29.6514 
  13   2.0000      -0.978523       -26.6270 
  14   2.0000      -0.881898       -23.9977 
  15   2.0000      -0.804135       -21.8816 
  16   2.0000      -0.770689       -20.9715 
  17   2.0000      -0.747371       -20.3370 
  18   2.0000      -0.740616       -20.1532 
  19   2.0000      -0.677656       -18.4400 
  20   2.0000      -0.641825       -17.4650 
  21   2.0000      -0.611072       -16.6281 
  22   2.0000      -0.571188       -15.5428 
  23   2.0000      -0.558468       -15.1967 
  24   2.0000      -0.518412       -14.1067 
  25   2.0000      -0.513859       -13.9828 
  26   2.0000      -0.478032       -13.0079 
  27   2.0000      -0.474531       -12.9126 
  28   2.0000      -0.462833       -12.5943 
  29   2.0000      -0.444476       -12.0948 
  30   2.0000      -0.430746       -11.7212 
  31   2.0000      -0.429552       -11.6887 
  32   2.0000      -0.411563       -11.1992 
  33   2.0000      -0.405826       -11.0431 
  34   2.0000      -0.402025       -10.9396 
  35   2.0000      -0.388134       -10.5617 
  36   2.0000      -0.376055       -10.2330 
  37   2.0000      -0.370521       -10.0824 
  38   2.0000      -0.367954       -10.0125 
  39   2.0000      -0.341104        -9.2819 
  40   2.0000      -0.320026        -8.7084 
  41   2.0000      -0.268661        -7.3106 
  42   2.0000      -0.258519        -7.0347 
  43   2.0000      -0.186508        -5.0751 
  44   0.0000      -0.013867        -0.3773 
  45   0.0000      -0.003857        -0.1050 
  46   0.0000       0.054863         1.4929 
  47   0.0000       0.063245         1.7210 
  48   0.0000       0.067372         1.8333 
  49   0.0000       0.074509         2.0275 
  50   0.0000       0.081479         2.2172 
  51   0.0000       0.101981         2.7751 
  52   0.0000       0.107424         2.9232 
  53   0.0000       0.111647         3.0381 
  54   0.0000       0.116799         3.1783 
  55   0.0000       0.131565         3.5801 
  56   0.0000       0.133864         3.6426 
  57   0.0000       0.140981         3.8363 
  58   0.0000       0.145805         3.9676 
  59   0.0000       0.153267         4.1706 
  60   0.0000       0.169505         4.6125 
  61   0.0000       0.172204         4.6859 
  62   0.0000       0.176359         4.7990 
  63   0.0000       0.185366         5.0441 
  64   0.0000       0.189382         5.1533 
  65   0.0000       0.203533         5.5384 
  66   0.0000       0.205641         5.5958 
  67   0.0000       0.215559         5.8656 
  68   0.0000       0.227743         6.1972 
  69   0.0000       0.232146         6.3170 
  70   0.0000       0.233753         6.3608 
  71   0.0000       0.251337         6.8392 
  72   0.0000       0.260994         7.1020 
  73   0.0000       0.265340         7.2203 
  74   0.0000       0.272049         7.4028 
  75   0.0000       0.276839         7.5332 
  76   0.0000       0.284719         7.7476 
  77   0.0000       0.296325         8.0634 
  78   0.0000       0.309241         8.4149 
  79   0.0000       0.316100         8.6015 
  80   0.0000       0.323121         8.7926 
  81   0.0000       0.324282         8.8242 
  82   0.0000       0.340851         9.2750 
  83   0.0000       0.344523         9.3750 
  84   0.0000       0.349972         9.5232 
  85   0.0000       0.355751         9.6805 
  86   0.0000       0.364187         9.9100 
  87   0.0000       0.368800        10.0356 
  88   0.0000       0.377241        10.2652 
  89   0.0000       0.389260        10.5923 
  90   0.0000       0.398896        10.8545 
  91   0.0000       0.409200        11.1349 
  92   0.0000       0.412218        11.2170 
  93   0.0000       0.416097        11.3226 
  94   0.0000       0.420497        11.4423 
  95   0.0000       0.428197        11.6518 
  96   0.0000       0.438332        11.9276 
  97   0.0000       0.446289        12.1442 
  98   0.0000       0.449013        12.2183 
  99   0.0000       0.454589        12.3700 
 100   0.0000       0.456294        12.4164 
 101   0.0000       0.467358        12.7175 
 102   0.0000       0.473635        12.8883 
 103   0.0000       0.487614        13.2687 
 104   0.0000       0.494628        13.4595 
 105   0.0000       0.499371        13.5886 
 106   0.0000       0.501995        13.6600 
 107   0.0000       0.512018        13.9327 
 108   0.0000       0.517902        14.0928 
 109   0.0000       0.523968        14.2579 
 110   0.0000       0.531820        14.4716 
 111   0.0000       0.539603        14.6834 
 112   0.0000       0.549651        14.9568 
 113   0.0000       0.557133        15.1604 
 114   0.0000       0.573503        15.6058 
 115   0.0000       0.578117        15.7314 
 116   0.0000       0.594518        16.1777 
 117   0.0000       0.598758        16.2930 
 118   0.0000       0.615828        16.7575 
 119   0.0000       0.631320        17.1791 
 120   0.0000       0.634356        17.2617 
 121   0.0000       0.647250        17.6126 
 122   0.0000       0.664131        18.0719 
 123   0.0000       0.674569        18.3560 
 124   0.0000       0.685446        18.6519 
 125   0.0000       0.699290        19.0286 
 126   0.0000       0.706504        19.2250 
 127   0.0000       0.707357        19.2482 
 128   0.0000       0.719124        19.5684 
 129   0.0000       0.722963        19.6728 
 130   0.0000       0.732527        19.9331 
 131   0.0000       0.742306        20.1992 
 132   0.0000       0.751789        20.4572 
 133   0.0000       0.758568        20.6417 
 134   0.0000       0.778682        21.1890 
 135   0.0000       0.793917        21.6036 
 136   0.0000       0.812371        22.1057 
 137   0.0000       0.823879        22.4189 
 138   0.0000       0.831741        22.6328 
 139   0.0000       0.846844        23.0438 
 140   0.0000       0.854784        23.2598 
 141   0.0000       0.856699        23.3120 
 142   0.0000       0.878725        23.9113 
 143   0.0000       0.885318        24.0907 
 144   0.0000       0.886568        24.1247 
 145   0.0000       0.897072        24.4106 
 146   0.0000       0.905017        24.6268 
 147   0.0000       0.918242        24.9866 
 148   0.0000       0.920877        25.0583 
 149   0.0000       0.957860        26.0647 
 150   0.0000       0.974745        26.5241 
 151   0.0000       1.007879        27.4258 
 152   0.0000       1.018660        27.7192 
 153   0.0000       1.028013        27.9736 
 154   0.0000       1.041992        28.3541 
 155   0.0000       1.050523        28.5862 
 156   0.0000       1.054853        28.7040 
 157   0.0000       1.065405        28.9911 
 158   0.0000       1.093016        29.7425 
 159   0.0000       1.096899        29.8481 
 160   0.0000       1.107221        30.1290 
 161   0.0000       1.140417        31.0323 
 162   0.0000       1.153906        31.3994 
 163   0.0000       1.162415        31.6309 
 164   0.0000       1.169650        31.8278 
 165   0.0000       1.177057        32.0293 
 166   0.0000       1.201937        32.7064 
 167   0.0000       1.211234        32.9594 
 168   0.0000       1.221431        33.2368 
 169   0.0000       1.237233        33.6668 
 170   0.0000       1.278784        34.7975 
 171   0.0000       1.288974        35.0748 
 172   0.0000       1.295790        35.2602 
 173   0.0000       1.316500        35.8238 
 174   0.0000       1.318814        35.8867 
 175   0.0000       1.340128        36.4667 
 176   0.0000       1.353964        36.8432 
 177   0.0000       1.378367        37.5073 
 178   0.0000       1.392102        37.8810 
 179   0.0000       1.418615        38.6025 
 180   0.0000       1.423020        38.7223 
 181   0.0000       1.435410        39.0595 
 182   0.0000       1.450863        39.4800 
 183   0.0000       1.458688        39.6929 
 184   0.0000       1.479179        40.2505 
 185   0.0000       1.499474        40.8028 
 186   0.0000       1.507475        41.0205 
 187   0.0000       1.525650        41.5150 
 188   0.0000       1.530023        41.6340 
 189   0.0000       1.535843        41.7924 
 190   0.0000       1.544188        42.0195 
 191   0.0000       1.545679        42.0601 
 192   0.0000       1.555130        42.3172 
 193   0.0000       1.568571        42.6830 
 194   0.0000       1.580309        43.0024 
 195   0.0000       1.583115        43.0788 
 196   0.0000       1.593650        43.3654 
 197   0.0000       1.598558        43.4990 
 198   0.0000       1.616268        43.9809 
 199   0.0000       1.627382        44.2833 
 200   0.0000       1.641725        44.6736 
 201   0.0000       1.650078        44.9009 
 202   0.0000       1.653918        45.0054 
 203   0.0000       1.674648        45.5695 
 204   0.0000       1.685482        45.8643 
 205   0.0000       1.696837        46.1733 
 206   0.0000       1.709682        46.5228 
 207   0.0000       1.716892        46.7190 
 208   0.0000       1.720396        46.8144 
 209   0.0000       1.753304        47.7098 
 210   0.0000       1.770260        48.1712 
 211   0.0000       1.772466        48.2312 
 212   0.0000       1.788955        48.6799 
 213   0.0000       1.800025        48.9812 
 214   0.0000       1.820784        49.5461 
 215   0.0000       1.840928        50.0942 
 216   0.0000       1.854656        50.4677 
 217   0.0000       1.872176        50.9445 
 218   0.0000       1.886897        51.3451 
 219   0.0000       1.903206        51.7889 
 220   0.0000       1.909392        51.9572 
 221   0.0000       1.920587        52.2618 
 222   0.0000       1.940393        52.8008 
 223   0.0000       1.967287        53.5326 
 224   0.0000       1.973006        53.6882 
 225   0.0000       1.981903        53.9303 
 226   0.0000       1.998456        54.3807 
 227   0.0000       2.026575        55.1459 
 228   0.0000       2.042918        55.5906 
 229   0.0000       2.049906        55.7808 
 230   0.0000       2.069784        56.3217 
 231   0.0000       2.089109        56.8475 
 232   0.0000       2.100480        57.1570 
 233   0.0000       2.105753        57.3004 
 234   0.0000       2.152688        58.5776 
 235   0.0000       2.161350        58.8133 
 236   0.0000       2.167780        58.9883 
 237   0.0000       2.171911        59.1007 
 238   0.0000       2.173508        59.1442 
 239   0.0000       2.183155        59.4067 
 240   0.0000       2.198472        59.8235 
 241   0.0000       2.232036        60.7368 
 242   0.0000       2.259341        61.4798 
 243   0.0000       2.263872        61.6031 
 244   0.0000       2.285185        62.1830 
 245   0.0000       2.288259        62.2667 
 246   0.0000       2.306371        62.7596 
 247   0.0000       2.319911        63.1280 
 248   0.0000       2.340176        63.6794 
 249   0.0000       2.347746        63.8854 
 250   0.0000       2.353542        64.0431 
 251   0.0000       2.371199        64.5236 
 252   0.0000       2.405039        65.4444 
 253   0.0000       2.416586        65.7587 
 254   0.0000       2.427770        66.0630 
 255   0.0000       2.441358        66.4327 
 256   0.0000       2.456322        66.8399 
 257   0.0000       2.470016        67.2126 
 258   0.0000       2.488162        67.7063 
 259   0.0000       2.521413        68.6111 
 260   0.0000       2.529681        68.8361 
 261   0.0000       2.540835        69.1396 
 262   0.0000       2.562713        69.7350 
 263   0.0000       2.571871        69.9842 
 264   0.0000       2.582610        70.2764 
 265   0.0000       2.588337        70.4322 
 266   0.0000       2.592368        70.5419 
 267   0.0000       2.620426        71.3054 
 268   0.0000       2.634655        71.6926 
 269   0.0000       2.644127        71.9504 
 270   0.0000       2.651621        72.1543 
 271   0.0000       2.665783        72.5396 
 272   0.0000       2.671742        72.7018 
 273   0.0000       2.684320        73.0441 
 274   0.0000       2.699395        73.4543 
 275   0.0000       2.718581        73.9763 
 276   0.0000       2.723394        74.1073 
 277   0.0000       2.747143        74.7535 
 278   0.0000       2.749896        74.8285 
 279   0.0000       2.756510        75.0084 
 280   0.0000       2.771071        75.4047 
 281   0.0000       2.779942        75.6461 
 282   0.0000       2.788145        75.8693 
 283   0.0000       2.808527        76.4239 
 284   0.0000       2.815103        76.6028 
 285   0.0000       2.829189        76.9861 
 286   0.0000       2.839268        77.2604 
 287   0.0000       2.858569        77.7856 
 288   0.0000       2.878229        78.3206 
 289   0.0000       2.886829        78.5546 
 290   0.0000       2.908203        79.1362 
 291   0.0000       2.911041        79.2135 
 292   0.0000       2.913737        79.2868 
 293   0.0000       2.921999        79.5116 
 294   0.0000       2.934701        79.8573 
 295   0.0000       2.950096        80.2762 
 296   0.0000       2.962352        80.6097 
 297   0.0000       2.972318        80.8809 
 298   0.0000       2.998459        81.5922 
 299   0.0000       3.012578        81.9764 
 300   0.0000       3.024619        82.3041 
 301   0.0000       3.033421        82.5436 
 302   0.0000       3.058007        83.2126 
 303   0.0000       3.066152        83.4342 
 304   0.0000       3.069654        83.5295 
 305   0.0000       3.078277        83.7642 
 306   0.0000       3.093003        84.1649 
 307   0.0000       3.107087        84.5481 
 308   0.0000       3.120787        84.9209 
 309   0.0000       3.129817        85.1666 
 310   0.0000       3.142526        85.5125 
 311   0.0000       3.149121        85.6919 
 312   0.0000       3.171885        86.3114 
 313   0.0000       3.178984        86.5045 
 314   0.0000       3.181990        86.5863 
 315   0.0000       3.190578        86.8200 
 316   0.0000       3.211025        87.3764 
 317   0.0000       3.229702        87.8847 
 318   0.0000       3.240183        88.1699 
 319   0.0000       3.246148        88.3322 
 320   0.0000       3.252941        88.5170 
 321   0.0000       3.257877        88.6514 
 322   0.0000       3.266014        88.8728 
 323   0.0000       3.273927        89.0881 
 324   0.0000       3.295699        89.6805 
 325   0.0000       3.297311        89.7244 
 326   0.0000       3.309865        90.0660 
 327   0.0000       3.314925        90.2037 
 328   0.0000       3.326280        90.5127 
 329   0.0000       3.350014        91.1585 
 330   0.0000       3.362037        91.4857 
 331   0.0000       3.364929        91.5644 
 332   0.0000       3.393288        92.3361 
 333   0.0000       3.398939        92.4898 
 334   0.0000       3.411662        92.8360 
 335   0.0000       3.417707        93.0005 
 336   0.0000       3.422083        93.1196 
 337   0.0000       3.427078        93.2555 
 338   0.0000       3.432162        93.3939 
 339   0.0000       3.444338        93.7252 
 340   0.0000       3.475406        94.5706 
 341   0.0000       3.496030        95.1318 
 342   0.0000       3.499536        95.2272 
 343   0.0000       3.506458        95.4156 
 344   0.0000       3.524052        95.8943 
 345   0.0000       3.534091        96.1675 
 346   0.0000       3.547774        96.5398 
 347   0.0000       3.561157        96.9040 
 348   0.0000       3.570782        97.1659 
 349   0.0000       3.576048        97.3092 
 350   0.0000       3.604843        98.0928 
 351   0.0000       3.610058        98.2347 
 352   0.0000       3.631059        98.8061 
 353   0.0000       3.650338        99.3307 
 354   0.0000       3.670922        99.8909 
 355   0.0000       3.691152       100.4414 
 356   0.0000       3.719265       101.2063 
 357   0.0000       3.755043       102.1799 
 358   0.0000       3.757898       102.2576 
 359   0.0000       3.768179       102.5374 
 360   0.0000       3.798070       103.3508 
 361   0.0000       3.814223       103.7903 
 362   0.0000       3.839439       104.4764 
 363   0.0000       3.886318       105.7521 
 364   0.0000       3.918881       106.6382 
 365   0.0000       3.947324       107.4121 
 366   0.0000       3.955006       107.6212 
 367   0.0000       3.979839       108.2969 
 368   0.0000       4.001360       108.8825 
 369   0.0000       4.017085       109.3104 
 370   0.0000       4.035366       109.8079 
 371   0.0000       4.076305       110.9219 
 372   0.0000       4.105315       111.7113 
 373   0.0000       4.110280       111.8464 
 374   0.0000       4.128449       112.3408 
 375   0.0000       4.165775       113.3565 
 376   0.0000       4.178784       113.7105 
 377   0.0000       4.217491       114.7638 
 378   0.0000       4.223613       114.9303 
 379   0.0000       4.225129       114.9716 
 380   0.0000       4.234422       115.2245 
 381   0.0000       4.245623       115.5293 
 382   0.0000       4.275078       116.3308 
 383   0.0000       4.284683       116.5922 
 384   0.0000       4.297075       116.9294 
 385   0.0000       4.303664       117.1086 
 386   0.0000       4.363796       118.7449 
 387   0.0000       4.377002       119.1043 
 388   0.0000       4.397959       119.6745 
 389   0.0000       4.408437       119.9597 
 390   0.0000       4.423594       120.3721 
 391   0.0000       4.443944       120.9259 
 392   0.0000       4.458380       121.3187 
 393   0.0000       4.517621       122.9307 
 394   0.0000       4.542159       123.5984 
 395   0.0000       4.570671       124.3743 
 396   0.0000       4.624792       125.8470 
 397   0.0000       4.672565       127.1470 
 398   0.0000       4.693551       127.7180 
 399   0.0000       4.735405       128.8569 
 400   0.0000       4.767786       129.7381 
 401   0.0000       4.800695       130.6336 
 402   0.0000       4.839440       131.6879 
 403   0.0000       4.891734       133.1108 
 404   0.0000       4.929958       134.1510 
 405   0.0000       4.947097       134.6173 
 406   0.0000       4.962539       135.0375 
 407   0.0000       5.026596       136.7806 
 408   0.0000       5.052197       137.4773 
 409   0.0000       5.071206       137.9945 
 410   0.0000       5.103697       138.8787 
 411   0.0000       5.195805       141.3850 
 412   0.0000       5.221714       142.0901 
 413   0.0000       5.247560       142.7934 
 414   0.0000       5.261778       143.1803 
 415   0.0000       5.279371       143.6590 
 416   0.0000       5.307327       144.4197 
 417   0.0000       5.330088       145.0391 
 418   0.0000       5.341348       145.3455 
 419   0.0000       5.426535       147.6635 
 420   0.0000       5.494528       149.5137 
 421   0.0000       5.501110       149.6928 
 422   0.0000       5.517434       150.1370 
 423   0.0000       5.536213       150.6480 
 424   0.0000       5.675511       154.4385 
 425   0.0000       5.729007       155.8942 
 426   0.0000       5.816180       158.2663 
 427   0.0000       5.827052       158.5622 
 428   0.0000       5.899902       160.5445 
 429   0.0000       5.950329       161.9167 
 430   0.0000       6.031391       164.1225 
 431   0.0000       6.350722       172.8119 
 432   0.0000       6.434128       175.0815 
 433   0.0000       6.441366       175.2785 
 434   0.0000       6.734837       183.2642 
 435   0.0000       6.826902       185.7694 
 436   0.0000       7.009212       190.7304 
 437   0.0000       7.306045       198.8076 
 438   0.0000      22.220428       604.6486 
 439   0.0000      22.500982       612.2828 
 440   0.0000      22.551654       613.6617 
 441   0.0000      22.713038       618.0532 
 442   0.0000      22.786255       620.0455 
 443   0.0000      22.835077       621.3740 
 444   0.0000      22.863241       622.1404 
 445   0.0000      22.979944       625.3161 
 446   0.0000      23.107665       628.7915 
 447   0.0000      23.461291       638.4142 
 448   0.0000      32.807818       892.7461 
 449   0.0000      44.029697      1198.1090 

                    ********************************
                    * MULLIKEN POPULATION ANALYSIS *
                    ********************************

-----------------------
MULLIKEN ATOMIC CHARGES
-----------------------
   0 C :    0.227318
   1 C :   -0.257777
   2 C :   -0.259381
   3 H :    0.141598
   4 H :    0.135321
   5 C :   -0.246504
   6 C :   -0.244045
   7 H :    0.152347
   8 H :    0.138145
   9 C :    0.255429
  10 O :   -0.441415
  11 H :    0.365108
  12 C :   -0.356610
  13 H :    0.143823
  14 C :   -0.057936
  15 H :    0.150265
  16 N :   -0.061929
  17 C :   -0.311085
  18 H :    0.148098
  19 H :    0.151731
  20 H :    0.127250
  21 C :   -0.339941
  22 H :    0.156548
  23 H :    0.133190
  24 H :    0.150453
Sum of atomic charges:    0.0000000

--------------------------------
MULLIKEN REDUCED ORBITAL CHARGES
--------------------------------
  0 C s       :     3.141787  s :     3.141787
      pz      :     0.755023  p :     2.475582
      px      :     0.919739
      py      :     0.800819
      dz2     :     0.031332  d :     0.145313
      dxz     :     0.036547
      dyz     :     0.040104
      dx2y2   :     0.017235
      dxy     :     0.020096
      f0      :     0.001242  f :     0.010001
      f+1     :     0.001318
      f-1     :     0.003243
      f+2     :     0.000900
      f-2     :     0.001045
      f+3     :     0.001290
      f-3     :     0.000962
  1 C s       :     3.231211  s :     3.231211
      pz      :     0.967162  p :     2.922046
      px      :     0.986219
      py      :     0.968665
      dz2     :     0.020165  d :     0.097113
      dxz     :     0.022961
      dyz     :     0.035302
      dx2y2   :     0.009300
      dxy     :     0.009385
      f0      :     0.000918  f :     0.007407
      f+1     :     0.001529
      f-1     :     0.002182
      f+2     :     0.000697
      f-2     :     0.000537
      f+3     :     0.000842
      f-3     :     0.000701
  2 C s       :     3.247626  s :     3.247626
      pz      :     0.959517  p :     2.909842
      px      :     0.976164
      py      :     0.974161
      dz2     :     0.020600  d :     0.094657
      dxz     :     0.021925
      dyz     :     0.034469
      dx2y2   :     0.008855
      dxy     :     0.008808
      f0      :     0.000872  f :     0.007257
      f+1     :     0.001522
      f-1     :     0.002136
      f+2     :     0.000688
      f-2     :     0.000497
      f+3     :     0.000799
      f-3     :     0.000742
  3 H s       :     0.836327  s :     0.836327
      pz      :     0.005987  p :     0.022075
      px      :     0.005093
      py      :     0.010995
  4 H s       :     0.842096  s :     0.842096
      pz      :     0.006123  p :     0.022583
      px      :     0.005109
      py      :     0.011350
  5 C s       :     3.226239  s :     3.226239
      pz      :     0.932959  p :     2.927774
      px      :     1.033441
      py      :     0.961375
      dz2     :     0.016835  d :     0.085284
      dxz     :     0.019521
      dyz     :     0.030146
      dx2y2   :     0.009471
      dxy     :     0.009312
      f0      :     0.000829  f :     0.007207
      f+1     :     0.001494
      f-1     :     0.001992
      f+2     :     0.000745
      f-2     :     0.000451
      f+3     :     0.000902
      f-3     :     0.000794
  6 C s       :     3.250111  s :     3.250111
      pz      :     0.930073  p :     2.900884
      px      :     1.024242
      py      :     0.946569
      dz2     :     0.015468  d :     0.085574
      dxz     :     0.020290
      dyz     :     0.031663
      dx2y2   :     0.008098
      dxy     :     0.010054
      f0      :     0.000854  f :     0.007477
      f+1     :     0.001504
      f-1     :     0.002160
      f+2     :     0.000730
      f-2     :     0.000547
      f+3     :     0.000932
      f-3     :     0.000748
  7 H s       :     0.825563  s :     0.825563
      pz      :     0.005865  p :     0.022090
      px      :     0.005210
      py      :     0.011015
  8 H s       :     0.839734  s :     0.839734
      pz      :     0.006033  p :     0.022121
      px      :     0.005262
      py      :     0.010826
  9 C s       :     2.993199  s :     2.993199
      pz      :     0.714311  p :     2.559964
      px      :     0.941044
      py      :     0.904609
      dz2     :     0.032781  d :     0.175857
      dxz     :     0.046276
      dyz     :     0.057100
      dx2y2   :     0.016387
      dxy     :     0.023314
      f0      :     0.002477  f :     0.015551
      f+1     :     0.003343
      f-1     :     0.005351
      f+2     :     0.000776
      f-2     :     0.001079
      f+3     :     0.001451
      f-3     :     0.001073
 10 O s       :     3.751905  s :     3.751905
      pz      :     1.334656  p :     4.655597
      px      :     1.817919
      py      :     1.503022
      dz2     :     0.010780  d :     0.032177
      dxz     :     0.005782
      dyz     :     0.007978
      dx2y2   :     0.005625
      dxy     :     0.002011
      f0      :     0.000550  f :     0.001736
      f+1     :     0.000302
      f-1     :     0.000229
      f+2     :     0.000233
      f-2     :     0.000050
      f+3     :     0.000123
      f-3     :     0.000248
 11 H s       :     0.589512  s :     0.589512
      pz      :     0.011308  p :     0.045380
      px      :     0.015183
      py      :     0.018889
 12 C s       :     3.248672  s :     3.248672
      pz      :     0.905707  p :     3.018276
      px      :     1.144954
      py      :     0.967614
      dz2     :     0.019784  d :     0.082475
      dxz     :     0.022769
      dyz     :     0.023619
      dx2y2   :     0.009526
      dxy     :     0.006778
      f0      :     0.001221  f :     0.007187
      f+1     :     0.001123
      f-1     :     0.001991
      f+2     :     0.000689
      f-2     :     0.000599
      f+3     :     0.000896
      f-3     :     0.000668
 13 H s       :     0.833103  s :     0.833103
      pz      :     0.005444  p :     0.023074
      px      :     0.005970
      py      :     0.011660
 14 C s       :     3.145038  s :     3.145038
      pz      :     0.821279  p :     2.777845
      px      :     0.953953
      py      :     1.002614
      dz2     :     0.027298  d :     0.124582
      dxz     :     0.047032
      dyz     :     0.028050
      dx2y2   :     0.011651
      dxy     :     0.010551
      f0      :     0.002241  f :     0.010471
      f+1     :     0.002715
      f-1     :     0.002780
      f+2     :     0.000518
      f-2     :     0.000644
      f+3     :     0.000943
      f-3     :     0.000629
 15 H s       :     0.827449  s :     0.827449
      pz      :     0.005126  p :     0.022286
      px      :     0.004480
      py      :     0.012679
 16 N s       :     3.402574  s :     3.402574
      pz      :     1.029702  p :     3.564273
      px      :     1.492269
      py      :     1.042303
      dz2     :     0.021289  d :     0.090221
      dxz     :     0.016413
      dyz     :     0.026427
      dx2y2   :     0.011932
      dxy     :     0.014160
      f0      :     0.000666  f :     0.004861
      f+1     :     0.000725
      f-1     :     0.001289
      f+2     :     0.000512
      f-2     :     0.000444
      f+3     :     0.000619
      f-3     :     0.000605
 17 C s       :     3.246439  s :     3.246439
      pz      :     1.033951  p :     2.973055
      px      :     1.032365
      py      :     0.906739
      dz2     :     0.016863  d :     0.085613
      dxz     :     0.011553
      dyz     :     0.015214
      dx2y2   :     0.028777
      dxy     :     0.013206
      f0      :     0.000483  f :     0.005978
      f+1     :     0.000602
      f-1     :     0.000793
      f+2     :     0.001267
      f-2     :     0.000753
      f+3     :     0.000872
      f-3     :     0.001206
 18 H s       :     0.831081  s :     0.831081
      pz      :     0.011406  p :     0.020821
      px      :     0.005478
      py      :     0.003937
 19 H s       :     0.827122  s :     0.827122
      pz      :     0.006144  p :     0.021147
      px      :     0.004420
      py      :     0.010583
 20 H s       :     0.852182  s :     0.852182
      pz      :     0.004262  p :     0.020568
      px      :     0.012645
      py      :     0.003661
[...]
     52       0.050193   0.013775  -0.002870  -0.000354   0.001138  -0.000593
     53      -0.074641  -0.019601   0.002764   0.000401  -0.000939   0.000591
     54      -0.235218  -0.061780   0.006766   0.001070  -0.002450   0.001542
     55       0.058334   0.018358   0.001005   0.000045   0.000142   0.000218
     56       0.491747   0.130972  -0.012777  -0.002136   0.005466  -0.003142
     57       0.132030   0.034589  -0.006531  -0.000856   0.002666  -0.001364
     58      -0.656720  -0.175124   0.038289   0.004939  -0.014718   0.008177
     59       0.412470   0.112344  -0.020952  -0.002742   0.008354  -0.004324
     60       0.055077   0.021479   0.004644   0.000106  -0.002547   0.001035
     61       0.003110  -0.000293  -0.000709  -0.000083   0.000009  -0.000140
     62      -0.012218  -0.003415   0.001829   0.000162  -0.000812   0.000405
     63       0.003470  -0.012689   0.001162  -0.000136   0.002484  -0.000247
     64       0.009500  -0.035985   0.001981  -0.000119   0.002373  -0.000077
     65       0.021696  -0.080693  -0.001033  -0.000542   0.004130  -0.000858
     66       0.032391  -0.124551  -0.001258  -0.000701   0.005389  -0.001000
     67      -0.040595   0.145443   0.001367   0.000938  -0.008198   0.001554
     68      -0.215293   0.819443   0.011464   0.004813  -0.035371   0.007062
     69       0.019497  -0.067386   0.005751   0.000037   0.000585   0.000733
     70      -0.006991   0.024087  -0.003556  -0.000222   0.002246  -0.000883
     71       0.002151  -0.009016  -0.000601  -0.000072   0.000581  -0.000192
     72      -0.095661   0.341465  -0.016192   0.002439  -0.036277   0.003647
     73      -0.074060   0.265705  -0.013481   0.001842  -0.028139   0.002653
     74      -0.039833   0.147703  -0.008577   0.001141  -0.018334   0.001737
                 72         73         74    
      0      -0.000294  -0.000355  -0.000022
      1       0.001764   0.001554   0.000004
      2       0.001658  -0.001734  -0.000043
      3       0.010663  -0.000908   0.000002
      4      -0.051773   0.004497  -0.000022
      5       0.031685  -0.002187  -0.000102
      6       0.000333   0.009487   0.000026
      7      -0.001790  -0.046605  -0.000146
      8      -0.001948  -0.028903  -0.000022
      9      -0.121753   0.009618   0.000160
     10       0.593543  -0.048039  -0.000709
     11      -0.337141   0.026373   0.000879
     12      -0.004826  -0.108875  -0.000134
     13       0.024460   0.535381   0.000695
     14       0.014974   0.302743   0.000257
     15       0.008561  -0.000681  -0.000076
     16      -0.051229   0.004051   0.000601
     17      -0.031712   0.001924   0.000846
     18       0.001152   0.012432  -0.000101
     19      -0.005211  -0.057358   0.000605
     20       0.003667   0.035143   0.000559
     21      -0.097576   0.007319   0.000324
     22       0.581747  -0.043528  -0.002264
     23       0.338466  -0.024820  -0.003518
     24      -0.013435  -0.141759  -0.000116
     25       0.061697   0.651285   0.000374
     26      -0.036683  -0.381127   0.000061
     27      -0.000571  -0.000399   0.000404
     28       0.002716   0.002404  -0.002093
     29      -0.002495   0.002933  -0.000596
     30       0.000085   0.000040   0.010121
     31      -0.000382  -0.000224  -0.056059
     32       0.000413  -0.000400  -0.025024
     33      -0.000470   0.000038  -0.163744
     34       0.002361  -0.000328   0.903823
     35       0.004423  -0.002314   0.390375
     36       0.000270   0.000049   0.000026
     37      -0.015932   0.001743   0.000140
     38       0.006398  -0.000533   0.000093
     39      -0.003005   0.000253  -0.000070
     40       0.183403  -0.020600  -0.000390
     41      -0.082178   0.010809   0.000282
     42      -0.000174  -0.000403   0.000031
     43      -0.002908  -0.006260  -0.000105
     44       0.001977   0.002211  -0.000171
     45       0.002455   0.003817  -0.000085
     46       0.041753   0.072290   0.000072
     47      -0.017985  -0.031314  -0.000064
     48      -0.000028  -0.000036  -0.000056
     49      -0.000179  -0.000018   0.000023
     50      -0.000075   0.000119   0.000186
     51       0.000029  -0.000092  -0.000019
     52      -0.000143  -0.000204  -0.000055
     53       0.000211   0.000091  -0.000028
     54       0.000671   0.000146  -0.000028
     55      -0.000156   0.000225   0.000052
     56      -0.001650  -0.000155   0.000177
     57      -0.000417  -0.000368  -0.000018
     58       0.002351   0.002312   0.000114
     59      -0.001304  -0.001157  -0.000057
     60      -0.000519   0.001456   0.000457
     61       0.000015  -0.000052   0.000113
     62       0.000020   0.000268   0.000093
     63      -0.000487   0.000007  -0.000002
     64      -0.000546   0.000187   0.000069
     65      -0.000715  -0.000168  -0.000024
     66      -0.000889  -0.000175   0.000001
     67       0.001461   0.000280   0.000004
     68       0.005707   0.001473   0.000168
     69      -0.000900   0.001189   0.000329
     70       0.000069  -0.000826  -0.000324
     71      -0.000015  -0.000165  -0.000025
     72       0.007583  -0.000836  -0.000143
     73       0.005931  -0.000783  -0.000167
     74       0.003889  -0.000510  -0.000104


-----------
IR SPECTRUM
-----------

 Mode   freq       eps      Int      T**2         TX        TY        TZ
       cm**-1   L/(mol*cm) km/mol    a.u.
----------------------------------------------------------------------------
  6:     31.99   0.000357    1.80  0.003478  ( 0.051499 -0.012644 -0.025814)
  7:     63.03   0.000550    2.78  0.002725  ( 0.046867  0.001459 -0.022946)
  8:     90.51   0.000857    4.33  0.002954  ( 0.020970 -0.037041 -0.033794)
  9:    134.62   0.005017   25.35  0.011630  (-0.014182  0.036149  0.100610)
 10:    192.63   0.001250    6.32  0.002025  ( 0.007939  0.020845  0.039084)
 11:    199.28   0.000409    2.07  0.000641  ( 0.013813 -0.000311  0.021206)
 12:    219.44   0.001123    5.68  0.001597  (-0.016471  0.004782  0.036096)
 13:    263.89   0.000006    0.03  0.000007  ( 0.000632  0.001802 -0.001839)
 14:    303.38   0.001817    9.18  0.001869  ( 0.007694 -0.001282 -0.042522)
 15:    328.30   0.003620   18.30  0.003441  ( 0.002440 -0.032127 -0.049024)
 16:    359.40   0.035139  177.58  0.030511  (-0.171562 -0.032473  0.004765)
 17:    392.78   0.000463    2.34  0.000367  (-0.004225 -0.016730 -0.008351)
 18:    419.80   0.006222   31.44  0.004625  (-0.007419 -0.019328 -0.064780)
 19:    423.10   0.000553    2.79  0.000408  ( 0.006459 -0.004645 -0.018563)
 20:    455.52   0.000062    0.31  0.000042  ( 0.003279 -0.003260 -0.004558)
 21:    514.04   0.001438    7.27  0.000873  (-0.027566 -0.009834 -0.004038)
 22:    536.99   0.006633   33.52  0.003855  ( 0.059066  0.003909 -0.018726)
 23:    579.57   0.012193   61.62  0.006565  (-0.008809  0.007241  0.080220)
 24:    655.62   0.000250    1.26  0.000119  ( 0.001296  0.002570 -0.010511)
 25:    739.99   0.000891    4.50  0.000376  ( 0.006200 -0.003200 -0.018081)
 26:    810.86   0.005548   28.04  0.002135  ( 0.012207 -0.000043  0.044566)
 27:    814.22   0.001307    6.61  0.000501  ( 0.011223 -0.017675  0.007915)
 28:    828.50   0.000666    3.37  0.000251  ( 0.012941 -0.007713 -0.004902)
 29:    857.68   0.027698  139.97  0.010078  (-0.099141 -0.015771 -0.000188)
 30:    869.42   0.005035   25.44  0.001807  (-0.008928  0.013493  0.039313)
 31:    910.39   0.002151   10.87  0.000737  (-0.018240  0.006254 -0.019123)
 32:    952.15   0.000267    1.35  0.000088  ( 0.008766  0.002123  0.002513)
 33:    967.43   0.002345   11.85  0.000756  (-0.021961 -0.003107 -0.016264)
 34:    969.75   0.020708  104.65  0.006664  ( 0.061268  0.011021  0.052806)
 35:   1029.36   0.000015    0.07  0.000004  ( 0.001734 -0.001105  0.000420)
 36:   1082.85   0.002807   14.18  0.000809  (-0.006629 -0.024071  0.013618)
 37:   1111.76   0.069047  348.94  0.019381  (-0.012077 -0.054592 -0.127495)
 38:   1118.61   0.002168   10.96  0.000605  (-0.008968 -0.007150  0.021756)
 39:   1126.69   0.003082   15.57  0.000854  ( 0.006404 -0.016770  0.023052)
 40:   1158.66   0.020178  101.97  0.005435  ( 0.008324 -0.018687 -0.070825)
 41:   1189.44   0.015757   79.63  0.004134  (-0.003025  0.004483 -0.064068)
 42:   1193.29   0.048846  246.85  0.012774  ( 0.006312 -0.019943  0.111069)
 43:   1233.48   0.003212   16.23  0.000813  ( 0.000595 -0.028394  0.002459)
 44:   1254.95   0.008760   44.27  0.002178  ( 0.010298  0.032577  0.031798)
 45:   1297.51   0.046138  233.16  0.011097  (-0.001411 -0.013811 -0.104421)
 46:   1326.07   0.004581   23.15  0.001078  (-0.005026 -0.009800 -0.030931)
 47:   1339.41   0.002230   11.27  0.000519  (-0.003940  0.021978  0.004573)
 48:   1376.22   0.009959   50.33  0.002258  (-0.002731  0.009123  0.046556)
 49:   1390.41   0.016259   82.17  0.003649  ( 0.001286 -0.010348  0.059502)
 50:   1406.50   0.056882  287.46  0.012620  ( 0.010556  0.034921  0.106252)
 51:   1434.99   0.001981   10.01  0.000431  ( 0.002240  0.004731  0.020084)
 52:   1455.18   0.013958   70.54  0.002993  (-0.010533 -0.010625 -0.052627)
 53:   1460.36   0.002576   13.02  0.000550  ( 0.007731 -0.018380 -0.012362)
 54:   1465.15   0.008471   42.81  0.001804  ( 0.029892  0.000923 -0.030165)
 55:   1475.81   0.000396    2.00  0.000084  ( 0.004285 -0.004297  0.006851)
 56:   1487.49   0.008519   43.05  0.001787  ( 0.002389 -0.023194 -0.035264)
 57:   1508.10   0.036075  182.31  0.007465  ( 0.008278 -0.004116  0.085903)
 58:   1553.54   0.044988  227.35  0.009037  ( 0.002912 -0.000473  0.095017)
 59:   1641.92   0.003196   16.15  0.000607  (-0.000620  0.021912  0.011262)
 60:   1673.93   0.002465   12.45  0.000459  ( 0.001398  0.002262 -0.021269)
 61:   1694.83   0.162834  822.90  0.029982  (-0.010192 -0.048397 -0.165940)
 62:   2987.46   0.016546   83.62  0.001728  (-0.013251  0.033870 -0.020139)
 63:   2994.49   0.045765  231.28  0.004769  ( 0.045894  0.017202  0.048653)
 64:   3086.98   0.011203   56.62  0.001133  ( 0.029214  0.002076 -0.016577)
 65:   3090.24   0.005757   29.09  0.000581  ( 0.011973 -0.017551 -0.011400)
 66:   3139.81   0.003061   15.47  0.000304  ( 0.001126  0.011619 -0.012960)
 67:   3143.22   0.005485   27.72  0.000545  (-0.002218 -0.004615 -0.022767)
 68:   3172.26   0.000999    5.05  0.000098  (-0.000210 -0.008066  0.005759)
 69:   3174.38   0.003724   18.82  0.000366  (-0.001462  0.001817 -0.018990)
 70:   3185.11   0.008126   41.07  0.000796  ( 0.000106  0.007338 -0.027245)
 71:   3188.10   0.002030   10.26  0.000199  ( 0.000833 -0.008342 -0.011333)
 72:   3190.20   0.003653   18.46  0.000357  ( 0.002706 -0.018688  0.000910)
 73:   3203.62   0.002171   10.97  0.000211  ( 0.003253 -0.012814  0.006053)
 74:   3825.70   0.044929  227.05  0.003665  (-0.005059  0.036367  0.048132)

* The epsilon (eps) is given for a Dirac delta lineshape.
** The dipole moment derivative (T) already includes vibrational overlap.

The first frequency considered to be a vibration is 6
The total number of vibrations considered is 69


--------------------------
THERMOCHEMISTRY AT 298.15K
--------------------------

Temperature         ... 298.15 K
Pressure            ... 1.00 atm
Total Mass          ... 163.22 AMU

Throughout the following assumptions are being made:
  (1) The electronic state is orbitally nondegenerate
  (2) There are no thermally accessible electronically excited states
  (3) Hindered rotations indicated by low frequency modes are not
      treated as such but are treated as vibrations and this may
      cause some error
  (4) All equations used are the standard statistical mechanics
      equations for an ideal gas
  (5) All vibrations are strictly harmonic

freq.      31.99  E(vib)   ...       0.55 
freq.      63.03  E(vib)   ...       0.51 
freq.      90.51  E(vib)   ...       0.47 
freq.     134.62  E(vib)   ...       0.42 
freq.     192.63  E(vib)   ...       0.36 
freq.     199.28  E(vib)   ...       0.35 
freq.     219.44  E(vib)   ...       0.33 
freq.     263.89  E(vib)   ...       0.29 
freq.     303.38  E(vib)   ...       0.26 
freq.     328.30  E(vib)   ...       0.24 
freq.     359.40  E(vib)   ...       0.22 
freq.     392.78  E(vib)   ...       0.20 
freq.     419.80  E(vib)   ...       0.18 
freq.     423.10  E(vib)   ...       0.18 
freq.     455.52  E(vib)   ...       0.16 
freq.     514.04  E(vib)   ...       0.13 
freq.     536.99  E(vib)   ...       0.12 
freq.     579.57  E(vib)   ...       0.11 
freq.     655.62  E(vib)   ...       0.08 
freq.     739.99  E(vib)   ...       0.06 
freq.     810.86  E(vib)   ...       0.05 
freq.     814.22  E(vib)   ...       0.05 
freq.     828.50  E(vib)   ...       0.04 
freq.     857.68  E(vib)   ...       0.04 
freq.     869.42  E(vib)   ...       0.04 
freq.     910.39  E(vib)   ...       0.03 
freq.     952.15  E(vib)   ...       0.03 
freq.     967.43  E(vib)   ...       0.03 
freq.     969.75  E(vib)   ...       0.03 
freq.    1029.36  E(vib)   ...       0.02 
freq.    1082.85  E(vib)   ...       0.02 
freq.    1111.76  E(vib)   ...       0.01 
freq.    1118.61  E(vib)   ...       0.01 
freq.    1126.69  E(vib)   ...       0.01 
freq.    1158.66  E(vib)   ...       0.01 
freq.    1189.44  E(vib)   ...       0.01 
freq.    1193.29  E(vib)   ...       0.01 
freq.    1233.48  E(vib)   ...       0.01 
freq.    1254.95  E(vib)   ...       0.01 
freq.    1297.51  E(vib)   ...       0.01 
freq.    1326.07  E(vib)   ...       0.01 
freq.    1339.41  E(vib)   ...       0.01 
freq.    1376.22  E(vib)   ...       0.01 
freq.    1390.41  E(vib)   ...       0.00 
freq.    1406.50  E(vib)   ...       0.00 
freq.    1434.99  E(vib)   ...       0.00 
freq.    1455.18  E(vib)   ...       0.00 
freq.    1460.36  E(vib)   ...       0.00 
freq.    1465.15  E(vib)   ...       0.00 
freq.    1475.81  E(vib)   ...       0.00 
freq.    1487.49  E(vib)   ...       0.00 
freq.    1508.10  E(vib)   ...       0.00 
freq.    1553.54  E(vib)   ...       0.00 
freq.    1641.92  E(vib)   ...       0.00 
freq.    1673.93  E(vib)   ...       0.00 
freq.    1694.83  E(vib)   ...       0.00 
freq.    2987.46  E(vib)   ...       0.00 
freq.    2994.49  E(vib)   ...       0.00 
freq.    3086.98  E(vib)   ...       0.00 
freq.    3090.24  E(vib)   ...       0.00 
freq.    3139.81  E(vib)   ...       0.00 
freq.    3143.22  E(vib)   ...       0.00 
freq.    3172.26  E(vib)   ...       0.00 
freq.    3174.38  E(vib)   ...       0.00 
freq.    3185.11  E(vib)   ...       0.00 
freq.    3188.10  E(vib)   ...       0.00 
freq.    3190.20  E(vib)   ...       0.00 
freq.    3203.62  E(vib)   ...       0.00 
freq.    3825.70  E(vib)   ...       0.00 

------------
INNER ENERGY
------------

The inner energy is: U= E(el) + E(ZPE) + E(vib) + E(rot) + E(trans)
    E(el)   - is the total energy from the electronic structure calculation
              = E(kin-el) + E(nuc-el) + E(el-el) + E(nuc-nuc)
    E(ZPE)  - the the zero temperature vibrational energy from the frequency calculation
    E(vib)  - the the finite temperature correction to E(ZPE) due to population
              of excited vibrational states
    E(rot)  - is the rotational thermal energy
    E(trans)- is the translational thermal energy

Summary of contributions to the inner energy U:
Electronic energy                ...   -518.45982800 Eh
Zero point energy                ...      0.21130539 Eh     132.60 kcal/mol
Thermal vibrational correction   ...      0.00919655 Eh       5.77 kcal/mol
Thermal rotational correction    ...      0.00141627 Eh       0.89 kcal/mol
Thermal translational correction ...      0.00141627 Eh       0.89 kcal/mol
-----------------------------------------------------------------------
Total thermal energy                   -518.23649352 Eh


Summary of corrections to the electronic energy:
(perhaps to be used in another calculation)
Total thermal correction                  0.01202910 Eh       7.55 kcal/mol
Non-thermal (ZPE) correction              0.21130539 Eh     132.60 kcal/mol
-----------------------------------------------------------------------
Total correction                          0.22333448 Eh     140.14 kcal/mol


--------
ENTHALPY
--------

The enthalpy is H = U + kB*T
                kB is Boltzmann's constant
Total free energy                 ...   -518.23649352 Eh 
Thermal Enthalpy correction       ...      0.00094421 Eh       0.59 kcal/mol
-----------------------------------------------------------------------
Total Enthalpy                    ...   -518.23554931 Eh


Note: Only C1 symmetry has been detected, increase convergence thresholds 
      if your molecule has a higher symmetry. Symmetry factor of 1.0 is   
      used for the rotational entropy correction. 
 

Note: Rotational entropy computed according to Herzberg 
Infrared and Raman Spectra, Chapter V,1, Van Nostrand Reinhold, 1945 
Point Group:  C1, Symmetry Number:   1  
Rotational constants in cm-1:     0.108562     0.011936     0.010893 

Vibrational entropy computed according to the QRRHO of S. Grimme
Chem.Eur.J. 2012 18 9955


-------
ENTROPY
-------

The entropy contributions are T*S = T*(S(el)+S(vib)+S(rot)+S(trans))
     S(el)   - electronic entropy
     S(vib)  - vibrational entropy
     S(rot)  - rotational entropy
     S(trans)- translational entropy
The entropies will be listed as multiplied by the temperature to get
units of energy

Electronic entropy                ...      0.00000000 Eh      0.00 kcal/mol
Vibrational entropy               ...      0.01580164 Eh      9.92 kcal/mol
Rotational entropy                ...      0.01478323 Eh      9.28 kcal/mol
Translational entropy             ...      0.01956511 Eh     12.28 kcal/mol
-----------------------------------------------------------------------
Final entropy term                ...      0.05014998 Eh     31.47 kcal/mol

In case the symmetry of your molecule has not been determined correctly
or in case you have a reason to use a different symmetry number we print 
out the resulting rotational entropy values for sn=1,12 :
 --------------------------------------------------------
|  sn= 1 | S(rot)=       0.01478323 Eh      9.28 kcal/mol|
|  sn= 2 | S(rot)=       0.01412878 Eh      8.87 kcal/mol|
|  sn= 3 | S(rot)=       0.01374594 Eh      8.63 kcal/mol|
|  sn= 4 | S(rot)=       0.01347432 Eh      8.46 kcal/mol|
|  sn= 5 | S(rot)=       0.01326363 Eh      8.32 kcal/mol|
|  sn= 6 | S(rot)=       0.01309149 Eh      8.22 kcal/mol|
|  sn= 7 | S(rot)=       0.01294594 Eh      8.12 kcal/mol|
|  sn= 8 | S(rot)=       0.01281986 Eh      8.04 kcal/mol|
|  sn= 9 | S(rot)=       0.01270865 Eh      7.97 kcal/mol|
|  sn=10 | S(rot)=       0.01260918 Eh      7.91 kcal/mol|
|  sn=11 | S(rot)=       0.01251919 Eh      7.86 kcal/mol|
|  sn=12 | S(rot)=       0.01243703 Eh      7.80 kcal/mol|
 --------------------------------------------------------


-------------------
GIBBS FREE ENERGY
-------------------

The Gibbs free energy is G = H - T*S

Total enthalpy                    ...   -518.23554931 Eh 
Total entropy correction          ...     -0.05014998 Eh    -31.47 kcal/mol
-----------------------------------------------------------------------
Final Gibbs free energy         ...   -518.28569929 Eh

For completeness - the Gibbs free energy minus the electronic energy
G-E(el)                           ...      0.17412871 Eh    109.27 kcal/mol


Timings for individual modules:

Sum of individual times         ...      514.457 sec (=   8.574 min)
GTO integral calculation        ...        5.400 sec (=   0.090 min)   1.0 %
SCF iterations                  ...       89.576 sec (=   1.493 min)  17.4 %
SCF Gradient evaluation         ...       18.595 sec (=   0.310 min)   3.6 %
Geometry relaxation             ...        0.225 sec (=   0.004 min)   0.0 %
Analytical frequency calculation...      400.661 sec (=   6.678 min)  77.9 %
                             ****ORCA TERMINATED NORMALLY****
TOTAL RUN TIME: 0 days 0 hours 8 minutes 41 seconds 318 msec
