
                                 *****************
                                 * O   R   C   A *
                                 *****************

                                            #,                                       
                                            ###                                      
                                            ####                                     
                                            #####                                    
                                            ######                                   
                                           ########,                                 
                                     ,,################,,,,,                         
                               ,,#################################,,                 
                          ,,##########################################,,             
                       ,#########################################, ''#####,          
                    ,#############################################,,   '####,        
                  ,##################################################,,,,####,       
                ,###########''''           ''''###############################       
              ,#####''   ,,,,##########,,,,          '''####'''          '####       
            ,##' ,,,,###########################,,,                        '##       
           ' ,,###''''                  '''############,,,                           
         ,,##''                                '''############,,,,        ,,,,,,###''
      ,#''                                            '''#######################'''  
     '                                                          ''''####''''         
             ,#######,   #######,   ,#######,      ##                                
            ,#'     '#,  ##    ##  ,#'     '#,    #''#        ######   ,####,        
            ##       ##  ##   ,#'  ##            #'  '#       #        #'  '#        
            ##       ##  #######   ##           ,######,      #####,   #    #        
            '#,     ,#'  ##    ##  '#,     ,#' ,#      #,         ##   #,  ,#        
             '#######'   ##     ##  '#######'  #'      '#     #####' # '####'        



                  #######################################################
                  #                        -***-                        #
                  #          Department of theory and spectroscopy      #
                  #    Directorship and core code : Frank Neese         #
                  #        Max Planck Institute fuer Kohlenforschung    #
                  #                Kaiser Wilhelm Platz 1               #
                  #                 D-45470 Muelheim/Ruhr               #
                  #                      Germany                        #
                  #                                                     #
                  #                  All rights reserved                #
                  #                        -***-                        #
                  #######################################################


                         Program Version 5.0.4 -  RELEASE  -


 With contributions from (in alphabetic order):
   Daniel Aravena         : Magnetic Suceptibility
   Michael Atanasov       : Ab Initio Ligand Field Theory (pilot matlab implementation)
   Alexander A. Auer      : GIAO ZORA, VPT2 properties, NMR spectrum
   Ute Becker             : Parallelization
   Giovanni Bistoni       : ED, misc. LED, open-shell LED, HFLD
   Martin Brehm           : Molecular dynamics
   Dmytro Bykov           : SCF Hessian
   Vijay G. Chilkuri      : MRCI spin determinant printing, contributions to CSF-ICE
   Dipayan Datta          : RHF DLPNO-CCSD density
   Achintya Kumar Dutta   : EOM-CC, STEOM-CC
   Dmitry Ganyushin       : Spin-Orbit,Spin-Spin,Magnetic field MRCI
   Miquel Garcia          : C-PCM and meta-GGA Hessian, CC/C-PCM, Gaussian charge scheme
   Yang Guo               : DLPNO-NEVPT2, F12-NEVPT2, CIM, IAO-localization
   Andreas Hansen         : Spin unrestricted coupled pair/coupled cluster methods
   Benjamin Helmich-Paris : MC-RPA, TRAH-SCF, COSX integrals
   Lee Huntington         : MR-EOM, pCC
   Robert Izsak           : Overlap fitted RIJCOSX, COSX-SCS-MP3, EOM
   Marcus Kettner         : VPT2
   Christian Kollmar      : KDIIS, OOCD, Brueckner-CCSD(T), CCSD density, CASPT2, CASPT2-K
   Simone Kossmann        : Meta GGA functionals, TD-DFT gradient, OOMP2, MP2 Hessian
   Martin Krupicka        : Initial AUTO-CI
   Lucas Lang             : DCDCAS
   Marvin Lechner         : AUTO-CI (C++ implementation), FIC-MRCC
   Dagmar Lenk            : GEPOL surface, SMD
   Dimitrios Liakos       : Extrapolation schemes; Compound Job, initial MDCI parallelization
   Dimitrios Manganas     : Further ROCIS development; embedding schemes
   Dimitrios Pantazis     : SARC Basis sets
   Anastasios Papadopoulos: AUTO-CI, single reference methods and gradients
   Taras Petrenko         : DFT Hessian,TD-DFT gradient, ASA, ECA, R-Raman, ABS, FL, XAS/XES, NRVS
   Peter Pinski           : DLPNO-MP2, DLPNO-MP2 Gradient
   Christoph Reimann      : Effective Core Potentials
   Marius Retegan         : Local ZFS, SOC
   Christoph Riplinger    : Optimizer, TS searches, QM/MM, DLPNO-CCSD(T), (RO)-DLPNO pert. Triples
   Tobias Risthaus        : Range-separated hybrids, TD-DFT gradient, RPA, STAB
   Michael Roemelt        : Original ROCIS implementation
   Masaaki Saitow         : Open-shell DLPNO-CCSD energy and density
   Barbara Sandhoefer     : DKH picture change effects
   Avijit Sen             : IP-ROCIS
   Kantharuban Sivalingam : CASSCF convergence, NEVPT2, FIC-MRCI
   Bernardo de Souza      : ESD, SOC TD-DFT
   Georgi Stoychev        : AutoAux, RI-MP2 NMR, DLPNO-MP2 response
   Willem Van den Heuvel  : Paramagnetic NMR
   Boris Wezisla          : Elementary symmetry handling
   Frank Wennmohs         : Technical directorship


 We gratefully acknowledge several colleagues who have allowed us to
 interface, adapt or use parts of their codes:
   Stefan Grimme, W. Hujo, H. Kruse, P. Pracht,  : VdW corrections, initial TS optimization,
                  C. Bannwarth, S. Ehlert          DFT functionals, gCP, sTDA/sTD-DF
   Ed Valeev, F. Pavosevic, A. Kumar             : LibInt (2-el integral package), F12 methods
   Garnet Chan, S. Sharma, J. Yang, R. Olivares  : DMRG
   Ulf Ekstrom                                   : XCFun DFT Library
   Mihaly Kallay                                 : mrcc  (arbitrary order and MRCC methods)
   Jiri Pittner, Ondrej Demel                    : Mk-CCSD
   Frank Weinhold                                : gennbo (NPA and NBO analysis)
   Christopher J. Cramer and Donald G. Truhlar   : smd solvation model
   Lars Goerigk                                  : TD-DFT with DH, B97 family of functionals
   V. Asgeirsson, H. Jonsson                     : NEB implementation
   FAccTs GmbH                                   : IRC, NEB, NEB-TS, DLPNO-Multilevel, CI-OPT
                                                   MM, QMMM, 2- and 3-layer-ONIOM, Crystal-QMMM,
                                                   LR-CPCM, SF, NACMEs, symmetry and pop. for TD-DFT,
                                                   nearIR, NL-DFT gradient (VV10), updates on ESD,
                                                   ML-optimized integration grids
   S Lehtola, MJT Oliveira, MAL Marques          : LibXC Library
   Liviu Ungur et al                             : ANISO software


 Your calculation uses the libint2 library for the computation of 2-el integrals
 For citations please refer to: http://libint.valeyev.net

 Your ORCA version has been built with support for libXC version: 5.1.0
 For citations please refer to: https://tddft.org/programs/libxc/

 This ORCA versions uses:
   CBLAS   interface :  Fast vector & matrix operations
   LAPACKE interface :  Fast linear algebra routines
   SCALAPACK package :  Parallel linear algebra routines
   Shared memory     :  Shared parallel matrices
   BLAS/LAPACK       :  OpenBLAS 0.3.15  USE64BITINT DYNAMIC_ARCH NO_AFFINITY Haswell SINGLE_THREADED
        Core in use  :  Haswell
   Copyright (c) 2011-2014, The OpenBLAS Project


Your calculation utilizes the atom-pairwise dispersion correction
with the Becke-Johnson damping scheme (D3BJ)
Cite in your paper:
S.Grimme, S.Ehrlich, L.Goerigk, J Comput Chem, (2011), 32, 1456–1465 
S.Grimme, J.Antony, S.Ehrlich and H.Krieg, J.Chem.Phys., 132, (2010), 154104 
   

================================================================================

----- Orbital basis set information -----
Your calculation utilizes the basis: def2-TZVP
   F. Weigend and R. Ahlrichs, Phys. Chem. Chem. Phys. 7, 3297 (2005).

----- AuxJ basis set information -----
Your calculation utilizes the auxiliary basis: def2/J
   F. Weigend, Phys. Chem. Chem. Phys. 8, 1057 (2006).

================================================================================
                                        WARNINGS
                       Please study these warnings very carefully!
================================================================================


WARNING: Geometry Optimization
  ===> : Switching off AutoStart
         For restart on a previous wavefunction, please use MOREAD

INFO   : the flag for use of the SHARK integral package has been found!

================================================================================
                                       INPUT FILE
================================================================================
NAME = CHCHNMe2-PhenO/CHCHNMe2-PhenO.inp
|  1> %pal nprocs 24 end
|  2> %maxcore 3500
|  3> ! PBE0 D3BJ def2-TZVP TightSCF OPT FREQ TightOpt
|  4> ! CPCM(dmso)
|  5> %scf
|  6> MaxIter 800
|  7> end
|  8> %geom
|  9> MaxIter 800
| 10> MaxStep 0.2
| 11> end
| 12> *xyz -1 1
| 13> 
| 14> C      -0.05364000     -0.53629400     -1.62396300
| 15> C      -0.29373700      0.62799500     -0.88164600
| 16> C       0.23169700     -1.68991500     -0.87733700
| 17> H      -0.50837700      1.54966000     -1.41933700
| 18> H       0.45859400     -2.61848800     -1.39508700
| 19> C      -0.27660500      0.64848400      0.50121600
| 20> C       0.25019100     -1.68771600      0.50364800
| 21> H      -0.47073100      1.57839000      1.03037200
| 22> H       0.48229000     -2.60494300      1.03986300
| 23> C      -0.00897100     -0.51600800      1.27961800
| 24> O       0.00928800     -0.51338700      2.55969700
| 25> C      -0.11665200     -0.49594900     -3.08144500
| 26> H      -0.13846200      0.49956900     -3.51675800
| 27> C      -0.14900000     -1.56456900     -3.89968500
| 28> H      -0.18932000     -2.56842000     -3.48425500
| 29> N      -0.09289200     -1.55789100     -5.28066500
| 30> C      -0.82760400     -2.60924400     -5.94723000
| 31> H      -0.47842300     -2.70827900     -6.97715500
| 32> H      -0.66023700     -3.55657100     -5.43129800
| 33> H      -1.91194200     -2.41804200     -5.96865300
| 34> C      -0.13515100     -0.28299300     -5.94532700
| 35> H       0.00910200     -0.43251500     -7.01625600
| 36> H      -1.09226600      0.24244700     -5.79411600
| 37> H       0.66427100      0.36269900     -5.57451100
| 38> *
| 39> 
| 40>                          ****END OF INPUT****
================================================================================

                       *****************************
                       * Geometry Optimization Run *
                       *****************************

Geometry optimization settings:
Update method            Update   .... BFGS
Choice of coordinates    CoordSys .... Z-matrix Internals
Initial Hessian          InHess   .... Almoef's Model

Convergence Tolerances:
Energy Change            TolE     ....  1.0000e-06 Eh
Max. Gradient            TolMAXG  ....  1.0000e-04 Eh/bohr
RMS Gradient             TolRMSG  ....  3.0000e-05 Eh/bohr
Max. Displacement        TolMAXD  ....  1.0000e-03 bohr
RMS Displacement         TolRMSD  ....  6.0000e-04 bohr
Strict Convergence                ....  False
------------------------------------------------------------------------------
                        ORCA OPTIMIZATION COORDINATE SETUP
------------------------------------------------------------------------------

The optimization will be done in new redundant internal coordinates
Making redundant internal coordinates   ...  (new redundants) done
Evaluating the initial hessian          ...  (Almloef) done
Evaluating the coordinates              ...  done
Calculating the B-matrix                .... done
Calculating the G-matrix                .... done
Diagonalizing the G-matrix              .... done
Small eigenvalue found = 6.839e-03
Small eigenvalue found = 2.869e-02
The first mode is                       ....   45
The number of degrees of freedom        ....   66

    -----------------------------------------------------------------
                    Redundant Internal Coordinates


    -----------------------------------------------------------------
         Definition                    Initial Value    Approx d2E/dq
    -----------------------------------------------------------------
      1. B(C   1,C   0)                  1.4015         0.598913   
      2. B(C   2,C   0)                  1.4035         0.594646   
      3. B(H   3,C   1)                  1.0884         0.362202   
      4. B(H   4,C   2)                  1.0871         0.363951   
      5. B(C   5,C   1)                  1.3831         0.640789   
      6. B(C   6,C   2)                  1.3811         0.645537   
      7. B(H   7,C   5)                  1.0874         0.363570   
      8. B(H   8,C   6)                  1.0875         0.363394   
      9. B(C   9,C   6)                  1.4291         0.541291   
     10. B(C   9,C   5)                  1.4260         0.547325   
     11. B(O  10,C   9)                  1.2802         0.837598   
     12. B(C  11,C   0)                  1.4594         0.484187   
     13. B(H  12,C  11)                  1.0868         0.364423   
     14. B(C  13,C  11)                  1.3463         0.733612   
     15. B(H  14,C  13)                  1.0872         0.363872   
     16. B(N  15,C  13)                  1.3821         0.576000   
     17. B(C  16,N  15)                  1.4455         0.456392   
     18. B(H  17,C  16)                  1.0920         0.357454   
     19. B(H  18,C  16)                  1.0916         0.357968   
     20. B(H  19,C  16)                  1.1013         0.345490   
     21. B(C  20,N  15)                  1.4384         0.468483   
     22. B(H  21,C  20)                  1.0909         0.358916   
     23. B(H  22,C  20)                  1.1023         0.344216   
     24. B(H  23,C  20)                  1.0925         0.356843   
     25. A(C   1,C   0,C   2)          115.8432         0.428154   
     26. A(C   1,C   0,C  11)          119.9070         0.412741   
     27. A(C   2,C   0,C  11)          124.2490         0.412217   
     28. A(H   3,C   1,C   5)          118.9351         0.355237   
     29. A(C   0,C   1,H   3)          118.3978         0.351195   
     30. A(C   0,C   1,C   5)          122.6658         0.433939   
     31. A(H   4,C   2,C   6)          118.3455         0.355973   
     32. A(C   0,C   2,H   4)          119.4181         0.351057   
     33. A(C   0,C   2,C   6)          122.2323         0.433958   
     34. A(H   7,C   5,C   9)          117.7883         0.346123   
     35. A(C   1,C   5,C   9)          122.4101         0.426978   
     36. A(C   1,C   5,H   7)          119.8014         0.355464   
     37. A(H   8,C   6,C   9)          117.5487         0.345451   
     38. A(C   2,C   6,C   9)          122.8079         0.426695   
     39. A(C   2,C   6,H   8)          119.6389         0.355880   
     40. A(C   5,C   9,O  10)          123.1476         0.445146   
     41. A(C   5,C   9,C   6)          114.0279         0.414313   
     42. A(C   6,C   9,O  10)          122.8220         0.444254   
     43. A(H  12,C  11,C  13)          118.8933         0.363895   
     44. A(C   0,C  11,C  13)          125.8784         0.427952   
     45. A(C   0,C  11,H  12)          115.2284         0.339221   
     46. A(H  14,C  13,N  15)          112.8158         0.347020   
     47. A(C  11,C  13,N  15)          127.0458         0.438637   
     48. A(C  11,C  13,H  14)          120.1039         0.363801   
     49. A(C  13,N  15,C  16)          115.8871         0.400440   
     50. A(C  16,N  15,C  20)          114.6231         0.386212   
     51. A(C  13,N  15,C  20)          117.6970         0.402289   
     52. A(H  18,C  16,H  19)          108.1090         0.288688   
     53. A(H  17,C  16,H  19)          108.1944         0.288623   
     54. A(N  15,C  16,H  19)          112.5291         0.330924   
     55. A(H  17,C  16,H  18)          108.5440         0.290232   
     56. A(N  15,C  16,H  18)          109.5919         0.332875   
     57. A(N  15,C  16,H  17)          109.7765         0.332795   
     58. A(H  21,C  20,H  23)          108.5095         0.290275   
     59. A(N  15,C  20,H  23)          110.2134         0.334148   
     60. A(H  21,C  20,H  22)          108.3502         0.288640   
     61. A(N  15,C  20,H  22)          112.6206         0.332157   
     62. A(H  22,C  20,H  23)          107.8836         0.288379   
     63. A(N  15,C  20,H  21)          109.1634         0.334469   
     64. D(H   3,C   1,C   0,C   2)    179.3325         0.024723   
     65. D(C   5,C   1,C   0,C   2)     -1.0787         0.024723   
     66. D(C   5,C   1,C   0,C  11)    178.6026         0.024723   
     67. D(H   3,C   1,C   0,C  11)     -0.9862         0.024723   
     68. D(C   6,C   2,C   0,C   1)      1.2053         0.024354   
     69. D(C   6,C   2,C   0,C  11)   -178.4605         0.024354   
     70. D(H   4,C   2,C   0,C   1)   -178.0514         0.024354   
     71. D(H   4,C   2,C   0,C  11)      2.2828         0.024354   
     72. D(C   9,C   5,C   1,H   3)    179.7626         0.028533   
     73. D(H   7,C   5,C   1,C   0)   -179.9187         0.028533   
     74. D(H   7,C   5,C   1,H   3)     -0.3321         0.028533   
     75. D(C   9,C   5,C   1,C   0)      0.1759         0.028533   
     76. D(C   9,C   6,C   2,C   0)     -0.4417         0.028987   
     77. D(H   8,C   6,C   2,H   4)     -0.3806         0.028987   
     78. D(H   8,C   6,C   2,C   0)   -179.6449         0.028987   
     79. D(C   9,C   6,C   2,H   4)    178.8227         0.028987   
     80. D(O  10,C   9,C   6,H   8)     -0.7162         0.020023   
     81. D(C   5,C   9,C   6,H   8)    178.7366         0.020023   
     82. D(O  10,C   9,C   5,H   7)      0.1548         0.020486   
     83. D(O  10,C   9,C   5,C   1)   -179.9381         0.020486   
     84. D(C   5,C   9,C   6,C   2)     -0.4823         0.020023   
     85. D(O  10,C   9,C   6,C   2)   -179.9351         0.020023   
     86. D(C   6,C   9,C   5,C   1)      0.6111         0.020486   
     87. D(C   6,C   9,C   5,H   7)   -179.2960         0.020486   
     88. D(C  13,C  11,C   0,C   2)     12.4286         0.015962   
     89. D(C  13,C  11,C   0,C   1)   -167.2244         0.015962   
     90. D(H  12,C  11,C   0,C   2)   -167.5866         0.015962   
     91. D(H  12,C  11,C   0,C   1)     12.7604         0.015962   
     92. D(N  15,C  13,C  11,C   0)   -173.9840         0.038221   
     93. D(H  14,C  13,C  11,H  12)   -176.2670         0.038221   
     94. D(H  14,C  13,C  11,C   0)      3.7172         0.038221   
     95. D(N  15,C  13,C  11,H  12)      6.0317         0.038221   
     96. D(C  20,N  15,C  13,H  14)    175.5457         0.026587   
     97. D(C  20,N  15,C  13,C  11)     -6.6117         0.026587   
     98. D(C  16,N  15,C  13,H  14)     34.4857         0.026587   
     99. D(C  16,N  15,C  13,C  11)   -147.6718         0.026587   
    100. D(H  19,C  16,N  15,C  20)    -65.2577         0.017776   
    101. D(H  19,C  16,N  15,C  13)     76.9968         0.017776   
    102. D(H  18,C  16,N  15,C  20)    174.4224         0.017776   
    103. D(H  18,C  16,N  15,C  13)    -43.3231         0.017776   
    104. D(H  17,C  16,N  15,C  20)     55.2979         0.017776   
    105. D(H  17,C  16,N  15,C  13)   -162.4476         0.017776   
    106. D(H  23,C  20,N  15,C  16)   -162.6747         0.018749   
    107. D(H  23,C  20,N  15,C  13)     55.7875         0.018749   
    108. D(H  22,C  20,N  15,C  16)     76.7992         0.018749   
    109. D(H  22,C  20,N  15,C  13)    -64.7385         0.018749   
    110. D(H  21,C  20,N  15,C  16)    -43.5903         0.018749   
    111. D(H  21,C  20,N  15,C  13)    174.8720         0.018749   
    -----------------------------------------------------------------

Number of atoms                         .... 24
Number of degrees of freedom            .... 111

         *************************************************************
         *                GEOMETRY OPTIMIZATION CYCLE   1            *
         *************************************************************
---------------------------------
CARTESIAN COORDINATES (ANGSTROEM)
---------------------------------
  C     -0.053640   -0.536294   -1.623963
  C     -0.293737    0.627995   -0.881646
  C      0.231697   -1.689915   -0.877337
  H     -0.508377    1.549660   -1.419337
  H      0.458594   -2.618488   -1.395087
  C     -0.276605    0.648484    0.501216
  C      0.250191   -1.687716    0.503648
  H     -0.470731    1.578390    1.030372
  H      0.482290   -2.604943    1.039863
  C     -0.008971   -0.516008    1.279618
  O      0.009288   -0.513387    2.559697
  C     -0.116652   -0.495949   -3.081445
  H     -0.138462    0.499569   -3.516758
  C     -0.149000   -1.564569   -3.899685
  H     -0.189320   -2.568420   -3.484255
  N     -0.092892   -1.557891   -5.280665
  C     -0.827604   -2.609244   -5.947230
  H     -0.478423   -2.708279   -6.977155
  H     -0.660237   -3.556571   -5.431298
  H     -1.911942   -2.418042   -5.968653
  C     -0.135151   -0.282993   -5.945327
  H      0.009102   -0.432515   -7.016256
  H     -1.092266    0.242447   -5.794116
  H      0.664271    0.362699   -5.574511

----------------------------
CARTESIAN COORDINATES (A.U.)
----------------------------
  NO LB      ZA    FRAG     MASS         X           Y           Z
   0 C     6.0000    0    12.011   -0.101365   -1.013449   -3.068845
   1 C     6.0000    0    12.011   -0.555082    1.186739   -1.666069
   2 C     6.0000    0    12.011    0.437844   -3.193477   -1.657927
   3 H     1.0000    0     1.008   -0.960693    2.928433   -2.682158
   4 H     1.0000    0     1.008    0.866617   -4.948225   -2.636332
   5 C     6.0000    0    12.011   -0.522708    1.225457    0.947161
   6 C     6.0000    0    12.011    0.472792   -3.189321    0.951757
   7 H     1.0000    0     1.008   -0.889553    2.982725    1.947121
   8 H     1.0000    0     1.008    0.911396   -4.922629    1.965056
   9 C     6.0000    0    12.011   -0.016953   -0.975114    2.418128
  10 O     8.0000    0    15.999    0.017552   -0.970161    4.837126
  11 C     6.0000    0    12.011   -0.220440   -0.937208   -5.823087
  12 H     1.0000    0     1.008   -0.261655    0.944049   -6.645709
  13 C     6.0000    0    12.011   -0.281569   -2.956607   -7.369337
  14 H     1.0000    0     1.008   -0.357763   -4.853610   -6.584288
  15 N     7.0000    0    14.007   -0.175540   -2.943987   -9.979011
  16 C     6.0000    0    12.011   -1.563945   -4.930757  -11.238636
  17 H     1.0000    0     1.008   -0.904088   -5.117906  -13.184912
  18 H     1.0000    0     1.008   -1.247667   -6.720945  -10.263666
  19 H     1.0000    0     1.008   -3.613047   -4.569437  -11.279120
  20 C     6.0000    0    12.011   -0.255398   -0.534779  -11.235040
  21 H     1.0000    0     1.008    0.017200   -0.817335  -13.258802
  22 H     1.0000    0     1.008   -2.064084    0.458158  -10.949292
  23 H     1.0000    0     1.008    1.255290    0.685402  -10.534299

--------------------------------
INTERNAL COORDINATES (ANGSTROEM)
--------------------------------
 C      0   0   0     0.000000000000     0.00000000     0.00000000
 C      1   0   0     1.401517025733     0.00000000     0.00000000
 C      1   2   0     1.403463216150   115.84316171     0.00000000
 H      2   1   3     1.088415505818   118.39781692   179.33249821
 H      3   1   2     1.087104009485   119.41814031   181.94861433
 C      2   1   3     1.383119884749   122.66580335   358.92128863
 C      3   1   2     1.381110579882   122.23232612     1.20529542
 H      6   2   1     1.087389601315   119.80144193   180.08126254
 H      7   3   1     1.087520961432   119.63888756   180.35507380
 C      6   2   1     1.426036202073   122.41014463     0.17594770
 O     10   6   2     1.280211899243   123.14764207   180.06188272
 C      1   2   3     1.459401251025   119.90700333   179.68132061
 H     12   1   2     1.086751660865   115.22837064    12.76038992
 C     12   1   2     1.346295582368   125.87836819   192.77562302
 H     14  12   1     1.087163565201   120.10385293     3.71722806
 N     14  12   1     1.382135472285   127.04577083   186.01595966
 C     16  14  12     1.445494293582   115.88712261   212.32823601
 H     17  16  14     1.092007695765   109.77648845   197.55238057
 H     17  16  14     1.091616226630   109.59186351   316.67694725
 H     17  16  14     1.101274737737   112.52909035    76.99678236
 C     16  14  12     1.438376274738   117.69698232   353.38825254
 H     21  16  14     1.090896273499   109.16340798   174.87197294
 H     21  16  14     1.102279947811   112.62063999   295.26147793
 H     21  16  14     1.092473431624   110.21336400    55.78752753

---------------------------
INTERNAL COORDINATES (A.U.)
---------------------------
 C      0   0   0     0.000000000000     0.00000000     0.00000000
 C      1   0   0     2.648483350663     0.00000000     0.00000000
 C      1   2   0     2.652161117556   115.84316171     0.00000000
 H      2   1   3     2.056807225910   118.39781692   179.33249821
 H      3   1   2     2.054328857014   119.41814031   181.94861433
 C      2   1   3     2.613717792557   122.66580335   358.92128863
 C      3   1   2     2.609920756638   122.23232612     1.20529542
 H      6   2   1     2.054868547359   119.80144193   180.08126254
 H      7   3   1     2.055116782006   119.63888756   180.35507380
 C      6   2   1     2.694817878976   122.41014463     0.17594770
 O     10   6   2     2.419249882956   123.14764207   180.06188272
 C      1   2   3     2.757868683939   119.90700333   179.68132061
 H     12   1   2     2.053663014619   115.22837064    12.76038992
 C     12   1   2     2.544129945984   125.87836819   192.77562302
 H     14  12   1     2.054441401008   120.10385293     3.71722806
 N     14  12   1     2.611857522596   127.04577083   186.01595966
 C     16  14  12     2.731588343016   115.88712261   212.32823601
 H     17  16  14     2.063595481131   109.77648845   197.55238057
 H     17  16  14     2.062855711675   109.59186351   316.67694725
 H     17  16  14     2.081107652528   112.52909035    76.99678236
 C     16  14  12     2.718137236785   117.69698232   353.38825254
 H     21  16  14     2.061495197428   109.16340798   174.87197294
 H     21  16  14     2.083007224276   112.62063999   295.26147793
 H     21  16  14     2.064475594354   110.21336400    55.78752753

---------------------
BASIS SET INFORMATION
---------------------
There are 4 groups of distinct atoms

 Group   1 Type C   : 11s6p2d1f contracted to 5s3p2d1f pattern {62111/411/11/1}
 Group   2 Type H   : 5s1p contracted to 3s1p pattern {311/1}
 Group   3 Type O   : 11s6p2d1f contracted to 5s3p2d1f pattern {62111/411/11/1}
 Group   4 Type N   : 11s6p2d1f contracted to 5s3p2d1f pattern {62111/411/11/1}

Atom   0C    basis set group =>   1
Atom   1C    basis set group =>   1
Atom   2C    basis set group =>   1
Atom   3H    basis set group =>   2
Atom   4H    basis set group =>   2
Atom   5C    basis set group =>   1
Atom   6C    basis set group =>   1
Atom   7H    basis set group =>   2
Atom   8H    basis set group =>   2
Atom   9C    basis set group =>   1
Atom  10O    basis set group =>   3
Atom  11C    basis set group =>   1
Atom  12H    basis set group =>   2
Atom  13C    basis set group =>   1
Atom  14H    basis set group =>   2
Atom  15N    basis set group =>   4
Atom  16C    basis set group =>   1
Atom  17H    basis set group =>   2
Atom  18H    basis set group =>   2
Atom  19H    basis set group =>   2
Atom  20C    basis set group =>   1
Atom  21H    basis set group =>   2
Atom  22H    basis set group =>   2
Atom  23H    basis set group =>   2
---------------------------------
AUXILIARY/J BASIS SET INFORMATION
---------------------------------
There are 4 groups of distinct atoms

 Group   1 Type C   : 12s5p4d2f1g contracted to 6s4p3d1f1g pattern {711111/2111/211/2/1}
 Group   2 Type H   : 5s2p1d contracted to 3s1p1d pattern {311/2/1}
 Group   3 Type O   : 12s5p4d2f1g contracted to 6s4p3d1f1g pattern {711111/2111/211/2/1}
 Group   4 Type N   : 12s5p4d2f1g contracted to 6s4p3d1f1g pattern {711111/2111/211/2/1}

Atom   0C    basis set group =>   1
Atom   1C    basis set group =>   1
Atom   2C    basis set group =>   1
Atom   3H    basis set group =>   2
Atom   4H    basis set group =>   2
Atom   5C    basis set group =>   1
Atom   6C    basis set group =>   1
Atom   7H    basis set group =>   2
Atom   8H    basis set group =>   2
Atom   9C    basis set group =>   1
Atom  10O    basis set group =>   3
Atom  11C    basis set group =>   1
Atom  12H    basis set group =>   2
Atom  13C    basis set group =>   1
Atom  14H    basis set group =>   2
Atom  15N    basis set group =>   4
Atom  16C    basis set group =>   1
Atom  17H    basis set group =>   2
Atom  18H    basis set group =>   2
Atom  19H    basis set group =>   2
Atom  20C    basis set group =>   1
Atom  21H    basis set group =>   2
Atom  22H    basis set group =>   2
Atom  23H    basis set group =>   2


           ************************************************************
           *        Program running with 24 parallel MPI-processes    *
           *              working on a common directory               *
           ************************************************************
------------------------------------------------------------------------------
                           ORCA GTO INTEGRAL CALCULATION
                           -- RI-GTO INTEGRALS CHOSEN --
------------------------------------------------------------------------------
------------------------------------------------------------------------------
                   ___                                                        
                  /   \      - P O W E R E D   B Y -                         
                 /     \                                                     
                 |  |  |   _    _      __       _____    __    __             
                 |  |  |  | |  | |    /  \     |  _  \  |  |  /  |          
                  \  \/   | |  | |   /    \    | | | |  |  | /  /          
                 / \  \   | |__| |  /  /\  \   | |_| |  |  |/  /          
                |  |  |   |  __  | /  /__\  \  |    /   |      \           
                |  |  |   | |  | | |   __   |  |    \   |  |\   \          
                \     /   | |  | | |  |  |  |  | |\  \  |  | \   \       
                 \___/    |_|  |_| |__|  |__|  |_| \__\ |__|  \__/        
                                                                              
                      - O R C A' S   B I G   F R I E N D -                    
                                      &                                       
                       - I N T E G R A L  F E E D E R -                       
                                                                              
 v1 FN, 2020, v2 2021                                                         
------------------------------------------------------------------------------


Reading SHARK input file CHCHNMe2-PhenO/CHCHNMe2-PhenO.SHARKINP.tmp ... ok
----------------------
SHARK INTEGRAL PACKAGE
----------------------

Number of atoms                             ...     24
Number of basis functions                   ...    444
Number of shells                            ...    180
Maximum angular momentum                    ...      3
Integral batch strategy                     ... SHARK/LIBINT Hybrid
RI-J (if used) integral strategy            ... SPLIT-RIJ (Revised 2003 algorithm where possible)
Printlevel                                  ...      1
Contraction scheme used                     ... SEGMENTED contraction
Coulomb Range Separation                    ... NOT USED
Exchange Range Separation                   ... NOT USED
Finite Nucleus Model                        ... NOT USED
Auxiliary Coulomb fitting basis             ... AVAILABLE
   # of basis functions in Aux-J            ...    720
   # of shells in Aux-J                     ...    240
   Maximum angular momentum in Aux-J        ...      4
Auxiliary J/K fitting basis                 ... NOT available
Auxiliary Correlation fitting basis         ... NOT available
Auxiliary 'external' fitting basis          ... NOT available
Integral threshold                          ...     2.500000e-11
Primitive cut-off                           ...     2.500000e-12
Primitive pair pre-selection threshold      ...     2.500000e-12

Calculating pre-screening integrals         ... done (  0.1 sec) Dimension = 180
Organizing shell pair data                  ... done (  0.2 sec)
Shell pair information
Total number of shell pairs                 ...     16290
Shell pairs after pre-screening             ...     12844
Total number of primitive shell pairs       ...     49128
Primitive shell pairs kept                  ...     27785
          la=0 lb=0:   3577 shell pairs
          la=1 lb=0:   3714 shell pairs
          la=1 lb=1:    992 shell pairs
          la=2 lb=0:   1791 shell pairs
          la=2 lb=1:    944 shell pairs
          la=2 lb=2:    241 shell pairs
          la=3 lb=0:    858 shell pairs
          la=3 lb=1:    450 shell pairs
          la=3 lb=2:    218 shell pairs
          la=3 lb=3:     59 shell pairs

Calculating one electron integrals          ... done (  0.0 sec)
Calculating RI/J V-Matrix + Cholesky decomp.... done (  0.1 sec)
Calculating Nuclear repulsion               ... done (  0.0 sec) ENN=    631.144327347634 Eh

SHARK setup successfully completed in   0.7 seconds

Maximum memory used throughout the entire GTOINT-calculation: 25.6 MB


           ************************************************************
           *        Program running with 24 parallel MPI-processes    *
           *              working on a common directory               *
           ************************************************************
-------------------------------------------------------------------------------
                                 ORCA SCF
-------------------------------------------------------------------------------

------------
SCF SETTINGS
------------
Hamiltonian:
 Density Functional     Method          .... DFT(GTOs)
 Exchange Functional    Exchange        .... PBE
   PBE kappa parameter   XKappa         ....  0.804000
   PBE mue parameter    XMuePBE         ....  0.219520
 Correlation Functional Correlation     .... PBE
   PBE beta parameter  CBetaPBE         ....  0.066725
 LDA part of GGA corr.  LDAOpt          .... PW91-LDA
 Gradients option       PostSCFGGA      .... off
 Hybrid DFT is turned on
   Fraction HF Exchange ScalHFX         ....  0.250000
   Scaling of DF-GGA-X  ScalDFX         ....  0.750000
   Scaling of DF-GGA-C  ScalDFC         ....  1.000000
   Scaling of DF-LDA-C  ScalLDAC        ....  1.000000
   Perturbative correction              ....  0.000000
   Density functional embedding theory  .... OFF
   NL short-range parameter             ....  6.900000
 RI-approximation to the Coulomb term is turned on
   Number of AuxJ basis functions       .... 720
   RIJ-COSX (HFX calculated with COS-X)).... on


General Settings:
 Integral files         IntName         .... CHCHNMe2-PhenO/CHCHNMe2-PhenO
 Hartree-Fock type      HFTyp           .... RHF
 Total Charge           Charge          ....   -1
 Multiplicity           Mult            ....    1
 Number of Electrons    NEL             ....   88
 Basis Dimension        Dim             ....  444
 Nuclear Repulsion      ENuc            ....    631.1443273476 Eh

Convergence Acceleration:
 DIIS                   CNVDIIS         .... on
   Start iteration      DIISMaxIt       ....    12
   Startup error        DIISStart       ....  0.200000
   # of expansion vecs  DIISMaxEq       ....     5
   Bias factor          DIISBfac        ....   1.050
   Max. coefficient     DIISMaxC        ....  10.000
 Trust-Rad. Augm. Hess. CNVTRAH         .... auto
   Auto Start mean grad. ratio tolernc. ....  1.125000
   Auto Start start iteration           ....    20
   Auto Start num. interpolation iter.  ....    10
   Max. Number of Micro iterations      ....    16
   Max. Number of Macro iterations      .... Maxiter - #DIIS iter
   Number of Davidson start vectors     ....     2
   Converg. threshold I  (grad. norm)   ....   1.000e-05
   Converg. threshold II (energy diff.) ....   1.000e-08
   Grad. Scal. Fac. for Micro threshold ....   0.100
   Minimum threshold for Micro iter.    ....   0.010
   NR start threshold (gradient norm)   ....   0.001
   Initial trust radius                 ....   0.400
   Minimum AH scaling param. (alpha)    ....   1.000
   Maximum AH scaling param. (alpha)    .... 1000.000
   Orbital update algorithm             .... Taylor
   White noise on init. David. guess    .... on
   Maximum white noise                  ....   0.010
   Quad. conv. algorithm                .... NR
 SOSCF                  CNVSOSCF        .... on
   Start iteration      SOSCFMaxIt      ....   150
   Startup grad/error   SOSCFStart      ....  0.003300
 Level Shifting         CNVShift        .... on
   Level shift para.    LevelShift      ....    0.2500
   Turn off err/grad.   ShiftErr        ....    0.0010
 Zerner damping         CNVZerner       .... off
 Static damping         CNVDamp         .... on
   Fraction old density DampFac         ....    0.7000
   Max. Damping (<1)    DampMax         ....    0.9800
   Min. Damping (>=0)   DampMin         ....    0.0000
   Turn off err/grad.   DampErr         ....    0.1000
 Fernandez-Rico         CNVRico         .... off

SCF Procedure:
 Maximum # iterations   MaxIter         ....   800
 SCF integral mode      SCFMode         .... Direct
   Integral package                     .... SHARK and LIBINT hybrid scheme
 Reset frequency        DirectResetFreq ....    20
 Integral Threshold     Thresh          ....  2.500e-11 Eh
 Primitive CutOff       TCut            ....  2.500e-12 Eh

Convergence Tolerance:
 Convergence Check Mode ConvCheckMode   .... Total+1el-Energy
 Convergence forced     ConvForced      .... 0
 Energy Change          TolE            ....  1.000e-08 Eh
 1-El. energy change                    ....  1.000e-05 Eh
 Orbital Gradient       TolG            ....  1.000e-05
 Orbital Rotation angle TolX            ....  1.000e-05
 DIIS Error             TolErr          ....  5.000e-07


Diagonalization of the overlap matrix:
Smallest eigenvalue                        ... 1.046e-05
Time for diagonalization                   ...    0.048 sec
Threshold for overlap eigenvalues          ... 1.000e-08
Number of eigenvalues below threshold      ... 0
Time for construction of square roots      ...    0.033 sec
Total time needed                          ...    0.085 sec

Time for model grid setup =    0.144 sec

------------------------------
INITIAL GUESS: MODEL POTENTIAL
------------------------------
Loading Hartree-Fock densities                     ... done
Calculating cut-offs                               ... done
Initializing the effective Hamiltonian             ... done
Setting up the integral package (SHARK)            ... done
Starting the Coulomb interaction                   ... done (   0.1 sec)
Reading the grid                                   ... done
Mapping shells                                     ... done
Starting the XC term evaluation                    ... done (   0.1 sec)
  promolecular density results
     # of electrons  =     86.996704049
     EX              =    -69.357999112
     EC              =     -2.882215577
     EX+EC           =    -72.240214689
Transforming the Hamiltonian                       ... done (   0.0 sec)
Diagonalizing the Hamiltonian                      ... done (   0.0 sec)
Back transforming the eigenvectors                 ... done (   0.0 sec)
Now organizing SCF variables                       ... done
                      ------------------
                      INITIAL GUESS DONE (   0.5 sec)
                      ------------------
-------------------
DFT GRID GENERATION
-------------------

General Integration Accuracy     IntAcc      ... 4.388
Radial Grid Type                 RadialGrid  ... OptM3 with GC (2021)
Angular Grid (max. ang.)         AngularGrid ... 4 (Lebedev-302)
Angular grid pruning method      GridPruning ... 4 (adaptive)
Weight generation scheme         WeightScheme... Becke
Basis function cutoff            BFCut       ... 1.0000e-11
Integration weight cutoff        WCut        ... 1.0000e-14
Angular grids for H and He will be reduced by one unit
Partially contracted basis set               ... off
Rotationally invariant grid construction     ... off

Total number of grid points                  ...   110499
Total number of batches                      ...     1740
Average number of points per batch           ...       63
Average number of grid points per atom       ...     4604
Time for grid setup =    0.604 sec

--------------------
COSX GRID GENERATION
--------------------

GRIDX 1
-------
General Integration Accuracy     IntAcc      ... 3.816
Radial Grid Type                 RadialGrid  ... OptM3 with GC (2021)
Angular Grid (max. ang.)         AngularGrid ... 1 (Lebedev-50)
Angular grid pruning method      GridPruning ... 4 (adaptive)
Weight generation scheme         WeightScheme... Becke
Basis function cutoff            BFCut       ... 1.0000e-11
Integration weight cutoff        WCut        ... 1.0000e-14
Angular grids for H and He will be reduced by one unit
Partially contracted basis set               ... on
Rotationally invariant grid construction     ... off

Total number of grid points                  ...    14144
Total number of batches                      ...      232
Average number of points per batch           ...       60
Average number of grid points per atom       ...      589
UseSFitting                                  ... on

GRIDX 2
-------
General Integration Accuracy     IntAcc      ... 4.020
Radial Grid Type                 RadialGrid  ... OptM3 with GC (2021)
Angular Grid (max. ang.)         AngularGrid ... 2 (Lebedev-110)
Angular grid pruning method      GridPruning ... 4 (adaptive)
Weight generation scheme         WeightScheme... Becke
Basis function cutoff            BFCut       ... 1.0000e-11
Integration weight cutoff        WCut        ... 1.0000e-14
Angular grids for H and He will be reduced by one unit
Partially contracted basis set               ... on
Rotationally invariant grid construction     ... off

Total number of grid points                  ...    30468
Total number of batches                      ...      486
Average number of points per batch           ...       62
Average number of grid points per atom       ...     1270
UseSFitting                                  ... on

GRIDX 3
-------
General Integration Accuracy     IntAcc      ... 4.338
Radial Grid Type                 RadialGrid  ... OptM3 with GC (2021)
Angular Grid (max. ang.)         AngularGrid ... 3 (Lebedev-194)
Angular grid pruning method      GridPruning ... 4 (adaptive)
Weight generation scheme         WeightScheme... Becke
Basis function cutoff            BFCut       ... 1.0000e-11
Integration weight cutoff        WCut        ... 1.0000e-14
Angular grids for H and He will be reduced by one unit
Partially contracted basis set               ... on
Rotationally invariant grid construction     ... off

Total number of grid points                  ...    66732
Total number of batches                      ...     1054
Average number of points per batch           ...       63
Average number of grid points per atom       ...     2780
UseSFitting                                  ... on

Time for X-Grid setup             =    0.875 sec


--------------------
CPCM SOLVATION MODEL
--------------------
CPCM parameters:
  Epsilon                                         ...      47.2000
  Refrac                                          ...       1.4790
  Rsolv                                           ...       1.3000
  Surface type                                    ... GAUSSIAN VDW
  Epsilon function type                           ...         CPCM
Radii:
 Radius for C  used is    3.8550 Bohr (=   2.0400 Ang.)
 Radius for H  used is    2.4944 Bohr (=   1.3200 Ang.)
 Radius for O  used is    3.4469 Bohr (=   1.8240 Ang.)
 Radius for N  used is    3.5149 Bohr (=   1.8600 Ang.)
Calculating surface                               ...        done! (  0.0s)
GEPOL surface points                              ...         1317
GEPOL Volume                                      ...    1432.1525
GEPOL Surface-area                                ...     786.5925
Calculating surface distance matrix               ...        done! (  0.0s)
Performing Cholesky decomposition & store         ...        done! (  0.2s)
Overall time for CPCM initialization              ...                 0.2s
--------------
SCF ITERATIONS
--------------
ITER       Energy         Delta-E        Max-DP      RMS-DP      [F,P]     Damp
               ***  Starting incremental Fock matrix formation  ***
  0   -517.5590729323   0.000000000000 0.50658668  0.00401516  0.3364162 0.7000
  1   -517.7330931314  -0.174020199113 0.48316811  0.00377609  0.1447348 0.7000
                               ***Turning on DIIS***
  2   -517.8090971145  -0.076003983045 0.49390448  0.00437953  0.0450332 0.0000
  3   -517.9213055752  -0.112208460695 0.49717166  0.00373366  0.0840819 0.0000
  4   -517.9476870868  -0.026381511580 0.08758471  0.00068732  0.0160266 0.0000
  5   -517.9490111611  -0.001324074382 0.05751769  0.00045411  0.0131499 0.0000
                      *** Initiating the SOSCF procedure ***
                           *** Shutting down DIIS ***
                      *** Re-Reading the Fockian *** 
                      *** Removing any level shift *** 
ITER      Energy       Delta-E        Grad      Rot      Max-DP    RMS-DP
  6   -517.94921601  -0.0002048460  0.000340  0.000340  0.026657  0.000221
               *** Restarting incremental Fock matrix formation ***
  7   -517.94923701  -0.0000210015  0.000119  0.000568  0.003221  0.000042
  8   -517.94923521   0.0000017973  0.000231  0.000410  0.003135  0.000024
  9   -517.94923908  -0.0000038727  0.000031  0.000116  0.000279  0.000003
 10   -517.94923901   0.0000000732  0.000044  0.000067  0.000485  0.000004
                  ***Gradient check signals convergence***
              ***Rediagonalizing the Fockian in SOSCF/NRSCF***

               *****************************************************
               *                     SUCCESS                       *
               *           SCF CONVERGED AFTER  11 CYCLES          *
               *****************************************************

Old exchange energy                            =    -17.805431599 Eh
New exchange energy                            =    -17.805431289 Eh
Exchange energy change after final integration =      0.000000310 Eh
Total energy after final integration           =   -517.949238827 Eh
Final COS-X integration done in                =     3.263 sec

----------------
TOTAL SCF ENERGY
----------------

Total Energy       :         -517.94923883 Eh          -14094.11532 eV

Components:
Nuclear Repulsion  :          631.14432735 Eh           17174.31027 eV
Electronic Energy  :        -1149.09356617 Eh          -31268.42559 eV
One Electron Energy:        -1966.71999250 Eh          -53517.17176 eV
Two Electron Energy:          817.62642633 Eh           22248.74616 eV
Max COSX asymmetry :            0.00000181 Eh               0.00005 eV
CPCM Dielectric    :           -0.10913828 Eh              -2.96980 eV

Virial components:
Potential Energy   :        -1033.42463287 Eh          -28120.91390 eV
Kinetic Energy     :          515.47539405 Eh           14026.79858 eV
Virial Ratio       :            2.00479915


DFT components:
N(Alpha)           :       43.999982357474 electrons
N(Beta)            :       43.999982357474 electrons
N(Total)           :       87.999964714947 electrons
E(X)               :      -53.267908911770 Eh       
E(C)               :       -2.923473677481 Eh       
E(XC)              :      -56.191382589251 Eh       
DFET-embed. en.    :        0.000000000000 Eh       
CPCM Solvation Model Properties:
Surface-charge          :            0.96178107
Charge-correction       :           -0.00486474 Eh              -0.13238 eV
Free-energy (cav+disp)  :  This term is not implemented in the current solvation scheme

---------------
SCF CONVERGENCE
---------------

  Last Energy change         ...   -1.2593e-07  Tolerance :   1.0000e-08
  Last MAX-Density change    ...    1.9984e-15  Tolerance :   1.0000e-07
  Last RMS-Density change    ...    1.7262e-17  Tolerance :   5.0000e-09
  Last Orbital Gradient      ...    2.4762e-06  Tolerance :   1.0000e-05
  Last Orbital Rotation      ...    1.1535e-05  Tolerance :   1.0000e-05

             **** THE GBW FILE WAS UPDATED (CHCHNMe2-PhenO/CHCHNMe2-PhenO.gbw) ****
             **** DENSITY CHCHNMe2-PhenO/CHCHNMe2-PhenO.scfp WAS UPDATED ****
             **** ENERGY FILE WAS UPDATED (CHCHNMe2-PhenO/CHCHNMe2-PhenO.en.tmp) ****
             **** THE GBW FILE WAS UPDATED (CHCHNMe2-PhenO/CHCHNMe2-PhenO.gbw) ****
             **** DENSITY CHCHNMe2-PhenO/CHCHNMe2-PhenO.scfp WAS UPDATED ****
----------------
ORBITAL ENERGIES
----------------

  NO   OCC          E(Eh)            E(eV) 
   0   2.0000     -19.108580      -519.9709 
   1   2.0000     -14.391863      -391.6225 
   2   2.0000     -10.238359      -278.5999 
   3   2.0000     -10.234757      -278.5019 
   4   2.0000     -10.232759      -278.4475 
   5   2.0000     -10.232157      -278.4312 
   6   2.0000     -10.200564      -277.5715 
   7   2.0000     -10.200088      -277.5585 
   8   2.0000     -10.199199      -277.5343 
   9   2.0000     -10.196209      -277.4530 
  10   2.0000     -10.185385      -277.1584 
  11   2.0000     -10.183391      -277.1041 
  12   2.0000      -0.972987       -26.4763 
  13   2.0000      -0.965925       -26.2842 
  14   2.0000      -0.847850       -23.0712 
  15   2.0000      -0.778209       -21.1761 
  16   2.0000      -0.740357       -20.1462 
  17   2.0000      -0.732239       -19.9252 
  18   2.0000      -0.713869       -19.4254 
  19   2.0000      -0.651223       -17.7207 
  20   2.0000      -0.601655       -16.3719 
  21   2.0000      -0.576259       -15.6808 
  22   2.0000      -0.549807       -14.9610 
  23   2.0000      -0.510101       -13.8805 
  24   2.0000      -0.493300       -13.4234 
  25   2.0000      -0.470396       -12.8001 
  26   2.0000      -0.458498       -12.4764 
  27   2.0000      -0.441177       -12.0050 
  28   2.0000      -0.434019       -11.8103 
  29   2.0000      -0.403938       -10.9917 
  30   2.0000      -0.400395       -10.8953 
  31   2.0000      -0.395076       -10.7506 
  32   2.0000      -0.390327       -10.6213 
  33   2.0000      -0.381585       -10.3835 
  34   2.0000      -0.379741       -10.3333 
  35   2.0000      -0.364864        -9.9285 
  36   2.0000      -0.345814        -9.4101 
  37   2.0000      -0.332972        -9.0606 
  38   2.0000      -0.323331        -8.7983 
  39   2.0000      -0.294518        -8.0142 
  40   2.0000      -0.245448        -6.6790 
  41   2.0000      -0.222231        -6.0472 
  42   2.0000      -0.216562        -5.8929 
  43   2.0000      -0.155516        -4.2318 
  44   0.0000       0.008253         0.2246 
  45   0.0000       0.020760         0.5649 
  46   0.0000       0.059758         1.6261 
  47   0.0000       0.077438         2.1072 
  48   0.0000       0.084260         2.2928 
  49   0.0000       0.092360         2.5132 
  50   0.0000       0.106102         2.8872 
  51   0.0000       0.110038         2.9943 
  52   0.0000       0.117376         3.1940 
  53   0.0000       0.119100         3.2409 
  54   0.0000       0.125642         3.4189 
  55   0.0000       0.136630         3.7179 
  56   0.0000       0.142801         3.8858 
  57   0.0000       0.151860         4.1323 
  58   0.0000       0.160287         4.3616 
  59   0.0000       0.171264         4.6603 
  60   0.0000       0.184313         5.0154 
  61   0.0000       0.185066         5.0359 
  62   0.0000       0.189471         5.1558 
  63   0.0000       0.192502         5.2382 
  64   0.0000       0.204922         5.5762 
  65   0.0000       0.214692         5.8421 
  66   0.0000       0.225638         6.1399 
  67   0.0000       0.227240         6.1835 
  68   0.0000       0.236654         6.4397 
  69   0.0000       0.239939         6.5291 
  70   0.0000       0.260968         7.1013 
  71   0.0000       0.267005         7.2656 
  72   0.0000       0.272956         7.4275 
  73   0.0000       0.283794         7.7224 
  74   0.0000       0.288176         7.8417 
  75   0.0000       0.299968         8.1625 
  76   0.0000       0.304334         8.2813 
  77   0.0000       0.319431         8.6922 
  78   0.0000       0.328707         8.9446 
  79   0.0000       0.334755         9.1092 
  80   0.0000       0.338886         9.2216 
  81   0.0000       0.352330         9.5874 
  82   0.0000       0.354760         9.6535 
  83   0.0000       0.366102         9.9621 
  84   0.0000       0.373480        10.1629 
  85   0.0000       0.377847        10.2817 
  86   0.0000       0.382775        10.4158 
  87   0.0000       0.386410        10.5147 
  88   0.0000       0.404139        10.9972 
  89   0.0000       0.419591        11.4177 
  90   0.0000       0.419764        11.4223 
  91   0.0000       0.426858        11.6154 
  92   0.0000       0.428419        11.6579 
  93   0.0000       0.433182        11.7875 
  94   0.0000       0.444791        12.1034 
  95   0.0000       0.450360        12.2549 
  96   0.0000       0.455453        12.3935 
  97   0.0000       0.459167        12.4946 
  98   0.0000       0.459920        12.5151 
  99   0.0000       0.474567        12.9136 
 100   0.0000       0.476898        12.9771 
 101   0.0000       0.487149        13.2560 
 102   0.0000       0.493458        13.4277 
 103   0.0000       0.499087        13.5808 
 104   0.0000       0.504365        13.7245 
 105   0.0000       0.510068        13.8797 
 106   0.0000       0.517283        14.0760 
 107   0.0000       0.522109        14.2073 
 108   0.0000       0.535904        14.5827 
 109   0.0000       0.540429        14.7058 
 110   0.0000       0.552834        15.0434 
 111   0.0000       0.567530        15.4433 
 112   0.0000       0.572767        15.5858 
 113   0.0000       0.595349        16.2003 
 114   0.0000       0.611915        16.6511 
 115   0.0000       0.615442        16.7470 
 116   0.0000       0.623606        16.9692 
 117   0.0000       0.633576        17.2405 
 118   0.0000       0.648107        17.6359 
 119   0.0000       0.653181        17.7740 
 120   0.0000       0.659710        17.9516 
 121   0.0000       0.682329        18.5671 
 122   0.0000       0.693930        18.8828 
 123   0.0000       0.703594        19.1458 
 124   0.0000       0.712925        19.3997 
 125   0.0000       0.720879        19.6161 
 126   0.0000       0.728029        19.8107 
 127   0.0000       0.739867        20.1328 
 128   0.0000       0.753128        20.4936 
 129   0.0000       0.757772        20.6200 
 130   0.0000       0.760537        20.6953 
 131   0.0000       0.778095        21.1730 
 132   0.0000       0.793314        21.5872 
 133   0.0000       0.822516        22.3818 
 134   0.0000       0.830934        22.6109 
 135   0.0000       0.838058        22.8047 
 136   0.0000       0.845222        22.9997 
 137   0.0000       0.864994        23.5377 
 138   0.0000       0.870488        23.6872 
 139   0.0000       0.883517        24.0417 
 140   0.0000       0.890496        24.2316 
 141   0.0000       0.892929        24.2978 
 142   0.0000       0.900350        24.4998 
 143   0.0000       0.906241        24.6601 
 144   0.0000       0.925279        25.1781 
 145   0.0000       0.931392        25.3445 
 146   0.0000       0.936126        25.4733 
 147   0.0000       0.963987        26.2314 
 148   0.0000       0.989131        26.9156 
 149   0.0000       1.012932        27.5633 
 150   0.0000       1.031572        28.0705 
 151   0.0000       1.039444        28.2847 
 152   0.0000       1.051066        28.6010 
 153   0.0000       1.064355        28.9626 
 154   0.0000       1.068678        29.0802 
 155   0.0000       1.074867        29.2486 
 156   0.0000       1.101628        29.9768 
 157   0.0000       1.116148        30.3719 
 158   0.0000       1.119824        30.4720 
 159   0.0000       1.150938        31.3186 
 160   0.0000       1.164426        31.6856 
 161   0.0000       1.173831        31.9416 
 162   0.0000       1.204504        32.7762 
 163   0.0000       1.209210        32.9043 
 164   0.0000       1.225199        33.3394 
 165   0.0000       1.235492        33.6194 
 166   0.0000       1.249369        33.9971 
 167   0.0000       1.255328        34.1592 
 168   0.0000       1.291167        35.1344 
 169   0.0000       1.306994        35.5651 
 170   0.0000       1.319139        35.8956 
 171   0.0000       1.327704        36.1287 
 172   0.0000       1.349611        36.7248 
 173   0.0000       1.351778        36.7838 
 174   0.0000       1.371167        37.3113 
 175   0.0000       1.406381        38.2696 
 176   0.0000       1.429867        38.9087 
 177   0.0000       1.439626        39.1742 
 178   0.0000       1.449883        39.4533 
 179   0.0000       1.464230        39.8437 
 180   0.0000       1.476704        40.1832 
 181   0.0000       1.495078        40.6831 
 182   0.0000       1.506647        40.9980 
 183   0.0000       1.510071        41.0911 
 184   0.0000       1.522737        41.4358 
 185   0.0000       1.528802        41.6008 
 186   0.0000       1.543290        41.9950 
 187   0.0000       1.548892        42.1475 
 188   0.0000       1.555087        42.3161 
 189   0.0000       1.565306        42.5941 
 190   0.0000       1.580785        43.0154 
 191   0.0000       1.585100        43.1328 
 192   0.0000       1.585429        43.1417 
 193   0.0000       1.593678        43.3662 
 194   0.0000       1.602457        43.6051 
 195   0.0000       1.619264        44.0624 
 196   0.0000       1.633624        44.4532 
 197   0.0000       1.636985        44.5446 
 198   0.0000       1.648873        44.8681 
 199   0.0000       1.674181        45.5568 
 200   0.0000       1.678988        45.6876 
 201   0.0000       1.691565        46.0298 
 202   0.0000       1.709248        46.5110 
 203   0.0000       1.716361        46.7045 
 204   0.0000       1.723559        46.9004 
 205   0.0000       1.724458        46.9249 
 206   0.0000       1.757292        47.8183 
 207   0.0000       1.775170        48.3048 
 208   0.0000       1.788453        48.6663 
 209   0.0000       1.804526        49.1037 
 210   0.0000       1.826844        49.7110 
 211   0.0000       1.857270        50.5389 
 212   0.0000       1.861091        50.6429 
 213   0.0000       1.878617        51.1198 
 214   0.0000       1.889770        51.4233 
 215   0.0000       1.905930        51.8630 
 216   0.0000       1.916248        52.1437 
 217   0.0000       1.942621        52.8614 
 218   0.0000       1.962603        53.4051 
 219   0.0000       1.972479        53.6739 
 220   0.0000       1.973696        53.7070 
 221   0.0000       1.985563        54.0299 
 222   0.0000       2.002490        54.4905 
 223   0.0000       2.029293        55.2199 
 224   0.0000       2.044844        55.6430 
 225   0.0000       2.064118        56.1675 
 226   0.0000       2.076357        56.5005 
 227   0.0000       2.105807        57.3019 
 228   0.0000       2.121477        57.7283 
 229   0.0000       2.130118        57.9635 
 230   0.0000       2.151553        58.5467 
 231   0.0000       2.166724        58.9596 
 232   0.0000       2.172689        59.1219 
 233   0.0000       2.189601        59.5821 
 234   0.0000       2.200021        59.8656 
 235   0.0000       2.214270        60.2534 
 236   0.0000       2.234255        60.7972 
 237   0.0000       2.252742        61.3002 
 238   0.0000       2.272179        61.8291 
 239   0.0000       2.287557        62.2476 
 240   0.0000       2.292903        62.3931 
 241   0.0000       2.308563        62.8192 
 242   0.0000       2.324502        63.2529 
 243   0.0000       2.330012        63.4028 
 244   0.0000       2.349822        63.9419 
 245   0.0000       2.363228        64.3067 
 246   0.0000       2.377652        64.6992 
 247   0.0000       2.408948        65.5508 
 248   0.0000       2.429870        66.1201 
 249   0.0000       2.443941        66.5030 
 250   0.0000       2.459577        66.9285 
 251   0.0000       2.469641        67.2024 
 252   0.0000       2.475552        67.3632 
 253   0.0000       2.503038        68.1111 
 254   0.0000       2.532949        68.9251 
 255   0.0000       2.537241        69.0418 
 256   0.0000       2.545984        69.2797 
 257   0.0000       2.556582        69.5681 
 258   0.0000       2.587139        70.3996 
 259   0.0000       2.593299        70.5673 
 260   0.0000       2.596093        70.6433 
 261   0.0000       2.609458        71.0070 
 262   0.0000       2.620644        71.3114 
 263   0.0000       2.635230        71.7082 
 264   0.0000       2.659965        72.3813 
 265   0.0000       2.665758        72.5390 
 266   0.0000       2.676302        72.8259 
 267   0.0000       2.690741        73.2188 
 268   0.0000       2.696802        73.3837 
 269   0.0000       2.702168        73.5297 
 270   0.0000       2.718136        73.9642 
 271   0.0000       2.727802        74.2273 
 272   0.0000       2.757869        75.0454 
 273   0.0000       2.769035        75.3493 
 274   0.0000       2.788971        75.8918 
 275   0.0000       2.800094        76.1944 
 276   0.0000       2.806903        76.3797 
 277   0.0000       2.822260        76.7976 
 278   0.0000       2.829763        77.0018 
 279   0.0000       2.841567        77.3230 
 280   0.0000       2.847800        77.4926 
 281   0.0000       2.857221        77.7489 
 282   0.0000       2.867413        78.0263 
 283   0.0000       2.881298        78.4041 
 284   0.0000       2.892229        78.7015 
 285   0.0000       2.912488        79.2528 
 286   0.0000       2.923774        79.5599 
 287   0.0000       2.933701        79.8301 
 288   0.0000       2.941127        80.0321 
 289   0.0000       2.949660        80.2643 
 290   0.0000       2.957911        80.4888 
 291   0.0000       2.984782        81.2200 
 292   0.0000       3.013167        81.9924 
 293   0.0000       3.026311        82.3501 
 294   0.0000       3.034981        82.5860 
 295   0.0000       3.042226        82.7832 
 296   0.0000       3.059116        83.2428 
 297   0.0000       3.074500        83.6614 
 298   0.0000       3.077793        83.7510 
 299   0.0000       3.092952        84.1635 
 300   0.0000       3.114695        84.7552 
 301   0.0000       3.119260        84.8794 
 302   0.0000       3.127221        85.0960 
 303   0.0000       3.136194        85.3402 
 304   0.0000       3.147253        85.6411 
 305   0.0000       3.164472        86.1097 
 306   0.0000       3.173508        86.3555 
 307   0.0000       3.187252        86.7295 
 308   0.0000       3.196020        86.9681 
 309   0.0000       3.198792        87.0435 
 310   0.0000       3.208585        87.3100 
 311   0.0000       3.221972        87.6743 
 312   0.0000       3.234794        88.0232 
 313   0.0000       3.238123        88.1138 
 314   0.0000       3.252928        88.5167 
 315   0.0000       3.259776        88.7030 
 316   0.0000       3.262973        88.7900 
 317   0.0000       3.273882        89.0869 
 318   0.0000       3.282517        89.3218 
 319   0.0000       3.295141        89.6653 
 320   0.0000       3.316060        90.2346 
 321   0.0000       3.328440        90.5714 
 322   0.0000       3.339417        90.8702 
 323   0.0000       3.371215        91.7354 
 324   0.0000       3.376101        91.8684 
 325   0.0000       3.377896        91.9172 
 326   0.0000       3.386777        92.1589 
 327   0.0000       3.401775        92.5670 
 328   0.0000       3.411003        92.8181 
 329   0.0000       3.419348        93.0452 
 330   0.0000       3.436610        93.5149 
 331   0.0000       3.441008        93.6346 
 332   0.0000       3.443563        93.7041 
 333   0.0000       3.459305        94.1325 
 334   0.0000       3.467937        94.3674 
 335   0.0000       3.489710        94.9598 
 336   0.0000       3.512474        95.5793 
 337   0.0000       3.513233        95.5999 
 338   0.0000       3.530099        96.0589 
 339   0.0000       3.539105        96.3040 
 340   0.0000       3.550555        96.6155 
 341   0.0000       3.556075        96.7657 
 342   0.0000       3.577294        97.3431 
 343   0.0000       3.585898        97.5773 
 344   0.0000       3.608903        98.2032 
 345   0.0000       3.618613        98.4675 
 346   0.0000       3.640699        99.0685 
 347   0.0000       3.649503        99.3080 
 348   0.0000       3.658264        99.5464 
 349   0.0000       3.692436       100.4763 
 350   0.0000       3.709229       100.9333 
 351   0.0000       3.730176       101.5033 
 352   0.0000       3.765870       102.4745 
 353   0.0000       3.773383       102.6790 
 354   0.0000       3.796829       103.3170 
 355   0.0000       3.806306       103.5749 
 356   0.0000       3.835481       104.3688 
 357   0.0000       3.857944       104.9800 
 358   0.0000       3.886916       105.7684 
 359   0.0000       3.938362       107.1683 
 360   0.0000       3.942352       107.2769 
 361   0.0000       3.973748       108.1312 
 362   0.0000       3.996662       108.7547 
 363   0.0000       4.028396       109.6182 
 364   0.0000       4.051721       110.2529 
 365   0.0000       4.085083       111.1608 
 366   0.0000       4.095547       111.4455 
 367   0.0000       4.115568       111.9903 
 368   0.0000       4.133643       112.4822 
 369   0.0000       4.161447       113.2387 
 370   0.0000       4.182088       113.8004 
 371   0.0000       4.194770       114.1455 
 372   0.0000       4.206212       114.4568 
 373   0.0000       4.228574       115.0654 
 374   0.0000       4.241747       115.4238 
 375   0.0000       4.250547       115.6633 
 376   0.0000       4.271890       116.2440 
 377   0.0000       4.298954       116.9805 
 378   0.0000       4.302943       117.0890 
 379   0.0000       4.314848       117.4130 
 380   0.0000       4.328888       117.7950 
 381   0.0000       4.374131       119.0262 
 382   0.0000       4.382831       119.2629 
 383   0.0000       4.410419       120.0136 
 384   0.0000       4.430743       120.5667 
 385   0.0000       4.454269       121.2068 
 386   0.0000       4.467410       121.5644 
 387   0.0000       4.514182       122.8371 
 388   0.0000       4.552868       123.8898 
 389   0.0000       4.579179       124.6058 
 390   0.0000       4.622109       125.7740 
 391   0.0000       4.677833       127.2903 
 392   0.0000       4.691016       127.6490 
 393   0.0000       4.740890       129.0062 
 394   0.0000       4.743498       129.0771 
 395   0.0000       4.779341       130.0525 
 396   0.0000       4.839983       131.7026 
 397   0.0000       4.898122       133.2847 
 398   0.0000       4.916483       133.7843 
 399   0.0000       4.940668       134.4424 
 400   0.0000       4.965863       135.1280 
 401   0.0000       5.012422       136.3949 
 402   0.0000       5.066851       137.8760 
 403   0.0000       5.071185       137.9940 
 404   0.0000       5.087697       138.4433 
 405   0.0000       5.168952       140.6543 
 406   0.0000       5.216814       141.9567 
 407   0.0000       5.255493       143.0092 
 408   0.0000       5.283120       143.7610 
 409   0.0000       5.288753       143.9143 
 410   0.0000       5.313458       144.5865 
 411   0.0000       5.337462       145.2397 
 412   0.0000       5.344709       145.4369 
 413   0.0000       5.363449       145.9469 
 414   0.0000       5.448361       148.2574 
 415   0.0000       5.515057       150.0723 
 416   0.0000       5.535877       150.6389 
 417   0.0000       5.604964       152.5188 
 418   0.0000       5.681982       154.6146 
 419   0.0000       5.704734       155.2337 
 420   0.0000       5.793092       157.6381 
 421   0.0000       5.817864       158.3121 
 422   0.0000       5.893176       160.3615 
 423   0.0000       5.941377       161.6731 
 424   0.0000       6.086957       165.6345 
 425   0.0000       6.395868       174.0404 
 426   0.0000       6.465353       175.9312 
 427   0.0000       6.651905       181.0075 
 428   0.0000       6.679768       181.7657 
 429   0.0000       6.883745       187.3162 
 430   0.0000       7.125318       193.8898 
 431   0.0000       7.133917       194.1237 
 432   0.0000      22.257226       605.6499 
 433   0.0000      22.503483       612.3509 
 434   0.0000      22.551510       613.6578 
 435   0.0000      22.698159       617.6483 
 436   0.0000      22.751553       619.1012 
 437   0.0000      22.864050       622.1624 
 438   0.0000      22.891682       622.9143 
 439   0.0000      22.986178       625.4857 
 440   0.0000      23.166535       630.3935 
 441   0.0000      23.550826       640.8505 
 442   0.0000      32.767724       891.6551 
 443   0.0000      44.086657      1199.6589 

                    ********************************
                    * MULLIKEN POPULATION ANALYSIS *
                    ********************************

-----------------------
MULLIKEN ATOMIC CHARGES
-----------------------
   0 C :    0.185617
   1 C :   -0.257440
   2 C :   -0.277923
   3 H :    0.121323
   4 H :    0.120224
   5 C :   -0.310956
   6 C :   -0.293378
   7 H :    0.092914
   8 H :    0.094785
   9 C :    0.252490
  10 O :   -0.674076
  11 C :   -0.320516
  12 H :    0.133550
  13 C :   -0.100614
  14 H :    0.139813
  15 N :   -0.085653
  16 C :   -0.306803
  17 H :    0.143434
  18 H :    0.148129
  19 H :    0.114304
  20 C :   -0.340127
  21 H :    0.151789
  22 H :    0.122297
  23 H :    0.146819
Sum of atomic charges:   -1.0000000

--------------------------------
MULLIKEN REDUCED ORBITAL CHARGES
--------------------------------
  0 C s       :     3.138684  s :     3.138684
      pz      :     0.731372  p :     2.525712
      px      :     0.984434
      py      :     0.809906
      dz2     :     0.031991  d :     0.140072
      dxz     :     0.032295
      dyz     :     0.038135
      dx2y2   :     0.017531
      dxy     :     0.020119
      f0      :     0.001270  f :     0.009916
      f+1     :     0.001291
      f-1     :     0.003190
      f+2     :     0.000924
      f-2     :     0.001066
      f+3     :     0.001165
      f-3     :     0.001009
  1 C s       :     3.220174  s :     3.220174
      pz      :     0.964420  p :     2.927753
      px      :     0.991290
      py      :     0.972043
      dz2     :     0.020033  d :     0.102219
      dxz     :     0.026271
      dyz     :     0.036715
      dx2y2   :     0.009267
      dxy     :     0.009934
      f0      :     0.000844  f :     0.007294
      f+1     :     0.001511
      f-1     :     0.002150
      f+2     :     0.000696
      f-2     :     0.000569
      f+3     :     0.000805
      f-3     :     0.000718
  2 C s       :     3.235826  s :     3.235826
      pz      :     0.972197  p :     2.935362
      px      :     0.983954
      py      :     0.979210
      dz2     :     0.019814  d :     0.099531
      dxz     :     0.025100
      dyz     :     0.036242
      dx2y2   :     0.008981
      dxy     :     0.009393
      f0      :     0.000832  f :     0.007205
      f+1     :     0.001522
      f-1     :     0.002104
      f+2     :     0.000676
      f-2     :     0.000560
      f+3     :     0.000773
      f-3     :     0.000737
  3 H s       :     0.856904  s :     0.856904
      pz      :     0.006026  p :     0.021773
      px      :     0.005195
      py      :     0.010553
  4 H s       :     0.857514  s :     0.857514
      pz      :     0.006103  p :     0.022262
      px      :     0.005249
      py      :     0.010910
  5 C s       :     3.253438  s :     3.253438
      pz      :     0.921786  p :     2.970608
      px      :     1.093797
      py      :     0.955025
      dz2     :     0.016717  d :     0.079868
      dxz     :     0.018370
      dyz     :     0.029804
      dx2y2   :     0.008060
      dxy     :     0.006917
      f0      :     0.000970  f :     0.007042
      f+1     :     0.001486
      f-1     :     0.002054
      f+2     :     0.000719
      f-2     :     0.000476
      f+3     :     0.000672
      f-3     :     0.000665
  6 C s       :     3.245573  s :     3.245573
      pz      :     0.922663  p :     2.960320
      px      :     1.085775
      py      :     0.951881
      dz2     :     0.016104  d :     0.080434
      dxz     :     0.018710
      dyz     :     0.030602
      dx2y2   :     0.007842
      dxy     :     0.007177
      f0      :     0.000964  f :     0.007051
      f+1     :     0.001486
      f-1     :     0.002088
      f+2     :     0.000699
      f-2     :     0.000494
      f+3     :     0.000691
      f-3     :     0.000630
  7 H s       :     0.884802  s :     0.884802
      pz      :     0.005730  p :     0.022284
      px      :     0.005877
      py      :     0.010677
  8 H s       :     0.882981  s :     0.882981
      pz      :     0.005804  p :     0.022234
      px      :     0.005906
      py      :     0.010524
  9 C s       :     2.927189  s :     2.927189
      pz      :     0.864853  p :     2.642124
      px      :     0.857555
      py      :     0.919717
      dz2     :     0.031657  d :     0.161512
      dxz     :     0.055551
      dyz     :     0.044701
      dx2y2   :     0.013196
      dxy     :     0.016407
      f0      :     0.002698  f :     0.016686
      f+1     :     0.003538
      f-1     :     0.006828
      f+2     :     0.000807
      f-2     :     0.000995
      f+3     :     0.000986
      f-3     :     0.000834
 10 O s       :     3.780611  s :     3.780611
      pz      :     1.374031  p :     4.865051
      px      :     1.647224
      py      :     1.843795
      dz2     :     0.012321  d :     0.026845
      dxz     :     0.007841
      dyz     :     0.006539
      dx2y2   :     0.000084
      dxy     :     0.000059
      f0      :     0.000670  f :     0.001570
      f+1     :     0.000465
      f-1     :     0.000420
      f+2     :     0.000006
      f-2     :     0.000005
      f+3     :     0.000002
      f-3     :     0.000002
 11 C s       :     3.238796  s :     3.238796
      pz      :     0.909894  p :     2.985721
      px      :     1.111109
      py      :     0.964718
      dz2     :     0.020101  d :     0.088822
      dxz     :     0.027608
      dyz     :     0.024468
      dx2y2   :     0.009483
      dxy     :     0.007162
      f0      :     0.001226  f :     0.007177
      f+1     :     0.001151
      f-1     :     0.001952
      f+2     :     0.000656
      f-2     :     0.000649
      f+3     :     0.000909
      f-3     :     0.000635
 12 H s       :     0.843610  s :     0.843610
      pz      :     0.005533  p :     0.022840
      px      :     0.005720
      py      :     0.011587
 13 C s       :     3.154132  s :     3.154132
      pz      :     0.817409  p :     2.818023
      px      :     1.006723
      py      :     0.993890
      dz2     :     0.027634  d :     0.118308
      dxz     :     0.042608
      dyz     :     0.026030
      dx2y2   :     0.012362
      dxy     :     0.009674
      f0      :     0.002250  f :     0.010151
      f+1     :     0.002518
      f-1     :     0.002665
      f+2     :     0.000512
      f-2     :     0.000626
      f+3     :     0.000938
      f-3     :     0.000641
 14 H s       :     0.837891  s :     0.837891
      pz      :     0.004977  p :     0.022296
      px      :     0.004878
      py      :     0.012441
 15 N s       :     3.405612  s :     3.405612
      pz      :     1.039473  p :     3.585049
      px      :     1.485720
      py      :     1.059855
      dz2     :     0.021690  d :     0.090287
      dxz     :     0.016979
      dyz     :     0.024374
      dx2y2   :     0.012659
      dxy     :     0.014585
      f0      :     0.000667  f :     0.004705
      f+1     :     0.000703
      f-1     :     0.001173
      f+2     :     0.000467
      f-2     :     0.000447
      f+3     :     0.000658
      f-3     :     0.000591
 16 C s       :     3.240191  s :     3.240191
      pz      :     1.036267  p :     2.974327
      px      :     1.003466
      py      :     0.934593
      dz2     :     0.019632  d :     0.086336
      dxz     :     0.008663
      dyz     :     0.014017
      dx2y2   :     0.033393
      dxy     :     0.010632
      f0      :     0.000643  f :     0.005949
      f+1     :     0.000630
      f-1     :     0.000683
      f+2     :     0.001103
      f-2     :     0.000698
      f+3     :     0.000794
      f-3     :     0.001397
 17 H s       :     0.835768  s :     0.835768
      pz      :     0.011938  p :     0.020799
      px      :     0.004839
      py      :     0.004022
 18 H s       :     0.830841  s :     0.830841
      pz      :     0.005791  p :     0.021029
      px      :     0.004304
      py      :     0.010934
 19 H s       :     0.865213  s :     0.865213
      pz      :     0.004070  p :     0.020483
      px      :     0.012586
      py      :     0.003827
 20 C s       :     3.252515  s :     3.252515
      pz      :     1.047566  p :     2.995208
      px      :     1.085300
      py      :     0.862342
      dz2     :     0.020889  d :     0.086356
      dxz     :     0.006179
      dyz     :     0.013134
      dx2y2   :     0.008753
      dxy     :     0.037400
      f0      :     0.000875  f :     0.006048
      f+1     :     0.000052
      f-1     :     0.001145
      f+2     :     0.000699
      f-2     :     0.001053
      f+3     :     0.001143
      f-3     :     0.001082
 21 H s       :     0.827082  s :     0.827082
      pz      :     0.012715  p :     0.021129
      px      :     0.004647
      py      :     0.003767
 22 H s       :     0.857282  s :     0.857282
      pz      :     0.004119  p :     0.020421
      px      :     0.010302
      py      :     0.006000
 23 H s       :     0.832115  s :     0.832115
      pz      :     0.005219  p :     0.021067
      px      :     0.008850
      py      :     0.006999


                     *******************************
                     * LOEWDIN POPULATION ANALYSIS *
                     *******************************

----------------------
LOEWDIN ATOMIC CHARGES
----------------------
   0 C :   -0.214088
   1 C :   -0.161916
[...]
      0      -0.000130  -0.000094   0.000392   0.000288  -0.000194  -0.000174
      1       0.000878   0.000331  -0.001505  -0.001759   0.001367   0.000311
      2       0.002591  -0.001569   0.000811  -0.001756  -0.000762  -0.001967
      3       0.014403   0.000495  -0.003905  -0.007145  -0.003206  -0.001224
      4      -0.062072  -0.001955   0.016527   0.030721   0.013576   0.005446
      5       0.034404   0.002107  -0.011178  -0.020507  -0.008065  -0.003357
      6      -0.000471   0.011685  -0.005427  -0.001760   0.007287   0.010022
      7       0.001777  -0.047451   0.022507   0.006966  -0.029497  -0.040835
      8      -0.000320  -0.024163   0.014275   0.003804  -0.017051  -0.024599
      9      -0.168600  -0.006335   0.044735   0.081659   0.036623   0.013347
     10       0.723910   0.026078  -0.190800  -0.351277  -0.155699  -0.059635
     11      -0.417567  -0.016099   0.111569   0.207491   0.088216   0.035173
     12       0.004526  -0.136146   0.063684   0.019511  -0.082186  -0.115505
     13      -0.018053   0.556918  -0.258531  -0.081488   0.335285   0.475625
     14      -0.008286   0.308315  -0.145716  -0.046500   0.188135   0.267549
     15      -0.007736  -0.000637  -0.005774  -0.011109  -0.003610  -0.002060
     16       0.036965   0.003150   0.027648   0.053322   0.017184   0.010015
     17       0.018842   0.001897   0.016704   0.031885   0.009860   0.005703
     18       0.000769  -0.013439  -0.007402   0.000553   0.006535   0.007306
     19      -0.003048   0.053034   0.029347  -0.002185  -0.026004  -0.029150
     20       0.001692  -0.029582  -0.018438   0.000601   0.016125   0.018790
     21       0.091714   0.007081   0.066880   0.128712   0.041642   0.023894
     22      -0.439456  -0.034130  -0.320281  -0.616721  -0.198645  -0.115052
     23      -0.245124  -0.020472  -0.181948  -0.348155  -0.112200  -0.064339
     24      -0.009676   0.158161   0.085474  -0.006653  -0.075539  -0.084426
     25       0.038505  -0.624624  -0.338175   0.026055   0.299117   0.334776
     26      -0.021201   0.360118   0.196850  -0.013448  -0.174013  -0.194615
     27       0.000034   0.000082   0.000406   0.000407  -0.000082  -0.000190
     28      -0.000043  -0.000739  -0.001815  -0.001576   0.000307   0.000808
     29       0.001197  -0.001901   0.000041   0.002625   0.002696   0.002123
     30       0.000023   0.000034  -0.000033  -0.000038   0.000014   0.000022
     31      -0.000105  -0.000051   0.000139   0.000118  -0.000031  -0.000078
     32       0.000052   0.000201  -0.000055  -0.000544  -0.000842  -0.000556
     33      -0.000057   0.000016  -0.000430   0.000508  -0.001294   0.000815
     34       0.003110  -0.003315   0.029149  -0.030901   0.059536  -0.028326
     35      -0.001043   0.000490  -0.008676   0.010737  -0.024388   0.013347
     36       0.000745  -0.000431   0.005598  -0.006761   0.014786  -0.007909
     37      -0.034731   0.030833  -0.311096   0.346951  -0.698790   0.346747
     38       0.012149  -0.012954   0.136797  -0.151278   0.308250  -0.150267
     39      -0.000032   0.000492  -0.002567   0.001593   0.000552  -0.002173
     40      -0.000148   0.011777  -0.053784   0.031653   0.013503  -0.046721
     41      -0.000351  -0.004202   0.018557  -0.010144  -0.008354   0.018864
     42       0.000027  -0.005882   0.026164  -0.015261  -0.008156   0.023554
     43       0.000821  -0.131916   0.606425  -0.353420  -0.178861   0.550526
     44      -0.000041   0.054843  -0.250759   0.145683   0.075010  -0.228630
     45       0.000002   0.000002   0.000089  -0.000129   0.000157  -0.000161
     46       0.000017   0.000209  -0.000630   0.000309   0.000628  -0.000800
     47       0.000018   0.000005  -0.000220   0.000320  -0.000036   0.000191
     48       0.000025   0.000142  -0.000478   0.000192   0.000056  -0.000500
     49       0.000078   0.000729  -0.001903   0.000861   0.001001  -0.001988
     50      -0.000109  -0.000688   0.001720  -0.000896  -0.001096   0.001706
     51      -0.000255  -0.001500   0.003611  -0.001976  -0.002729   0.003677
     52      -0.000027  -0.000043   0.001059  -0.000608   0.000395   0.000735
     53       0.000604   0.003625  -0.008053   0.004427   0.008049  -0.009127
     54       0.000216   0.001597  -0.003993   0.001815   0.002376  -0.004217
     55      -0.001111  -0.009525   0.025843  -0.012349  -0.013832   0.026509
     56       0.000558   0.004810  -0.012215   0.005654   0.006920  -0.012636
     57      -0.000227  -0.001662   0.005428  -0.001519  -0.000839   0.006892
     58       0.000057   0.000371  -0.001309   0.000624   0.000148  -0.001210
     59      -0.000000  -0.000323   0.000940  -0.000440  -0.000526   0.001032
     60       0.000629  -0.000270   0.001455  -0.001488   0.002240  -0.001097
     61       0.000997  -0.000434   0.002257  -0.001954   0.002538  -0.000573
     62       0.002122   0.000220   0.000386  -0.001508   0.004388  -0.003644
     63       0.002906   0.000382   0.000482  -0.001966   0.005405  -0.004465
     64      -0.003094  -0.000307  -0.001064   0.002742  -0.007358   0.005787
     65      -0.020564  -0.003483  -0.000760   0.012491  -0.038408   0.033615
     66       0.001141  -0.001449   0.006084  -0.003464   0.003665   0.002773
     67      -0.000189   0.000876  -0.003088   0.001090   0.000268  -0.003473
     68       0.000303   0.000204  -0.000630   0.000147   0.000089  -0.000863
     69      -0.011495   0.003826  -0.022099   0.022320  -0.036151   0.016474
     70      -0.008970   0.003135  -0.017789   0.017638  -0.027891   0.012134
     71      -0.005235   0.001987  -0.011344   0.011275  -0.018161   0.007945


-----------
IR SPECTRUM
-----------

 Mode   freq       eps      Int      T**2         TX        TY        TZ
       cm**-1   L/(mol*cm) km/mol    a.u.
----------------------------------------------------------------------------
  6:     38.61   0.000169    0.86  0.001368  ( 0.019618  0.031360  0.000407)
  7:     60.03   0.000246    1.24  0.001279  ( 0.028022  0.011355  0.019100)
  8:     91.50   0.000834    4.22  0.002846  (-0.011013 -0.005224  0.051934)
  9:    139.44   0.004603   23.26  0.010300  ( 0.048291 -0.029503 -0.084249)
 10:    189.59   0.004423   22.35  0.007280  (-0.028350 -0.032199 -0.073754)
 11:    217.34   0.000028    0.14  0.000040  (-0.002164 -0.004512  0.003913)
 12:    236.84   0.000612    3.09  0.000807  (-0.016873  0.000751  0.022839)
 13:    270.99   0.001148    5.80  0.001322  (-0.007138  0.010209  0.034157)
 14:    309.38   0.000751    3.79  0.000757  ( 0.018038 -0.017047 -0.011893)
 15:    322.10   0.002365   11.95  0.002291  (-0.003924 -0.026008 -0.039995)
 16:    400.64   0.004103   20.74  0.003196  (-0.002537  0.018197  0.053465)
 17:    428.54   0.000648    3.27  0.000472  ( 0.000369  0.004393  0.021266)
 18:    447.49   0.004025   20.34  0.002807  ( 0.003255  0.036510  0.038254)
 19:    458.82   0.000421    2.13  0.000286  (-0.004205  0.014416 -0.007784)
 20:    508.97   0.002025   10.23  0.001242  (-0.025467 -0.002229 -0.024250)
 21:    532.44   0.006626   33.48  0.003883  ( 0.058656  0.009304 -0.018872)
 22:    580.45   0.024521  123.92  0.013183  ( 0.014882 -0.013580 -0.113036)
 23:    648.80   0.000039    0.20  0.000019  (-0.001297 -0.002651 -0.003164)
 24:    745.43   0.002096   10.59  0.000878  (-0.010753 -0.008750 -0.026178)
 25:    812.94   0.000037    0.18  0.000014  ( 0.003429 -0.000970  0.001162)
 26:    825.10   0.001418    7.16  0.000536  ( 0.015192 -0.016358  0.006148)
 27:    833.53   0.004615   23.32  0.001728  (-0.013548 -0.023711 -0.031338)
 28:    856.14   0.018224   92.10  0.006643  (-0.080461 -0.004899  0.012025)
 29:    859.03   0.006277   31.72  0.002280  ( 0.043870  0.018533  0.003503)
 30:    903.50   0.001233    6.23  0.000426  ( 0.017953 -0.009997 -0.001936)
 31:    950.17   0.000445    2.25  0.000146  (-0.004507  0.001576 -0.011111)
 32:    957.33   0.025283  127.77  0.008242  ( 0.078023  0.008318  0.045659)
 33:    959.57   0.000205    1.04  0.000067  ( 0.007172  0.002078  0.003299)
 34:   1001.16   0.007293   36.86  0.002273  ( 0.002142 -0.003145 -0.047528)
 35:   1078.12   0.002703   13.66  0.000782  (-0.008810 -0.026513  0.001382)
 36:   1096.66   0.049472  250.01  0.014078  ( 0.008183  0.051178  0.106730)
 37:   1109.48   0.018620   94.10  0.005237  ( 0.014760 -0.007083  0.070493)
 38:   1117.32   0.002222   11.23  0.000621  ( 0.007736  0.023070 -0.005351)
 39:   1162.14   0.022078  111.57  0.005928  (-0.013922  0.021663  0.072563)
 40:   1173.47   0.014253   72.03  0.003790  ( 0.004035  0.001726  0.061409)
 41:   1225.19   0.010491   53.02  0.002672  (-0.001266  0.051118  0.007581)
 42:   1247.82   0.004674   23.62  0.001169  ( 0.010636  0.022924 -0.023026)
 43:   1270.76   0.001500    7.58  0.000368  (-0.007214  0.012654 -0.012493)
 44:   1318.86   0.008678   43.85  0.002053  (-0.010054  0.010753 -0.042855)
 45:   1331.47   0.003670   18.54  0.000860  (-0.009137  0.024418 -0.013430)
 46:   1375.82   0.046962  237.33  0.010652  ( 0.009686  0.037653  0.095606)
 47:   1379.03   0.024581  124.22  0.005563  ( 0.000390  0.012596 -0.073510)
 48:   1396.13   0.129450  654.19  0.028935  ( 0.006011  0.017786  0.169063)
 49:   1431.01   0.000791    4.00  0.000173  ( 0.002287  0.003963  0.012313)
 50:   1452.74   0.001517    7.67  0.000326  ( 0.012141 -0.008561  0.010256)
 51:   1459.80   0.001629    8.23  0.000348  ( 0.003911  0.017023  0.006564)
 52:   1463.21   0.003926   19.84  0.000837  ( 0.013451  0.025610  0.000725)
 53:   1466.85   0.011320   57.20  0.002408  ( 0.025968 -0.022157 -0.035254)
 54:   1485.01   0.009045   45.71  0.001901  (-0.000647  0.017307  0.040010)
 55:   1500.53   0.036131  182.59  0.007514  ( 0.008418 -0.011297  0.085532)
 56:   1543.03   0.150261  759.36  0.030389  ( 0.003096  0.000374  0.174296)
 57:   1561.46   0.010554   53.34  0.002109  (-0.007662  0.044342  0.009185)
 58:   1649.83   0.108558  548.61  0.020534  (-0.004054 -0.012002 -0.142735)
 59:   1700.73   0.040223  203.27  0.007381  (-0.000984 -0.028151 -0.081161)
 60:   2964.32   0.021235  107.31  0.002235  (-0.018756  0.036538 -0.023423)
 61:   2972.39   0.054977  277.83  0.005772  ( 0.055272  0.016061  0.049588)
 62:   3081.56   0.012296   62.14  0.001245  ( 0.029296  0.003063 -0.019431)
 63:   3083.93   0.007424   37.52  0.000751  ( 0.010190 -0.022059 -0.012681)
 64:   3132.37   0.003739   18.89  0.000372  ( 0.002203  0.012814 -0.014263)
 65:   3135.02   0.007260   36.69  0.000723  (-0.003966 -0.004819 -0.026147)
 66:   3138.84   0.008966   45.31  0.000891  ( 0.002510 -0.007832  0.028702)
 67:   3145.70   0.008336   42.13  0.000827  (-0.001030  0.005343 -0.028238)
 68:   3160.47   0.006345   32.06  0.000626  (-0.006651  0.024124 -0.000524)
 69:   3161.41   0.013867   70.08  0.001369  (-0.006013  0.030858  0.019504)
 70:   3168.30   0.002902   14.67  0.000286  ( 0.002462  0.007132 -0.015130)
 71:   3168.96   0.014878   75.19  0.001465  ( 0.005098 -0.030096  0.023093)

* The epsilon (eps) is given for a Dirac delta lineshape.
** The dipole moment derivative (T) already includes vibrational overlap.

The first frequency considered to be a vibration is 6
The total number of vibrations considered is 66


--------------------------
THERMOCHEMISTRY AT 298.15K
--------------------------

Temperature         ... 298.15 K
Pressure            ... 1.00 atm
Total Mass          ... 162.21 AMU

Throughout the following assumptions are being made:
  (1) The electronic state is orbitally nondegenerate
  (2) There are no thermally accessible electronically excited states
  (3) Hindered rotations indicated by low frequency modes are not
      treated as such but are treated as vibrations and this may
      cause some error
  (4) All equations used are the standard statistical mechanics
      equations for an ideal gas
  (5) All vibrations are strictly harmonic

freq.      38.61  E(vib)   ...       0.54 
freq.      60.03  E(vib)   ...       0.51 
freq.      91.50  E(vib)   ...       0.47 
freq.     139.44  E(vib)   ...       0.42 
freq.     189.59  E(vib)   ...       0.36 
freq.     217.34  E(vib)   ...       0.34 
freq.     236.84  E(vib)   ...       0.32 
freq.     270.99  E(vib)   ...       0.29 
freq.     309.38  E(vib)   ...       0.26 
freq.     322.10  E(vib)   ...       0.25 
freq.     400.64  E(vib)   ...       0.19 
freq.     428.54  E(vib)   ...       0.18 
freq.     447.49  E(vib)   ...       0.17 
freq.     458.82  E(vib)   ...       0.16 
freq.     508.97  E(vib)   ...       0.14 
freq.     532.44  E(vib)   ...       0.13 
freq.     580.45  E(vib)   ...       0.11 
freq.     648.80  E(vib)   ...       0.08 
freq.     745.43  E(vib)   ...       0.06 
freq.     812.94  E(vib)   ...       0.05 
freq.     825.10  E(vib)   ...       0.04 
freq.     833.53  E(vib)   ...       0.04 
freq.     856.14  E(vib)   ...       0.04 
freq.     859.03  E(vib)   ...       0.04 
freq.     903.50  E(vib)   ...       0.03 
freq.     950.17  E(vib)   ...       0.03 
freq.     957.33  E(vib)   ...       0.03 
freq.     959.57  E(vib)   ...       0.03 
freq.    1001.16  E(vib)   ...       0.02 
freq.    1078.12  E(vib)   ...       0.02 
freq.    1096.66  E(vib)   ...       0.02 
freq.    1109.48  E(vib)   ...       0.02 
freq.    1117.32  E(vib)   ...       0.01 
freq.    1162.14  E(vib)   ...       0.01 
freq.    1173.47  E(vib)   ...       0.01 
freq.    1225.19  E(vib)   ...       0.01 
freq.    1247.82  E(vib)   ...       0.01 
freq.    1270.76  E(vib)   ...       0.01 
freq.    1318.86  E(vib)   ...       0.01 
freq.    1331.47  E(vib)   ...       0.01 
freq.    1375.82  E(vib)   ...       0.01 
freq.    1379.03  E(vib)   ...       0.01 
freq.    1396.13  E(vib)   ...       0.00 
freq.    1431.01  E(vib)   ...       0.00 
freq.    1452.74  E(vib)   ...       0.00 
freq.    1459.80  E(vib)   ...       0.00 
freq.    1463.21  E(vib)   ...       0.00 
freq.    1466.85  E(vib)   ...       0.00 
freq.    1485.01  E(vib)   ...       0.00 
freq.    1500.53  E(vib)   ...       0.00 
freq.    1543.03  E(vib)   ...       0.00 
freq.    1561.46  E(vib)   ...       0.00 
freq.    1649.83  E(vib)   ...       0.00 
freq.    1700.73  E(vib)   ...       0.00 
freq.    2964.32  E(vib)   ...       0.00 
freq.    2972.39  E(vib)   ...       0.00 
freq.    3081.56  E(vib)   ...       0.00 
freq.    3083.93  E(vib)   ...       0.00 
freq.    3132.37  E(vib)   ...       0.00 
freq.    3135.02  E(vib)   ...       0.00 
freq.    3138.84  E(vib)   ...       0.00 
freq.    3145.70  E(vib)   ...       0.00 
freq.    3160.47  E(vib)   ...       0.00 
freq.    3161.41  E(vib)   ...       0.00 
freq.    3168.30  E(vib)   ...       0.00 
freq.    3168.96  E(vib)   ...       0.00 

------------
INNER ENERGY
------------

The inner energy is: U= E(el) + E(ZPE) + E(vib) + E(rot) + E(trans)
    E(el)   - is the total energy from the electronic structure calculation
              = E(kin-el) + E(nuc-el) + E(el-el) + E(nuc-nuc)
    E(ZPE)  - the the zero temperature vibrational energy from the frequency calculation
    E(vib)  - the the finite temperature correction to E(ZPE) due to population
              of excited vibrational states
    E(rot)  - is the rotational thermal energy
    E(trans)- is the translational thermal energy

Summary of contributions to the inner energy U:
Electronic energy                ...   -517.97110312 Eh
Zero point energy                ...      0.19796281 Eh     124.22 kcal/mol
Thermal vibrational correction   ...      0.00873576 Eh       5.48 kcal/mol
Thermal rotational correction    ...      0.00141627 Eh       0.89 kcal/mol
Thermal translational correction ...      0.00141627 Eh       0.89 kcal/mol
-----------------------------------------------------------------------
Total thermal energy                   -517.76157201 Eh


Summary of corrections to the electronic energy:
(perhaps to be used in another calculation)
Total thermal correction                  0.01156830 Eh       7.26 kcal/mol
Non-thermal (ZPE) correction              0.19796281 Eh     124.22 kcal/mol
-----------------------------------------------------------------------
Total correction                          0.20953111 Eh     131.48 kcal/mol


--------
ENTHALPY
--------

The enthalpy is H = U + kB*T
                kB is Boltzmann's constant
Total free energy                 ...   -517.76157201 Eh 
Thermal Enthalpy correction       ...      0.00094421 Eh       0.59 kcal/mol
-----------------------------------------------------------------------
Total Enthalpy                    ...   -517.76062780 Eh


Note: Only C1 symmetry has been detected, increase convergence thresholds 
      if your molecule has a higher symmetry. Symmetry factor of 1.0 is   
      used for the rotational entropy correction. 
 

Note: Rotational entropy computed according to Herzberg 
Infrared and Raman Spectra, Chapter V,1, Van Nostrand Reinhold, 1945 
Point Group:  C1, Symmetry Number:   1  
Rotational constants in cm-1:     0.109559     0.012037     0.011027 

Vibrational entropy computed according to the QRRHO of S. Grimme
Chem.Eur.J. 2012 18 9955


-------
ENTROPY
-------

The entropy contributions are T*S = T*(S(el)+S(vib)+S(rot)+S(trans))
     S(el)   - electronic entropy
     S(vib)  - vibrational entropy
     S(rot)  - rotational entropy
     S(trans)- translational entropy
The entropies will be listed as multiplied by the temperature to get
units of energy

Electronic entropy                ...      0.00000000 Eh      0.00 kcal/mol
Vibrational entropy               ...      0.01496488 Eh      9.39 kcal/mol
Rotational entropy                ...      0.01476917 Eh      9.27 kcal/mol
Translational entropy             ...      0.01955634 Eh     12.27 kcal/mol
-----------------------------------------------------------------------
Final entropy term                ...      0.04929039 Eh     30.93 kcal/mol

In case the symmetry of your molecule has not been determined correctly
or in case you have a reason to use a different symmetry number we print 
out the resulting rotational entropy values for sn=1,12 :
 --------------------------------------------------------
|  sn= 1 | S(rot)=       0.01476917 Eh      9.27 kcal/mol|
|  sn= 2 | S(rot)=       0.01411471 Eh      8.86 kcal/mol|
|  sn= 3 | S(rot)=       0.01373188 Eh      8.62 kcal/mol|
|  sn= 4 | S(rot)=       0.01346026 Eh      8.45 kcal/mol|
|  sn= 5 | S(rot)=       0.01324957 Eh      8.31 kcal/mol|
|  sn= 6 | S(rot)=       0.01307742 Eh      8.21 kcal/mol|
|  sn= 7 | S(rot)=       0.01293188 Eh      8.11 kcal/mol|
|  sn= 8 | S(rot)=       0.01280580 Eh      8.04 kcal/mol|
|  sn= 9 | S(rot)=       0.01269459 Eh      7.97 kcal/mol|
|  sn=10 | S(rot)=       0.01259511 Eh      7.90 kcal/mol|
|  sn=11 | S(rot)=       0.01250512 Eh      7.85 kcal/mol|
|  sn=12 | S(rot)=       0.01242297 Eh      7.80 kcal/mol|
 --------------------------------------------------------


-------------------
GIBBS FREE ENERGY
-------------------

The Gibbs free energy is G = H - T*S

Total enthalpy                    ...   -517.76062780 Eh 
Total entropy correction          ...     -0.04929039 Eh    -30.93 kcal/mol
-----------------------------------------------------------------------
Final Gibbs free energy         ...   -517.80991819 Eh

For completeness - the Gibbs free energy minus the electronic energy
G-E(el)                           ...      0.16118493 Eh    101.14 kcal/mol


Timings for individual modules:

Sum of individual times         ...      490.553 sec (=   8.176 min)
GTO integral calculation        ...        4.236 sec (=   0.071 min)   0.9 %
SCF iterations                  ...       82.130 sec (=   1.369 min)  16.7 %
SCF Gradient evaluation         ...       17.909 sec (=   0.298 min)   3.7 %
Geometry relaxation             ...        0.219 sec (=   0.004 min)   0.0 %
Analytical frequency calculation...      386.059 sec (=   6.434 min)  78.7 %
                             ****ORCA TERMINATED NORMALLY****
TOTAL RUN TIME: 0 days 0 hours 8 minutes 17 seconds 268 msec
