
                                 *****************
                                 * O   R   C   A *
                                 *****************

                                            #,                                       
                                            ###                                      
                                            ####                                     
                                            #####                                    
                                            ######                                   
                                           ########,                                 
                                     ,,################,,,,,                         
                               ,,#################################,,                 
                          ,,##########################################,,             
                       ,#########################################, ''#####,          
                    ,#############################################,,   '####,        
                  ,##################################################,,,,####,       
                ,###########''''           ''''###############################       
              ,#####''   ,,,,##########,,,,          '''####'''          '####       
            ,##' ,,,,###########################,,,                        '##       
           ' ,,###''''                  '''############,,,                           
         ,,##''                                '''############,,,,        ,,,,,,###''
      ,#''                                            '''#######################'''  
     '                                                          ''''####''''         
             ,#######,   #######,   ,#######,      ##                                
            ,#'     '#,  ##    ##  ,#'     '#,    #''#        ######   ,####,        
            ##       ##  ##   ,#'  ##            #'  '#       #        #'  '#        
            ##       ##  #######   ##           ,######,      #####,   #    #        
            '#,     ,#'  ##    ##  '#,     ,#' ,#      #,         ##   #,  ,#        
             '#######'   ##     ##  '#######'  #'      '#     #####' # '####'        



                  #######################################################
                  #                        -***-                        #
                  #          Department of theory and spectroscopy      #
                  #    Directorship and core code : Frank Neese         #
                  #        Max Planck Institute fuer Kohlenforschung    #
                  #                Kaiser Wilhelm Platz 1               #
                  #                 D-45470 Muelheim/Ruhr               #
                  #                      Germany                        #
                  #                                                     #
                  #                  All rights reserved                #
                  #                        -***-                        #
                  #######################################################


                         Program Version 5.0.4 -  RELEASE  -


 With contributions from (in alphabetic order):
   Daniel Aravena         : Magnetic Suceptibility
   Michael Atanasov       : Ab Initio Ligand Field Theory (pilot matlab implementation)
   Alexander A. Auer      : GIAO ZORA, VPT2 properties, NMR spectrum
   Ute Becker             : Parallelization
   Giovanni Bistoni       : ED, misc. LED, open-shell LED, HFLD
   Martin Brehm           : Molecular dynamics
   Dmytro Bykov           : SCF Hessian
   Vijay G. Chilkuri      : MRCI spin determinant printing, contributions to CSF-ICE
   Dipayan Datta          : RHF DLPNO-CCSD density
   Achintya Kumar Dutta   : EOM-CC, STEOM-CC
   Dmitry Ganyushin       : Spin-Orbit,Spin-Spin,Magnetic field MRCI
   Miquel Garcia          : C-PCM and meta-GGA Hessian, CC/C-PCM, Gaussian charge scheme
   Yang Guo               : DLPNO-NEVPT2, F12-NEVPT2, CIM, IAO-localization
   Andreas Hansen         : Spin unrestricted coupled pair/coupled cluster methods
   Benjamin Helmich-Paris : MC-RPA, TRAH-SCF, COSX integrals
   Lee Huntington         : MR-EOM, pCC
   Robert Izsak           : Overlap fitted RIJCOSX, COSX-SCS-MP3, EOM
   Marcus Kettner         : VPT2
   Christian Kollmar      : KDIIS, OOCD, Brueckner-CCSD(T), CCSD density, CASPT2, CASPT2-K
   Simone Kossmann        : Meta GGA functionals, TD-DFT gradient, OOMP2, MP2 Hessian
   Martin Krupicka        : Initial AUTO-CI
   Lucas Lang             : DCDCAS
   Marvin Lechner         : AUTO-CI (C++ implementation), FIC-MRCC
   Dagmar Lenk            : GEPOL surface, SMD
   Dimitrios Liakos       : Extrapolation schemes; Compound Job, initial MDCI parallelization
   Dimitrios Manganas     : Further ROCIS development; embedding schemes
   Dimitrios Pantazis     : SARC Basis sets
   Anastasios Papadopoulos: AUTO-CI, single reference methods and gradients
   Taras Petrenko         : DFT Hessian,TD-DFT gradient, ASA, ECA, R-Raman, ABS, FL, XAS/XES, NRVS
   Peter Pinski           : DLPNO-MP2, DLPNO-MP2 Gradient
   Christoph Reimann      : Effective Core Potentials
   Marius Retegan         : Local ZFS, SOC
   Christoph Riplinger    : Optimizer, TS searches, QM/MM, DLPNO-CCSD(T), (RO)-DLPNO pert. Triples
   Tobias Risthaus        : Range-separated hybrids, TD-DFT gradient, RPA, STAB
   Michael Roemelt        : Original ROCIS implementation
   Masaaki Saitow         : Open-shell DLPNO-CCSD energy and density
   Barbara Sandhoefer     : DKH picture change effects
   Avijit Sen             : IP-ROCIS
   Kantharuban Sivalingam : CASSCF convergence, NEVPT2, FIC-MRCI
   Bernardo de Souza      : ESD, SOC TD-DFT
   Georgi Stoychev        : AutoAux, RI-MP2 NMR, DLPNO-MP2 response
   Willem Van den Heuvel  : Paramagnetic NMR
   Boris Wezisla          : Elementary symmetry handling
   Frank Wennmohs         : Technical directorship


 We gratefully acknowledge several colleagues who have allowed us to
 interface, adapt or use parts of their codes:
   Stefan Grimme, W. Hujo, H. Kruse, P. Pracht,  : VdW corrections, initial TS optimization,
                  C. Bannwarth, S. Ehlert          DFT functionals, gCP, sTDA/sTD-DF
   Ed Valeev, F. Pavosevic, A. Kumar             : LibInt (2-el integral package), F12 methods
   Garnet Chan, S. Sharma, J. Yang, R. Olivares  : DMRG
   Ulf Ekstrom                                   : XCFun DFT Library
   Mihaly Kallay                                 : mrcc  (arbitrary order and MRCC methods)
   Jiri Pittner, Ondrej Demel                    : Mk-CCSD
   Frank Weinhold                                : gennbo (NPA and NBO analysis)
   Christopher J. Cramer and Donald G. Truhlar   : smd solvation model
   Lars Goerigk                                  : TD-DFT with DH, B97 family of functionals
   V. Asgeirsson, H. Jonsson                     : NEB implementation
   FAccTs GmbH                                   : IRC, NEB, NEB-TS, DLPNO-Multilevel, CI-OPT
                                                   MM, QMMM, 2- and 3-layer-ONIOM, Crystal-QMMM,
                                                   LR-CPCM, SF, NACMEs, symmetry and pop. for TD-DFT,
                                                   nearIR, NL-DFT gradient (VV10), updates on ESD,
                                                   ML-optimized integration grids
   S Lehtola, MJT Oliveira, MAL Marques          : LibXC Library
   Liviu Ungur et al                             : ANISO software


 Your calculation uses the libint2 library for the computation of 2-el integrals
 For citations please refer to: http://libint.valeyev.net

 Your ORCA version has been built with support for libXC version: 5.1.0
 For citations please refer to: https://tddft.org/programs/libxc/

 This ORCA versions uses:
   CBLAS   interface :  Fast vector & matrix operations
   LAPACKE interface :  Fast linear algebra routines
   SCALAPACK package :  Parallel linear algebra routines
   Shared memory     :  Shared parallel matrices
   BLAS/LAPACK       :  OpenBLAS 0.3.15  USE64BITINT DYNAMIC_ARCH NO_AFFINITY Haswell SINGLE_THREADED
        Core in use  :  Haswell
   Copyright (c) 2011-2014, The OpenBLAS Project


Your calculation utilizes the atom-pairwise dispersion correction
with the Becke-Johnson damping scheme (D3BJ)
Cite in your paper:
S.Grimme, S.Ehrlich, L.Goerigk, J Comput Chem, (2011), 32, 1456–1465 
S.Grimme, J.Antony, S.Ehrlich and H.Krieg, J.Chem.Phys., 132, (2010), 154104 
   

================================================================================

----- Orbital basis set information -----
Your calculation utilizes the basis: def2-TZVP
   F. Weigend and R. Ahlrichs, Phys. Chem. Chem. Phys. 7, 3297 (2005).

----- AuxJ basis set information -----
Your calculation utilizes the auxiliary basis: def2/J
   F. Weigend, Phys. Chem. Chem. Phys. 8, 1057 (2006).

================================================================================
                                        WARNINGS
                       Please study these warnings very carefully!
================================================================================


WARNING: Geometry Optimization
  ===> : Switching off AutoStart
         For restart on a previous wavefunction, please use MOREAD

INFO   : the flag for use of the SHARK integral package has been found!

================================================================================
                                       INPUT FILE
================================================================================
NAME = CN_PhenO/CN_PhenO.inp
|  1> %pal nprocs 24 end
|  2> %maxcore 3500
|  3> ! PBE0 D3BJ def2-TZVP TightSCF OPT FREQ TightOpt
|  4> ! CPCM(dmso)
|  5> %scf
|  6> MaxIter 800
|  7> end
|  8> %geom
|  9> MaxIter 800
| 10> MaxStep 0.2
| 11> end
| 12> *xyz -1 1
| 13> 
| 14> C      -0.00000100     -0.54976100     -1.58815400
| 15> C      -0.00000000      0.68444400     -0.91112200
| 16> C      -0.00000000     -1.73382100     -0.82692500
| 17> H       0.00000000      1.60350100     -1.48854100
| 18> H      -0.00000000     -2.69078200     -1.33903300
| 19> C       0.00000000      0.73434200      0.45829800
| 20> C       0.00000000     -1.68883200      0.54271600
| 21> H      -0.00000000      1.69353600      0.96686100
| 22> H       0.00000000     -2.61120900      1.11537100
| 23> C       0.00000000     -0.45048600      1.27161600
| 24> O      -0.00000000     -0.40645800      2.53382600
| 25> C      -0.00000000     -0.59825400     -2.99558500
| 26> N       0.00000100     -0.63757700     -4.15429800
| 27> *
| 28> 
| 29>                          ****END OF INPUT****
================================================================================

                       *****************************
                       * Geometry Optimization Run *
                       *****************************

Geometry optimization settings:
Update method            Update   .... BFGS
Choice of coordinates    CoordSys .... Z-matrix Internals
Initial Hessian          InHess   .... Almoef's Model

Convergence Tolerances:
Energy Change            TolE     ....  1.0000e-06 Eh
Max. Gradient            TolMAXG  ....  1.0000e-04 Eh/bohr
RMS Gradient             TolRMSG  ....  3.0000e-05 Eh/bohr
Max. Displacement        TolMAXD  ....  1.0000e-03 bohr
RMS Displacement         TolRMSD  ....  6.0000e-04 bohr
Strict Convergence                ....  False
------------------------------------------------------------------------------
                        ORCA OPTIMIZATION COORDINATE SETUP
------------------------------------------------------------------------------

The optimization will be done in new redundant internal coordinates
Making redundant internal coordinates   ...  (new redundants) done
Evaluating the initial hessian          ...  (Almloef) done
Evaluating the coordinates              ...  done
Calculating the B-matrix                .... done
Calculating the G-matrix                .... done
Diagonalizing the G-matrix              .... done
The first mode is                       ....   24
The number of degrees of freedom        ....   33

    -----------------------------------------------------------------
                    Redundant Internal Coordinates


    -----------------------------------------------------------------
         Definition                    Initial Value    Approx d2E/dq
    -----------------------------------------------------------------
      1. B(C   1,C   0)                  1.4077         0.585451   
      2. B(C   2,C   0)                  1.4076         0.585579   
      3. B(H   3,C   1)                  1.0854         0.366246   
      4. B(H   4,C   2)                  1.0854         0.366277   
      5. B(C   5,C   1)                  1.3703         0.671619   
      6. B(C   6,C   2)                  1.3704         0.671493   
      7. B(H   7,C   5)                  1.0857         0.365868   
      8. B(H   8,C   6)                  1.0857         0.365853   
      9. B(C   9,C   6)                  1.4369         0.525834   
     10. B(C   9,C   5)                  1.4371         0.525493   
     11. B(O  10,C   9)                  1.2630         0.892342   
     12. B(C  11,C   0)                  1.4083         0.584246   
     13. B(N  12,C  11)                  1.1594         1.305614   
     14. A(C   2,C   0,C  11)          120.7635         0.425085   
     15. A(C   1,C   0,C   2)          118.5159         0.425242   
     16. A(C   1,C   0,C  11)          120.7206         0.425068   
     17. A(H   3,C   1,C   5)          120.0533         0.358761   
     18. A(C   0,C   1,C   5)          120.8341         0.435838   
     19. A(C   0,C   1,H   3)          119.1127         0.350506   
     20. A(H   4,C   2,C   6)          120.0343         0.358754   
     21. A(C   0,C   2,C   6)          120.8555         0.435841   
     22. A(C   0,C   2,H   4)          119.1101         0.350524   
     23. A(H   7,C   5,C   9)          117.6001         0.344129   
     24. A(C   1,C   5,C   9)          122.3806         0.427459   
     25. A(C   1,C   5,H   7)          120.0192         0.358698   
     26. A(H   8,C   6,C   9)          117.6847         0.344164   
     27. A(C   2,C   6,C   9)          122.3627         0.427495   
     28. A(C   2,C   6,H   8)          119.9526         0.358684   
     29. A(C   5,C   9,O  10)          122.4697         0.446973   
     30. A(C   5,C   9,C   6)          115.0512         0.409223   
     31. A(C   6,C   9,O  10)          122.4792         0.447026   
     32. L(C   0,C  11,N  12,C   1, 2) 180.0000         0.488648   
     33. L(C   0,C  11,N  12,C   1, 1) 179.9703         0.488648   
     34. D(C   5,C   1,C   0,C   2)     -0.0001         0.023569   
     35. D(C   5,C   1,C   0,C  11)   -180.0000         0.023569   
     36. D(H   3,C   1,C   0,C  11)      0.0001         0.023569   
     37. D(H   3,C   1,C   0,C   2)    180.0000         0.023569   
     38. D(C   6,C   2,C   0,C   1)      0.0001         0.023580   
     39. D(H   4,C   2,C   0,C   1)   -180.0000         0.023580   
     40. D(H   4,C   2,C   0,C  11)     -0.0001         0.023580   
     41. D(C   6,C   2,C   0,C  11)    180.0000         0.023580   
     42. D(C   9,C   5,C   1,H   3)    180.0000         0.031558   
     43. D(C   9,C   5,C   1,C   0)      0.0000         0.031558   
     44. D(H   7,C   5,C   1,H   3)      0.0000         0.031558   
     45. D(H   7,C   5,C   1,C   0)   -180.0000         0.031558   
     46. D(C   9,C   6,C   2,C   0)     -0.0000         0.031545   
     47. D(H   8,C   6,C   2,H   4)      0.0000         0.031545   
     48. D(H   8,C   6,C   2,C   0)    180.0000         0.031545   
     49. D(C   9,C   6,C   2,H   4)    180.0000         0.031545   
     50. D(O  10,C   9,C   6,H   8)      0.0000         0.018866   
     51. D(C   5,C   9,C   6,H   8)    180.0000         0.018866   
     52. D(C   5,C   9,C   6,C   2)      0.0000         0.018866   
     53. D(O  10,C   9,C   5,H   7)      0.0000         0.018841   
     54. D(O  10,C   9,C   5,C   1)    180.0000         0.018841   
     55. D(O  10,C   9,C   6,C   2)    180.0000         0.018866   
     56. D(C   6,C   9,C   5,H   7)    180.0000         0.018841   
     57. D(C   6,C   9,C   5,C   1)      0.0000         0.018841   
    -----------------------------------------------------------------

Number of atoms                         .... 13
Number of degrees of freedom            .... 57

         *************************************************************
         *                GEOMETRY OPTIMIZATION CYCLE   1            *
         *************************************************************
---------------------------------
CARTESIAN COORDINATES (ANGSTROEM)
---------------------------------
  C     -0.000001   -0.549761   -1.588154
  C     -0.000000    0.684444   -0.911122
  C     -0.000000   -1.733821   -0.826925
  H      0.000000    1.603501   -1.488541
  H     -0.000000   -2.690782   -1.339033
  C      0.000000    0.734342    0.458298
  C      0.000000   -1.688832    0.542716
  H     -0.000000    1.693536    0.966861
  H      0.000000   -2.611209    1.115371
  C      0.000000   -0.450486    1.271616
  O     -0.000000   -0.406458    2.533826
  C     -0.000000   -0.598254   -2.995585
  N      0.000001   -0.637577   -4.154298

----------------------------
CARTESIAN COORDINATES (A.U.)
----------------------------
  NO LB      ZA    FRAG     MASS         X           Y           Z
   0 C     6.0000    0    12.011   -0.000002   -1.038898   -3.001176
   1 C     6.0000    0    12.011   -0.000000    1.293412   -1.721771
   2 C     6.0000    0    12.011   -0.000000   -3.276447   -1.562662
   3 H     1.0000    0     1.008    0.000000    3.030178   -2.812935
   4 H     1.0000    0     1.008   -0.000000   -5.084841   -2.530406
   5 C     6.0000    0    12.011    0.000000    1.387705    0.866058
   6 C     6.0000    0    12.011    0.000000   -3.191430    1.025585
   7 H     1.0000    0     1.008   -0.000000    3.200319    1.827102
   8 H     1.0000    0     1.008    0.000000   -4.934470    2.107746
   9 C     6.0000    0    12.011    0.000000   -0.851295    2.403006
  10 O     8.0000    0    15.999   -0.000000   -0.768094    4.788237
  11 C     6.0000    0    12.011   -0.000000   -1.130536   -5.660835
  12 N     7.0000    0    14.007    0.000002   -1.204846   -7.850485

--------------------------------
INTERNAL COORDINATES (ANGSTROEM)
--------------------------------
 C      0   0   0     0.000000000000     0.00000000     0.00000000
 C      1   0   0     1.407705335306     0.00000000     0.00000000
 C      1   2   0     1.407646146601   118.51585871     0.00000000
 H      2   1   3     1.085393233262   119.11266303   179.99995424
 H      3   1   2     1.085370424871   119.11013279   180.00004577
 C      2   1   3     1.370328773253   120.83406791     0.00000000
 C      3   1   2     1.370379684249   120.85552019     0.00000000
 H      6   2   1     1.085674654123   120.01923948   180.00004741
 H      7   3   1     1.085685534192   119.95261952   179.99995258
 C      7   3   1     1.436939812837   122.36272964     0.00000000
 O     10   7   3     1.262977651775   122.47915760   180.00000000
 C      1   2   3     1.408266164761   120.72063026   180.00013995
 N     12   1   2     1.159380056193   179.97034487     0.00000000

---------------------------
INTERNAL COORDINATES (A.U.)
---------------------------
 C      0   0   0     0.000000000000     0.00000000     0.00000000
 C      1   0   0     2.660177560989     0.00000000     0.00000000
 C      1   2   0     2.660065710546   118.51585871     0.00000000
 H      2   1   3     2.051095958476   119.11266303   179.99995424
 H      3   1   2     2.051052856864   119.11013279   180.00004577
 C      2   1   3     2.589546094880   120.83406791     0.00000000
 C      3   1   2     2.589642302720   120.85552019     0.00000000
 H      6   2   1     2.051627766832   120.01923948   180.00004741
 H      7   3   1     2.051648327183   119.95261952   179.99995258
 C      7   3   1     2.715422717190   122.36272964     0.00000000
 O     10   7   3     2.386681875118   122.47915760   180.00000000
 C      1   2   3     2.661237375066   120.72063026   180.00013995
 N     12   1   2     2.190910791336   179.97034487     0.00000000

---------------------
BASIS SET INFORMATION
---------------------
There are 4 groups of distinct atoms

 Group   1 Type C   : 11s6p2d1f contracted to 5s3p2d1f pattern {62111/411/11/1}
 Group   2 Type H   : 5s1p contracted to 3s1p pattern {311/1}
 Group   3 Type O   : 11s6p2d1f contracted to 5s3p2d1f pattern {62111/411/11/1}
 Group   4 Type N   : 11s6p2d1f contracted to 5s3p2d1f pattern {62111/411/11/1}

Atom   0C    basis set group =>   1
Atom   1C    basis set group =>   1
Atom   2C    basis set group =>   1
Atom   3H    basis set group =>   2
Atom   4H    basis set group =>   2
Atom   5C    basis set group =>   1
Atom   6C    basis set group =>   1
Atom   7H    basis set group =>   2
Atom   8H    basis set group =>   2
Atom   9C    basis set group =>   1
Atom  10O    basis set group =>   3
Atom  11C    basis set group =>   1
Atom  12N    basis set group =>   4
---------------------------------
AUXILIARY/J BASIS SET INFORMATION
---------------------------------
There are 4 groups of distinct atoms

 Group   1 Type C   : 12s5p4d2f1g contracted to 6s4p3d1f1g pattern {711111/2111/211/2/1}
 Group   2 Type H   : 5s2p1d contracted to 3s1p1d pattern {311/2/1}
 Group   3 Type O   : 12s5p4d2f1g contracted to 6s4p3d1f1g pattern {711111/2111/211/2/1}
 Group   4 Type N   : 12s5p4d2f1g contracted to 6s4p3d1f1g pattern {711111/2111/211/2/1}

Atom   0C    basis set group =>   1
Atom   1C    basis set group =>   1
Atom   2C    basis set group =>   1
Atom   3H    basis set group =>   2
Atom   4H    basis set group =>   2
Atom   5C    basis set group =>   1
Atom   6C    basis set group =>   1
Atom   7H    basis set group =>   2
Atom   8H    basis set group =>   2
Atom   9C    basis set group =>   1
Atom  10O    basis set group =>   3
Atom  11C    basis set group =>   1
Atom  12N    basis set group =>   4


           ************************************************************
           *        Program running with 24 parallel MPI-processes    *
           *              working on a common directory               *
           ************************************************************
------------------------------------------------------------------------------
                           ORCA GTO INTEGRAL CALCULATION
                           -- RI-GTO INTEGRALS CHOSEN --
------------------------------------------------------------------------------
------------------------------------------------------------------------------
                   ___                                                        
                  /   \      - P O W E R E D   B Y -                         
                 /     \                                                     
                 |  |  |   _    _      __       _____    __    __             
                 |  |  |  | |  | |    /  \     |  _  \  |  |  /  |          
                  \  \/   | |  | |   /    \    | | | |  |  | /  /          
                 / \  \   | |__| |  /  /\  \   | |_| |  |  |/  /          
                |  |  |   |  __  | /  /__\  \  |    /   |      \           
                |  |  |   | |  | | |   __   |  |    \   |  |\   \          
                \     /   | |  | | |  |  |  |  | |\  \  |  | \   \       
                 \___/    |_|  |_| |__|  |__|  |_| \__\ |__|  \__/        
                                                                              
                      - O R C A' S   B I G   F R I E N D -                    
                                      &                                       
                       - I N T E G R A L  F E E D E R -                       
                                                                              
 v1 FN, 2020, v2 2021                                                         
------------------------------------------------------------------------------


Reading SHARK input file CN_PhenO/CN_PhenO.SHARKINP.tmp ... ok
----------------------
SHARK INTEGRAL PACKAGE
----------------------

Number of atoms                             ...     13
Number of basis functions                   ...    303
Number of shells                            ...    115
Maximum angular momentum                    ...      3
Integral batch strategy                     ... SHARK/LIBINT Hybrid
RI-J (if used) integral strategy            ... SPLIT-RIJ (Revised 2003 algorithm where possible)
Printlevel                                  ...      1
Contraction scheme used                     ... SEGMENTED contraction
Coulomb Range Separation                    ... NOT USED
Exchange Range Separation                   ... NOT USED
Finite Nucleus Model                        ... NOT USED
Auxiliary Coulomb fitting basis             ... AVAILABLE
   # of basis functions in Aux-J            ...    485
   # of shells in Aux-J                     ...    155
   Maximum angular momentum in Aux-J        ...      4
Auxiliary J/K fitting basis                 ... NOT available
Auxiliary Correlation fitting basis         ... NOT available
Auxiliary 'external' fitting basis          ... NOT available
Integral threshold                          ...     2.500000e-11
Primitive cut-off                           ...     2.500000e-12
Primitive pair pre-selection threshold      ...     2.500000e-12

Calculating pre-screening integrals         ... done (  0.1 sec) Dimension = 115
Organizing shell pair data                  ... done (  0.3 sec)
Shell pair information
Total number of shell pairs                 ...      6670
Shell pairs after pre-screening             ...      6017
Total number of primitive shell pairs       ...     21120
Primitive shell pairs kept                  ...     14153
          la=0 lb=0:   1409 shell pairs
          la=1 lb=0:   1624 shell pairs
          la=1 lb=1:    478 shell pairs
          la=2 lb=0:    919 shell pairs
          la=2 lb=1:    530 shell pairs
          la=2 lb=2:    157 shell pairs
          la=3 lb=0:    450 shell pairs
          la=3 lb=1:    262 shell pairs
          la=3 lb=2:    148 shell pairs
          la=3 lb=3:     40 shell pairs

Calculating one electron integrals          ... done (  0.0 sec)
Calculating RI/J V-Matrix + Cholesky decomp.... done (  0.1 sec)
Calculating Nuclear repulsion               ... done (  0.0 sec) ENN=    364.684193181072 Eh

SHARK setup successfully completed in   0.7 seconds

Maximum memory used throughout the entire GTOINT-calculation: 19.6 MB


           ************************************************************
           *        Program running with 24 parallel MPI-processes    *
           *              working on a common directory               *
           ************************************************************
-------------------------------------------------------------------------------
                                 ORCA SCF
-------------------------------------------------------------------------------

------------
SCF SETTINGS
------------
Hamiltonian:
 Density Functional     Method          .... DFT(GTOs)
 Exchange Functional    Exchange        .... PBE
   PBE kappa parameter   XKappa         ....  0.804000
   PBE mue parameter    XMuePBE         ....  0.219520
 Correlation Functional Correlation     .... PBE
   PBE beta parameter  CBetaPBE         ....  0.066725
 LDA part of GGA corr.  LDAOpt          .... PW91-LDA
 Gradients option       PostSCFGGA      .... off
 Hybrid DFT is turned on
   Fraction HF Exchange ScalHFX         ....  0.250000
   Scaling of DF-GGA-X  ScalDFX         ....  0.750000
   Scaling of DF-GGA-C  ScalDFC         ....  1.000000
   Scaling of DF-LDA-C  ScalLDAC        ....  1.000000
   Perturbative correction              ....  0.000000
   Density functional embedding theory  .... OFF
   NL short-range parameter             ....  6.900000
 RI-approximation to the Coulomb term is turned on
   Number of AuxJ basis functions       .... 485
   RIJ-COSX (HFX calculated with COS-X)).... on


General Settings:
 Integral files         IntName         .... CN_PhenO/CN_PhenO
 Hartree-Fock type      HFTyp           .... RHF
 Total Charge           Charge          ....   -1
 Multiplicity           Mult            ....    1
 Number of Electrons    NEL             ....   62
 Basis Dimension        Dim             ....  303
 Nuclear Repulsion      ENuc            ....    364.6841931811 Eh

Convergence Acceleration:
 DIIS                   CNVDIIS         .... on
   Start iteration      DIISMaxIt       ....    12
   Startup error        DIISStart       ....  0.200000
   # of expansion vecs  DIISMaxEq       ....     5
   Bias factor          DIISBfac        ....   1.050
   Max. coefficient     DIISMaxC        ....  10.000
 Trust-Rad. Augm. Hess. CNVTRAH         .... auto
   Auto Start mean grad. ratio tolernc. ....  1.125000
   Auto Start start iteration           ....    20
   Auto Start num. interpolation iter.  ....    10
   Max. Number of Micro iterations      ....    16
   Max. Number of Macro iterations      .... Maxiter - #DIIS iter
   Number of Davidson start vectors     ....     2
   Converg. threshold I  (grad. norm)   ....   1.000e-05
   Converg. threshold II (energy diff.) ....   1.000e-08
   Grad. Scal. Fac. for Micro threshold ....   0.100
   Minimum threshold for Micro iter.    ....   0.010
   NR start threshold (gradient norm)   ....   0.001
   Initial trust radius                 ....   0.400
   Minimum AH scaling param. (alpha)    ....   1.000
   Maximum AH scaling param. (alpha)    .... 1000.000
   Orbital update algorithm             .... Taylor
   White noise on init. David. guess    .... on
   Maximum white noise                  ....   0.010
   Quad. conv. algorithm                .... NR
 SOSCF                  CNVSOSCF        .... on
   Start iteration      SOSCFMaxIt      ....   150
   Startup grad/error   SOSCFStart      ....  0.003300
 Level Shifting         CNVShift        .... on
   Level shift para.    LevelShift      ....    0.2500
   Turn off err/grad.   ShiftErr        ....    0.0010
 Zerner damping         CNVZerner       .... off
 Static damping         CNVDamp         .... on
   Fraction old density DampFac         ....    0.7000
   Max. Damping (<1)    DampMax         ....    0.9800
   Min. Damping (>=0)   DampMin         ....    0.0000
   Turn off err/grad.   DampErr         ....    0.1000
 Fernandez-Rico         CNVRico         .... off

SCF Procedure:
 Maximum # iterations   MaxIter         ....   800
 SCF integral mode      SCFMode         .... Direct
   Integral package                     .... SHARK and LIBINT hybrid scheme
 Reset frequency        DirectResetFreq ....    20
 Integral Threshold     Thresh          ....  2.500e-11 Eh
 Primitive CutOff       TCut            ....  2.500e-12 Eh

Convergence Tolerance:
 Convergence Check Mode ConvCheckMode   .... Total+1el-Energy
 Convergence forced     ConvForced      .... 0
 Energy Change          TolE            ....  1.000e-08 Eh
 1-El. energy change                    ....  1.000e-05 Eh
 Orbital Gradient       TolG            ....  1.000e-05
 Orbital Rotation angle TolX            ....  1.000e-05
 DIIS Error             TolErr          ....  5.000e-07


Diagonalization of the overlap matrix:
Smallest eigenvalue                        ... 1.119e-05
Time for diagonalization                   ...    0.029 sec
Threshold for overlap eigenvalues          ... 1.000e-08
Number of eigenvalues below threshold      ... 0
Time for construction of square roots      ...    0.023 sec
Total time needed                          ...    0.055 sec

Time for model grid setup =    0.093 sec

------------------------------
INITIAL GUESS: MODEL POTENTIAL
------------------------------
Loading Hartree-Fock densities                     ... done
Calculating cut-offs                               ... done
Initializing the effective Hamiltonian             ... done
Setting up the integral package (SHARK)            ... done
Starting the Coulomb interaction                   ... done (   0.1 sec)
Reading the grid                                   ... done
Mapping shells                                     ... done
Starting the XC term evaluation                    ... done (   0.0 sec)
  promolecular density results
     # of electrons  =     61.000603050
     EX              =    -51.569033454
     EC              =     -2.017742774
     EX+EC           =    -53.586776228
Transforming the Hamiltonian                       ... done (   0.0 sec)
Diagonalizing the Hamiltonian                      ... done (   0.0 sec)
Back transforming the eigenvectors                 ... done (   0.0 sec)
Now organizing SCF variables                       ... done
                      ------------------
                      INITIAL GUESS DONE (   0.3 sec)
                      ------------------
-------------------
DFT GRID GENERATION
-------------------

General Integration Accuracy     IntAcc      ... 4.388
Radial Grid Type                 RadialGrid  ... OptM3 with GC (2021)
Angular Grid (max. ang.)         AngularGrid ... 4 (Lebedev-302)
Angular grid pruning method      GridPruning ... 4 (adaptive)
Weight generation scheme         WeightScheme... Becke
Basis function cutoff            BFCut       ... 1.0000e-11
Integration weight cutoff        WCut        ... 1.0000e-14
Angular grids for H and He will be reduced by one unit
Partially contracted basis set               ... off
Rotationally invariant grid construction     ... off

Total number of grid points                  ...    67167
Total number of batches                      ...     1055
Average number of points per batch           ...       63
Average number of grid points per atom       ...     5167
Time for grid setup =    0.375 sec

--------------------
COSX GRID GENERATION
--------------------

GRIDX 1
-------
General Integration Accuracy     IntAcc      ... 3.816
Radial Grid Type                 RadialGrid  ... OptM3 with GC (2021)
Angular Grid (max. ang.)         AngularGrid ... 1 (Lebedev-50)
Angular grid pruning method      GridPruning ... 4 (adaptive)
Weight generation scheme         WeightScheme... Becke
Basis function cutoff            BFCut       ... 1.0000e-11
Integration weight cutoff        WCut        ... 1.0000e-14
Angular grids for H and He will be reduced by one unit
Partially contracted basis set               ... on
Rotationally invariant grid construction     ... off

Total number of grid points                  ...     8540
Total number of batches                      ...      138
Average number of points per batch           ...       61
Average number of grid points per atom       ...      657
UseSFitting                                  ... on

GRIDX 2
-------
General Integration Accuracy     IntAcc      ... 4.020
Radial Grid Type                 RadialGrid  ... OptM3 with GC (2021)
Angular Grid (max. ang.)         AngularGrid ... 2 (Lebedev-110)
Angular grid pruning method      GridPruning ... 4 (adaptive)
Weight generation scheme         WeightScheme... Becke
Basis function cutoff            BFCut       ... 1.0000e-11
Integration weight cutoff        WCut        ... 1.0000e-14
Angular grids for H and He will be reduced by one unit
Partially contracted basis set               ... on
Rotationally invariant grid construction     ... off

Total number of grid points                  ...    19348
Total number of batches                      ...      309
Average number of points per batch           ...       62
Average number of grid points per atom       ...     1488
UseSFitting                                  ... on

GRIDX 3
-------
General Integration Accuracy     IntAcc      ... 4.338
Radial Grid Type                 RadialGrid  ... OptM3 with GC (2021)
Angular Grid (max. ang.)         AngularGrid ... 3 (Lebedev-194)
Angular grid pruning method      GridPruning ... 4 (adaptive)
Weight generation scheme         WeightScheme... Becke
Basis function cutoff            BFCut       ... 1.0000e-11
Integration weight cutoff        WCut        ... 1.0000e-14
Angular grids for H and He will be reduced by one unit
Partially contracted basis set               ... on
Rotationally invariant grid construction     ... off

Total number of grid points                  ...    42747
Total number of batches                      ...      674
Average number of points per batch           ...       63
Average number of grid points per atom       ...     3288
UseSFitting                                  ... on

Time for X-Grid setup             =    0.560 sec


--------------------
CPCM SOLVATION MODEL
--------------------
CPCM parameters:
  Epsilon                                         ...      47.2000
  Refrac                                          ...       1.4790
  Rsolv                                           ...       1.3000
  Surface type                                    ... GAUSSIAN VDW
  Epsilon function type                           ...         CPCM
Radii:
 Radius for C  used is    3.8550 Bohr (=   2.0400 Ang.)
 Radius for H  used is    2.4944 Bohr (=   1.3200 Ang.)
 Radius for O  used is    3.4469 Bohr (=   1.8240 Ang.)
 Radius for N  used is    3.5149 Bohr (=   1.8600 Ang.)
Calculating surface                               ...        done! (  0.0s)
GEPOL surface points                              ...          782
GEPOL Volume                                      ...    1000.0613
GEPOL Surface-area                                ...     567.1780
Calculating surface distance matrix               ...        done! (  0.0s)
Performing Cholesky decomposition & store         ...        done! (  0.1s)
Overall time for CPCM initialization              ...                 0.1s
--------------
SCF ITERATIONS
--------------
ITER       Energy         Delta-E        Max-DP      RMS-DP      [F,P]     Damp
               ***  Starting incremental Fock matrix formation  ***
  0   -398.6510719925   0.000000000000 0.36599356  0.00438273  0.3216892 0.7000
  1   -398.7855960664  -0.134524073887 0.34215692  0.00401332  0.1373998 0.7000
                               ***Turning on DIIS***
  2   -398.8397763025  -0.054180236079 0.33881859  0.00466684  0.0417603 0.0000
  3   -398.9273105157  -0.087534213233 0.35574748  0.00396732  0.0788062 0.0000
  4   -398.9439501337  -0.016639618011 0.07140948  0.00083061  0.0197667 0.0000
  5   -398.9453820626  -0.001431928881 0.02554753  0.00031180  0.0037408 0.0000
                      *** Initiating the SOSCF procedure ***
                           *** Shutting down DIIS ***
                      *** Re-Reading the Fockian *** 
                      *** Removing any level shift *** 
ITER      Energy       Delta-E        Grad      Rot      Max-DP    RMS-DP
  6   -398.94544123  -0.0000591716  0.000347  0.000347  0.013355  0.000167
               *** Restarting incremental Fock matrix formation ***
  7   -398.94544124  -0.0000000059  0.000187  0.000990  0.001634  0.000023
  8   -398.94544065   0.0000005922  0.000287  0.000435  0.001256  0.000014
  9   -398.94544210  -0.0000014540  0.000034  0.000105  0.000373  0.000005
 10   -398.94544207   0.0000000331  0.000060  0.000058  0.000140  0.000002
 11   -398.94544213  -0.0000000601  0.000010  0.000020  0.000179  0.000003
 12   -398.94544212   0.0000000045  0.000016  0.000013  0.000119  0.000002
                  ***Gradient check signals convergence***
              ***Rediagonalizing the Fockian in SOSCF/NRSCF***

               *****************************************************
               *                     SUCCESS                       *
               *           SCF CONVERGED AFTER  13 CYCLES          *
               *****************************************************

Old exchange energy                            =    -13.188622033 Eh
New exchange energy                            =    -13.188608590 Eh
Exchange energy change after final integration =      0.000013442 Eh
Total energy after final integration           =   -398.945428689 Eh
Final COS-X integration done in                =     1.693 sec

----------------
TOTAL SCF ENERGY
----------------

Total Energy       :         -398.94542869 Eh          -10855.85702 eV

Components:
Nuclear Repulsion  :          364.68419318 Eh            9923.56140 eV
Electronic Energy  :         -763.62962187 Eh          -20779.41842 eV
One Electron Energy:        -1273.85536925 Eh          -34663.36685 eV
Two Electron Energy:          510.22574738 Eh           13883.94843 eV
Max COSX asymmetry :            0.00000126 Eh               0.00003 eV
CPCM Dielectric    :           -0.08787086 Eh              -2.39109 eV

Virial components:
Potential Energy   :         -796.12171344 Eh          -21663.57318 eV
Kinetic Energy     :          397.17628476 Eh           10807.71616 eV
Virial Ratio       :            2.00445430


DFT components:
N(Alpha)           :       31.000034558537 electrons
N(Beta)            :       31.000034558537 electrons
N(Total)           :       62.000069117074 electrons
E(X)               :      -39.512851134520 Eh       
E(C)               :       -2.064669472615 Eh       
E(XC)              :      -41.577520607135 Eh       
DFET-embed. en.    :        0.000000000000 Eh       
CPCM Solvation Model Properties:
Surface-charge          :            0.97126193
Charge-correction       :           -0.00378250 Eh              -0.10293 eV
Free-energy (cav+disp)  :  This term is not implemented in the current solvation scheme

---------------
SCF CONVERGENCE
---------------

  Last Energy change         ...   -6.8695e-09  Tolerance :   1.0000e-08
  Last MAX-Density change    ...    7.7716e-16  Tolerance :   1.0000e-07
  Last RMS-Density change    ...    1.5254e-17  Tolerance :   5.0000e-09
  Last Orbital Gradient      ...    4.5862e-07  Tolerance :   1.0000e-05
  Last Orbital Rotation      ...    2.5418e-06  Tolerance :   1.0000e-05

             **** THE GBW FILE WAS UPDATED (CN_PhenO/CN_PhenO.gbw) ****
             **** DENSITY CN_PhenO/CN_PhenO.scfp WAS UPDATED ****
             **** ENERGY FILE WAS UPDATED (CN_PhenO/CN_PhenO.en.tmp) ****
             **** THE GBW FILE WAS UPDATED (CN_PhenO/CN_PhenO.gbw) ****
             **** DENSITY CN_PhenO/CN_PhenO.scfp WAS UPDATED ****
----------------
ORBITAL ENERGIES
----------------

  NO   OCC          E(Eh)            E(eV) 
   0   2.0000     -19.130499      -520.5673 
   1   2.0000     -14.366987      -390.9456 
   2   2.0000     -10.261501      -279.2296 
   3   2.0000     -10.256504      -279.0937 
   4   2.0000     -10.232488      -278.4401 
   5   2.0000     -10.226731      -278.2835 
   6   2.0000     -10.226677      -278.2820 
   7   2.0000     -10.200406      -277.5672 
   8   2.0000     -10.200395      -277.5669 
   9   2.0000      -1.000481       -27.2245 
  10   2.0000      -0.927033       -25.2258 
  11   2.0000      -0.865256       -23.5448 
  12   2.0000      -0.763049       -20.7636 
  13   2.0000      -0.752264       -20.4701 
  14   2.0000      -0.618262       -16.8238 
  15   2.0000      -0.616797       -16.7839 
  16   2.0000      -0.553346       -15.0573 
  17   2.0000      -0.476289       -12.9605 
  18   2.0000      -0.461515       -12.5585 
  19   2.0000      -0.428044       -11.6477 
  20   2.0000      -0.423966       -11.5367 
  21   2.0000      -0.409374       -11.1396 
  22   2.0000      -0.388684       -10.5766 
  23   2.0000      -0.374889       -10.2012 
  24   2.0000      -0.370972       -10.0946 
  25   2.0000      -0.365727        -9.9519 
  26   2.0000      -0.334305        -9.0969 
  27   2.0000      -0.313863        -8.5407 
  28   2.0000      -0.265436        -7.2229 
  29   2.0000      -0.233454        -6.3526 
  30   2.0000      -0.196190        -5.3386 
  31   0.0000      -0.007638        -0.2078 
  32   0.0000       0.003756         0.1022 
  33   0.0000       0.044939         1.2228 
  34   0.0000       0.064361         1.7514 
  35   0.0000       0.101392         2.7590 
  36   0.0000       0.101481         2.7614 
  37   0.0000       0.106368         2.8944 
  38   0.0000       0.118678         3.2294 
  39   0.0000       0.146500         3.9865 
  40   0.0000       0.156094         4.2475 
  41   0.0000       0.171448         4.6653 
  42   0.0000       0.175566         4.7774 
  43   0.0000       0.213845         5.8190 
  44   0.0000       0.215174         5.8552 
  45   0.0000       0.220325         5.9954 
  46   0.0000       0.239485         6.5167 
  47   0.0000       0.256485         6.9793 
  48   0.0000       0.256932         6.9915 
  49   0.0000       0.263573         7.1722 
  50   0.0000       0.281472         7.6592 
  51   0.0000       0.286223         7.7885 
  52   0.0000       0.299930         8.1615 
  53   0.0000       0.327588         8.9141 
  54   0.0000       0.340423         9.2634 
  55   0.0000       0.350673         9.5423 
  56   0.0000       0.355426         9.6716 
  57   0.0000       0.361407         9.8344 
  58   0.0000       0.363368         9.8878 
  59   0.0000       0.367093         9.9891 
  60   0.0000       0.381897        10.3920 
  61   0.0000       0.416754        11.3404 
  62   0.0000       0.419598        11.4179 
  63   0.0000       0.422468        11.4959 
  64   0.0000       0.431990        11.7550 
  65   0.0000       0.443287        12.0625 
  66   0.0000       0.452673        12.3179 
  67   0.0000       0.477253        12.9867 
  68   0.0000       0.479032        13.0351 
  69   0.0000       0.493906        13.4399 
  70   0.0000       0.502610        13.6767 
  71   0.0000       0.508517        13.8374 
  72   0.0000       0.508838        13.8462 
  73   0.0000       0.532286        14.4842 
  74   0.0000       0.572221        15.5709 
  75   0.0000       0.575176        15.6513 
  76   0.0000       0.589523        16.0417 
  77   0.0000       0.613688        16.6993 
  78   0.0000       0.615563        16.7503 
  79   0.0000       0.629520        17.1301 
  80   0.0000       0.653307        17.7774 
  81   0.0000       0.674630        18.3576 
  82   0.0000       0.676265        18.4021 
  83   0.0000       0.697913        18.9912 
  84   0.0000       0.722573        19.6622 
  85   0.0000       0.723065        19.6756 
  86   0.0000       0.745690        20.2913 
  87   0.0000       0.750799        20.4303 
  88   0.0000       0.756612        20.5884 
  89   0.0000       0.811171        22.0731 
  90   0.0000       0.818178        22.2638 
  91   0.0000       0.825425        22.4610 
  92   0.0000       0.835789        22.7430 
  93   0.0000       0.871457        23.7135 
  94   0.0000       0.878315        23.9002 
  95   0.0000       0.897077        24.4107 
  96   0.0000       0.903154        24.5761 
  97   0.0000       0.911197        24.7949 
  98   0.0000       0.912483        24.8299 
  99   0.0000       0.945519        25.7289 
 100   0.0000       1.031732        28.0749 
 101   0.0000       1.052735        28.6464 
 102   0.0000       1.064104        28.9557 
 103   0.0000       1.078507        29.3477 
 104   0.0000       1.079288        29.3689 
 105   0.0000       1.092917        29.7398 
 106   0.0000       1.137801        30.9611 
 107   0.0000       1.163701        31.6659 
 108   0.0000       1.176635        32.0179 
 109   0.0000       1.206168        32.8215 
 110   0.0000       1.225458        33.3464 
 111   0.0000       1.228904        33.4402 
 112   0.0000       1.243325        33.8326 
 113   0.0000       1.259202        34.2646 
 114   0.0000       1.277511        34.7628 
 115   0.0000       1.290070        35.1046 
 116   0.0000       1.307203        35.5708 
 117   0.0000       1.330654        36.2089 
 118   0.0000       1.337688        36.4003 
 119   0.0000       1.392405        37.8893 
 120   0.0000       1.394837        37.9554 
 121   0.0000       1.422814        38.7167 
 122   0.0000       1.423553        38.7368 
 123   0.0000       1.474978        40.1362 
 124   0.0000       1.488517        40.5046 
 125   0.0000       1.495244        40.6877 
 126   0.0000       1.524019        41.4707 
 127   0.0000       1.537564        41.8392 
 128   0.0000       1.555564        42.3290 
 129   0.0000       1.578122        42.9429 
 130   0.0000       1.586327        43.1662 
 131   0.0000       1.603031        43.6207 
 132   0.0000       1.605693        43.6931 
 133   0.0000       1.635638        44.5080 
 134   0.0000       1.642725        44.7008 
 135   0.0000       1.679552        45.7029 
 136   0.0000       1.686868        45.9020 
 137   0.0000       1.732844        47.1531 
 138   0.0000       1.750149        47.6240 
 139   0.0000       1.753330        47.7105 
 140   0.0000       1.837724        50.0070 
 141   0.0000       1.840671        50.0872 
 142   0.0000       1.867998        50.8308 
 143   0.0000       1.869020        50.8586 
 144   0.0000       1.896770        51.6137 
 145   0.0000       1.937730        52.7283 
 146   0.0000       1.949426        53.0466 
 147   0.0000       1.957192        53.2579 
 148   0.0000       1.958644        53.2974 
 149   0.0000       1.977194        53.8022 
 150   0.0000       2.045393        55.6580 
 151   0.0000       2.066403        56.2297 
 152   0.0000       2.127973        57.9051 
 153   0.0000       2.153829        58.6087 
 154   0.0000       2.166479        58.9529 
 155   0.0000       2.179286        59.3014 
 156   0.0000       2.248320        61.1799 
 157   0.0000       2.267668        61.7064 
 158   0.0000       2.269889        61.7668 
 159   0.0000       2.283916        62.1485 
 160   0.0000       2.320682        63.1490 
 161   0.0000       2.329875        63.3991 
 162   0.0000       2.354487        64.0688 
 163   0.0000       2.367138        64.4131 
 164   0.0000       2.451103        66.6979 
 165   0.0000       2.499158        68.0055 
 166   0.0000       2.500347        68.0379 
 167   0.0000       2.523437        68.6662 
 168   0.0000       2.530538        68.8594 
 169   0.0000       2.556044        69.5535 
 170   0.0000       2.563556        69.7579 
 171   0.0000       2.593591        70.5752 
 172   0.0000       2.604209        70.8641 
 173   0.0000       2.664997        72.5182 
 174   0.0000       2.669450        72.6394 
 175   0.0000       2.679787        72.9207 
 176   0.0000       2.683065        73.0099 
 177   0.0000       2.695851        73.3578 
 178   0.0000       2.700189        73.4759 
 179   0.0000       2.768659        75.3390 
 180   0.0000       2.772516        75.4440 
 181   0.0000       2.772525        75.4442 
 182   0.0000       2.785450        75.7959 
 183   0.0000       2.786080        75.8131 
 184   0.0000       2.827999        76.9538 
 185   0.0000       2.845266        77.4236 
 186   0.0000       2.857850        77.7660 
 187   0.0000       2.870221        78.1027 
 188   0.0000       2.873560        78.1935 
 189   0.0000       2.892695        78.7142 
 190   0.0000       2.931902        79.7811 
 191   0.0000       2.948486        80.2324 
 192   0.0000       2.948812        80.2413 
 193   0.0000       2.951848        80.3239 
 194   0.0000       3.017859        82.1201 
 195   0.0000       3.028849        82.4192 
 196   0.0000       3.054365        83.1135 
 197   0.0000       3.058800        83.2342 
 198   0.0000       3.071460        83.5787 
 199   0.0000       3.090348        84.0927 
 200   0.0000       3.113877        84.7329 
 201   0.0000       3.133954        85.2792 
 202   0.0000       3.138139        85.3931 
 203   0.0000       3.156645        85.8967 
 204   0.0000       3.164109        86.0998 
 205   0.0000       3.166208        86.1569 
 206   0.0000       3.187612        86.7393 
 207   0.0000       3.206156        87.2439 
 208   0.0000       3.243420        88.2579 
 209   0.0000       3.256619        88.6171 
 210   0.0000       3.256715        88.6197 
 211   0.0000       3.275815        89.1395 
 212   0.0000       3.313540        90.1660 
 213   0.0000       3.327159        90.5366 
 214   0.0000       3.352788        91.2340 
 215   0.0000       3.387105        92.1678 
 216   0.0000       3.407672        92.7275 
 217   0.0000       3.412449        92.8575 
 218   0.0000       3.413670        92.8907 
 219   0.0000       3.415210        92.9326 
 220   0.0000       3.437712        93.5449 
 221   0.0000       3.441360        93.6442 
 222   0.0000       3.454876        94.0120 
 223   0.0000       3.475944        94.5852 
 224   0.0000       3.502622        95.3112 
 225   0.0000       3.525724        95.9398 
 226   0.0000       3.531507        96.0972 
 227   0.0000       3.545815        96.4865 
 228   0.0000       3.576505        97.3216 
 229   0.0000       3.637257        98.9748 
 230   0.0000       3.693982       100.5184 
 231   0.0000       3.741483       101.8109 
 232   0.0000       3.768477       102.5455 
 233   0.0000       3.779019       102.8323 
 234   0.0000       3.804228       103.5183 
 235   0.0000       3.822306       104.0102 
 236   0.0000       3.894087       105.9635 
 237   0.0000       3.963905       107.8634 
 238   0.0000       3.965878       107.9170 
 239   0.0000       3.985826       108.4598 
 240   0.0000       3.991518       108.6147 
 241   0.0000       4.030298       109.6700 
 242   0.0000       4.033902       109.7681 
 243   0.0000       4.071079       110.7797 
 244   0.0000       4.140752       112.6756 
 245   0.0000       4.142539       112.7242 
 246   0.0000       4.156503       113.1042 
 247   0.0000       4.185641       113.8971 
 248   0.0000       4.194686       114.1432 
 249   0.0000       4.208862       114.5289 
 250   0.0000       4.258376       115.8763 
 251   0.0000       4.275932       116.3540 
 252   0.0000       4.281350       116.5015 
 253   0.0000       4.343421       118.1905 
 254   0.0000       4.423325       120.3648 
 255   0.0000       4.500171       122.4559 
 256   0.0000       4.551001       123.8390 
 257   0.0000       4.590798       124.9220 
 258   0.0000       4.598033       125.1188 
 259   0.0000       4.601425       125.2111 
 260   0.0000       4.632174       126.0479 
 261   0.0000       4.649878       126.5296 
 262   0.0000       4.690939       127.6469 
 263   0.0000       4.701681       127.9392 
 264   0.0000       4.755265       129.3973 
 265   0.0000       4.813708       130.9877 
 266   0.0000       4.900854       133.3590 
 267   0.0000       4.927615       134.0872 
 268   0.0000       4.957241       134.8934 
 269   0.0000       4.960324       134.9773 
 270   0.0000       5.112518       139.1187 
 271   0.0000       5.177583       140.8892 
 272   0.0000       5.200344       141.5086 
 273   0.0000       5.217328       141.9707 
 274   0.0000       5.267082       143.3246 
 275   0.0000       5.312045       144.5481 
 276   0.0000       5.324801       144.8952 
 277   0.0000       5.416125       147.3803 
 278   0.0000       5.468980       148.8185 
 279   0.0000       5.606396       152.5578 
 280   0.0000       5.679524       154.5477 
 281   0.0000       5.710199       155.3824 
 282   0.0000       5.734834       156.0528 
 283   0.0000       5.811868       158.1490 
 284   0.0000       5.952551       161.9771 
 285   0.0000       6.098041       165.9361 
 286   0.0000       6.187320       168.3655 
 287   0.0000       6.410349       174.4345 
 288   0.0000       6.449429       175.4979 
 289   0.0000       6.668223       181.4516 
 290   0.0000       6.669241       181.4793 
 291   0.0000       6.869271       186.9224 
 292   0.0000       7.122204       193.8050 
 293   0.0000       7.125490       193.8944 
 294   0.0000      22.268916       605.9680 
 295   0.0000      22.698707       617.6632 
 296   0.0000      22.835596       621.3881 
 297   0.0000      22.858313       622.0063 
 298   0.0000      23.083600       628.1367 
 299   0.0000      23.508359       639.6950 
 300   0.0000      23.704890       645.0428 
 301   0.0000      32.198014       876.1525 
 302   0.0000      44.069174      1199.1832 

                    ********************************
                    * MULLIKEN POPULATION ANALYSIS *
                    ********************************

-----------------------
MULLIKEN ATOMIC CHARGES
-----------------------
   0 C :    0.245321
   1 C :   -0.266363
   2 C :   -0.266534
   3 H :    0.146540
   4 H :    0.146661
   5 C :   -0.274673
   6 C :   -0.274657
   7 H :    0.113740
   8 H :    0.113771
   9 C :    0.279669
  10 O :   -0.603980
  11 C :   -0.193265
  12 N :   -0.166229
Sum of atomic charges:   -1.0000000

--------------------------------
MULLIKEN REDUCED ORBITAL CHARGES
--------------------------------
  0 C s       :     3.086649  s :     3.086649
      pz      :     0.629621  p :     2.544582
      px      :     1.115341
      py      :     0.799620
      dz2     :     0.024342  d :     0.114691
      dxz     :     0.017211
      dyz     :     0.033556
      dx2y2   :     0.016018
      dxy     :     0.023563
      f0      :     0.001352  f :     0.008757
      f+1     :     0.000641
      f-1     :     0.002547
      f+2     :     0.000885
      f-2     :     0.001081
      f+3     :     0.001379
      f-3     :     0.000871
  1 C s       :     3.262776  s :     3.262776
      pz      :     0.968364  p :     2.893072
      px      :     0.948834
      py      :     0.975873
      dz2     :     0.017724  d :     0.103193
      dxz     :     0.025945
      dyz     :     0.038665
      dx2y2   :     0.008987
      dxy     :     0.011872
      f0      :     0.000732  f :     0.007323
      f+1     :     0.001523
      f-1     :     0.002135
      f+2     :     0.000801
      f-2     :     0.000498
      f+3     :     0.000968
      f-3     :     0.000665
  2 C s       :     3.262864  s :     3.262864
      pz      :     0.962750  p :     2.893200
      px      :     0.948667
      py      :     0.981783
      dz2     :     0.018857  d :     0.103149
      dxz     :     0.027646
      dyz     :     0.037289
      dx2y2   :     0.009193
      dxy     :     0.010164
      f0      :     0.000805  f :     0.007321
      f+1     :     0.001500
      f-1     :     0.002086
      f+2     :     0.000770
      f-2     :     0.000635
      f+3     :     0.000853
      f-3     :     0.000672
  3 H s       :     0.831556  s :     0.831556
      pz      :     0.006415  p :     0.021905
      px      :     0.004517
      py      :     0.010973
  4 H s       :     0.831436  s :     0.831436
      pz      :     0.005813  p :     0.021903
      px      :     0.004517
      py      :     0.011573
  5 C s       :     3.235637  s :     3.235637
      pz      :     0.922095  p :     2.952443
      px      :     1.072927
      py      :     0.957421
      dz2     :     0.017286  d :     0.079552
      dxz     :     0.016730
      dyz     :     0.030953
      dx2y2   :     0.008391
      dxy     :     0.006192
      f0      :     0.000974  f :     0.007041
      f+1     :     0.001492
      f-1     :     0.002116
      f+2     :     0.000795
      f-2     :     0.000408
      f+3     :     0.000638
      f-3     :     0.000617
  6 C s       :     3.235514  s :     3.235514
      pz      :     0.923273  p :     2.952526
      px      :     1.073005
      py      :     0.956248
      dz2     :     0.017193  d :     0.079575
      dxz     :     0.016139
      dyz     :     0.031039
      dx2y2   :     0.008428
      dxy     :     0.006777
      f0      :     0.000895  f :     0.007042
      f+1     :     0.001472
      f-1     :     0.002170
      f+2     :     0.000818
      f-2     :     0.000353
      f+3     :     0.000712
      f-3     :     0.000622
  7 H s       :     0.863894  s :     0.863894
      pz      :     0.005573  p :     0.022366
      px      :     0.005447
      py      :     0.011347
  8 H s       :     0.863865  s :     0.863865
      pz      :     0.006151  p :     0.022364
      px      :     0.005448
      py      :     0.010766
  9 C s       :     2.948499  s :     2.948499
      pz      :     0.853115  p :     2.577204
      px      :     0.814233
      py      :     0.909856
      dz2     :     0.033164  d :     0.177636
      dxz     :     0.057542
      dyz     :     0.057259
      dx2y2   :     0.012530
      dxy     :     0.017140
      f0      :     0.002844  f :     0.016992
      f+1     :     0.003442
      f-1     :     0.007116
      f+2     :     0.000782
      f-2     :     0.001014
      f+3     :     0.001184
      f-3     :     0.000610
 10 O s       :     3.785999  s :     3.785999
      pz      :     1.367229  p :     4.788486
      px      :     1.570759
      py      :     1.850497
      dz2     :     0.012016  d :     0.027859
      dxz     :     0.008659
      dyz     :     0.007017
      dx2y2   :     0.000107
      dxy     :     0.000060
      f0      :     0.000652  f :     0.001636
      f+1     :     0.000508
      f-1     :     0.000456
      f+2     :     0.000008
      f-2     :     0.000007
      f+3     :     0.000002
      f-3     :     0.000003
 11 C s       :     3.208168  s :     3.208168
      pz      :     1.059513  p :     2.868138
      px      :     0.899969
      py      :     0.908656
      dz2     :     0.012216  d :     0.101197
      dxz     :     0.052747
      dyz     :     0.035217
      dx2y2   :     0.000589
      dxy     :     0.000429
      f0      :     0.003089  f :     0.015761
      f+1     :     0.006238
      f-1     :     0.006329
      f+2     :     0.000044
      f-2     :     0.000050
      f+3     :     0.000003
      f-3     :     0.000008
 12 N s       :     3.570108  s :     3.570108
      pz      :     1.272750  p :     3.555924
      px      :     1.194799
      py      :     1.088375
      dz2     :     0.006920  d :     0.038190
      dxz     :     0.015164
      dyz     :     0.016067
      dx2y2   :     0.000018
      dxy     :     0.000020
      f0      :     0.000108  f :     0.002007
      f+1     :     0.000933
      f-1     :     0.000960
      f+2     :     0.000003
      f-2     :     0.000003
      f+3     :     0.000000
      f-3     :     0.000000


                     *******************************
                     * LOEWDIN POPULATION ANALYSIS *
                     *******************************

----------------------
LOEWDIN ATOMIC CHARGES
----------------------
   0 C :   -0.219716
   1 C :   -0.122024
   2 C :   -0.121955
   3 H :    0.156578
   4 H :    0.156623
   5 C :   -0.168959
   6 C :   -0.169052
   7 H :    0.142952
   8 H :    0.142952
   9 C :   -0.414745
  10 O :   -0.134871
  11 C :   -0.189456
  12 N :   -0.058325

-------------------------------
LOEWDIN REDUCED ORBITAL CHARGES
-------------------------------
  0 C s       :     2.692961  s :     2.692961
      pz      :     0.956119  p :     2.954382
      px      :     0.966628
      py      :     1.031635
      dz2     :     0.154174  d :     0.515747
      dxz     :     0.059778
      dyz     :     0.151890
      dx2y2   :     0.070705
      dxy     :     0.079200
      f0      :     0.008430  f :     0.056626
      f+1     :     0.004697
      f-1     :     0.020461
      f+2     :     0.006282
      f-2     :     0.007504
      f+3     :     0.003827
      f-3     :     0.005425
  1 C s       :     2.759294  s :     2.759294
      pz      :     1.050748  p :     2.907687
      px      :     0.866808
      py      :     0.990130
      dz2     :     0.093640  d :     0.411476
      dxz     :     0.082641
      dyz     :     0.155080
      dx2y2   :     0.042241
      dxy     :     0.037874
      f0      :     0.007405  f :     0.043568
      f+1     :     0.006613
      f-1     :     0.014306
      f+2     :     0.004342
      f-2     :     0.003239
      f+3     :     0.003910
      f-3     :     0.003754
  2 C s       :     2.759294  s :     2.759294
      pz      :     1.052664  p :     2.907609
      px      :     0.866711
      py      :     0.988235
      dz2     :     0.099450  d :     0.411487
      dxz     :     0.088493
      dyz     :     0.148563
      dx2y2   :     0.042943
      dxy     :     0.032037
      f0      :     0.007575  f :     0.043565
      f+1     :     0.006219
      f-1     :     0.014287
      f+2     :     0.004375
      f-2     :     0.004242
      f+3     :     0.003299
      f-3     :     0.003567
  3 H s       :     0.783638  s :     0.783638
      pz      :     0.017699  p :     0.059784
      px      :     0.013018
      py      :     0.029067
  4 H s       :     0.783591  s :     0.783591
      pz      :     0.016190  p :     0.059786
      px      :     0.013016
      py      :     0.030580
  5 C s       :     2.774179  s :     2.774179
      pz      :     1.052822  p :     2.995954
      px      :     0.955680
      py      :     0.987451
      dz2     :     0.097355  d :     0.359189
      dxz     :     0.055056
      dyz     :     0.144958
      dx2y2   :     0.042634
      dxy     :     0.019186
      f0      :     0.007811  f :     0.039637
      f+1     :     0.005699
      f-1     :     0.013817
      f+2     :     0.004487
      f-2     :     0.002654
      f+3     :     0.001879
      f-3     :     0.003289
  6 C s       :     2.774160  s :     2.774160
      pz      :     1.050044  p :     2.996024
      px      :     0.955698
      py      :     0.990282
      dz2     :     0.092207  d :     0.359223
      dxz     :     0.052228
      dyz     :     0.150470
      dx2y2   :     0.042306
      dxy     :     0.022012
      f0      :     0.007552  f :     0.039645
      f+1     :     0.005786
      f-1     :     0.013919
      f+2     :     0.004458
      f-2     :     0.002202
      f+3     :     0.002245
      f-3     :     0.003483
  7 H s       :     0.796199  s :     0.796199
      pz      :     0.015552  p :     0.060849
      px      :     0.015293
      py      :     0.030005
  8 H s       :     0.796200  s :     0.796200
      pz      :     0.016957  p :     0.060848
      px      :     0.015295
      py      :     0.028596
  9 C s       :     2.733357  s :     2.733357
      pz      :     0.952086  p :     2.771990
      px      :     0.775171
      py      :     1.044733
      dz2     :     0.205058  d :     0.801194
      dxz     :     0.177940
      dyz     :     0.295800
      dx2y2   :     0.060264
      dxy     :     0.062133
      f0      :     0.020771  f :     0.108204
      f+1     :     0.020574
      f-1     :     0.044476
      f+2     :     0.005601
      f-2     :     0.006548
      f+3     :     0.005272
      f-3     :     0.004962
 10 O s       :     3.422793  s :     3.422793
      pz      :     1.472677  p :     4.644353
      px      :     1.475219
      py      :     1.696456
      dz2     :     0.028050  d :     0.062573
      dxz     :     0.014080
      dyz     :     0.020247
      dx2y2   :     0.000128
      dxy     :     0.000068
      f0      :     0.002212  f :     0.005153
      f+1     :     0.001123
      f-1     :     0.001783
      f+2     :     0.000014
      f-2     :     0.000015
      f+3     :     0.000002
      f-3     :     0.000003
 11 C s       :     2.815080  s :     2.815080
      pz      :     1.174433  p :     2.832072
      px      :     0.843297
      py      :     0.814341
      dz2     :     0.151364  d :     0.483147
      dxz     :     0.188099
      dyz     :     0.141274
      dx2y2   :     0.001562
      dxy     :     0.000848
      f0      :     0.024569  f :     0.059158
      f+1     :     0.016998
      f-1     :     0.017340
      f+2     :     0.000117
      f-2     :     0.000110
      f+3     :     0.000002
      f-3     :     0.000021
 12 N s       :     3.299464  s :     3.299464
      pz      :     1.488307  p :     3.642624
      px      :     1.118787
      py      :     1.035530
      dz2     :     0.044461  d :     0.101151
      dxz     :     0.028868
      dyz     :     0.027753
      dx2y2   :     0.000034
      dxy     :     0.000036
      f0      :     0.006761  f :     0.015086
      f+1     :     0.004126
      f-1     :     0.004174
      f+2     :     0.000012
      f-2     :     0.000012
      f+3     :     0.000000
      f-3     :     0.000000


                      *****************************
                      * MAYER POPULATION ANALYSIS *
                      *****************************

  NA   - Mulliken gross atomic population
  ZA   - Total nuclear charge
  QA   - Mulliken gross atomic charge
  VA   - Mayer's total valence
  BVA  - Mayer's bonded valence
  FA   - Mayer's free valence

  ATOM       NA         ZA         QA         VA         BVA        FA
  0 C      5.7547     6.0000     0.2453     3.4945     3.4945     0.0000
  1 C      6.2664     6.0000    -0.2664     3.9346     3.9346     0.0000
  2 C      6.2665     6.0000    -0.2665     3.9344     3.9344     0.0000
  3 H      0.8535     1.0000     0.1465     0.9730     0.9730     0.0000
  4 H      0.8533     1.0000     0.1467     0.9729     0.9729     0.0000
  5 C      6.2747     6.0000    -0.2747     3.7355     3.7355     0.0000
  6 C      6.2747     6.0000    -0.2747     3.7349     3.7349     0.0000
  7 H      0.8863     1.0000     0.1137     0.9918     0.9918     0.0000
  8 H      0.8862     1.0000     0.1138     0.9916     0.9916     0.0000
  9 C      5.7203     6.0000     0.2797     4.1757     4.1757     0.0000
 10 O      8.6040     8.0000    -0.6040     1.8884     1.8884    -0.0000
 11 C      6.1933     6.0000    -0.1933     4.0888     4.0888     0.0000
 12 N      7.1662     7.0000    -0.1662     3.1631     3.1631     0.0000

  Mayer bond orders larger than 0.100000
B(  0-C ,  1-C ) :   1.2476 B(  0-C ,  2-C ) :   1.2478 B(  0-C , 11-C ) :   0.9971 
B(  1-C ,  3-H ) :   0.9694 B(  1-C ,  5-C ) :   1.5025 B(  2-C ,  4-H ) :   0.9695 
B(  2-C ,  6-C ) :   1.5018 B(  5-C ,  7-H ) :   0.9834 B(  5-C ,  9-C ) :   1.1731 
B(  6-C ,  8-H ) :   0.9834 B(  6-C ,  9-C ) :   1.1728 B(  9-C , 10-O ) :   1.7254 
B( 11-C , 12-N ) :   3.0292 

-------
TIMINGS
-------

Total SCF time: 0 days 0 hours 0 min 23 sec 

Total time                  ....      23.109 sec
Sum of individual times     ....      21.940 sec  ( 94.9%)

Fock matrix formation       ....      19.829 sec  ( 85.8%)
  Split-RI-J                ....       2.028 sec  ( 10.2% of F)
  Chain of spheres X        ....       8.970 sec  ( 45.2% of F)
  XC integration            ....       3.990 sec  ( 20.1% of F)
    Basis function eval.    ....       0.333 sec  (  8.3% of XC)
    Density eval.           ....       0.306 sec  (  7.7% of XC)
    XC-Functional eval.     ....       0.062 sec  (  1.6% of XC)
    XC-Potential eval.      ....       0.359 sec  (  9.0% of XC)
Diagonalization             ....       0.316 sec  (  1.4%)
Density matrix formation    ....       0.029 sec  (  0.1%)
Population analysis         ....       0.081 sec  (  0.4%)
Initial guess               ....       0.197 sec  (  0.9%)
Orbital Transformation      ....       0.000 sec  (  0.0%)
Orbital Orthonormalization  ....       0.000 sec  (  0.0%)
DIIS solution               ....       0.204 sec  (  0.9%)
SOSCF solution              ....       0.256 sec  (  1.1%)
Grid generation             ....       1.028 sec  (  4.4%)

Maximum memory used throughout the entire SCF-calculation: 75.8 MB


-------------------------------------------------------------------------------
                          DFT DISPERSION CORRECTION                            
                                                                               
                              DFTD3 V3.1  Rev 1                                
                          USING Becke-Johnson damping                          
-------------------------------------------------------------------------------
The PBE0 functional is recognized
Active option DFTDOPT                   ...         4   

molecular C6(AA) [au] = 2579.034246 


            DFT-D V3
 parameters
 s6 scaling factor         :     1.0000 
 a1 scaling factor         :     0.4145 
 s8 scaling factor         :     1.2177 
 a2 scaling factor         :     4.8593 
 ad hoc parameters k1-k3   :    16.0000     1.3333    -4.0000 

 Edisp/kcal,au: -7.726803658756  -0.012313444105 
 E6   /kcal   :  -4.735382587 
 E8   /kcal   :  -2.991421071 
 % E8         :  38.714858090 

-------------------------   ----------------
Dispersion correction           -0.012313444
-------------------------   ----------------


-------------------------   --------------------
FINAL SINGLE POINT ENERGY      -398.957742133136
-------------------------   --------------------



           ************************************************************
           *        Program running with 24 parallel MPI-processes    *
           *              working on a common directory               *
           ************************************************************
------------------------------------------------------------------------------
                         ORCA SCF GRADIENT CALCULATION
------------------------------------------------------------------------------

 ... reading COSX grid (gridx3)
Gradient of the Kohn-Sham DFT energy:
Kohn-Sham wavefunction type      ... RKS
Hartree-Fock exchange scaling    ...    0.250
Number of operators              ...    1
Number of atoms                  ...   13
Basis set dimensions             ...  303
Integral neglect threshold       ... 2.5e-11
Integral primitive cutoff        ... 2.5e-12
SHARK Integral package           ... ON

Nuc. rep. gradient       (SHARK) ... done (  0.0 sec)
HCore & Overlap gradient (SHARK) ... done (  0.0 sec)
RI-J gradient            (SHARK) ... done (  0.4 sec)
COSX-gradient                    ... done (  1.6 sec)
Exchange-correlation gradient    ... done
Dispersion correction            ... done

------------------
CARTESIAN GRADIENT
------------------

   1   C   :   -0.000000081   -0.000037733    0.000326806
   2   C   :    0.000000118   -0.000007896   -0.000051377
   3   C   :    0.000000078    0.000062399   -0.000123943
   4   H   :   -0.000000018    0.000032234   -0.000013746
   5   H   :   -0.000000001   -0.000043703    0.000008241
   6   C   :   -0.000000086   -0.000091088   -0.000197096
   7   C   :   -0.000000070    0.000183796    0.000026054
   8   H   :    0.000000016    0.000030553    0.000037164
   9   H   :    0.000000005   -0.000102732   -0.000083196
  10   C   :    0.000000032   -0.000047737    0.000152002
  11   O   :    0.000000006    0.000014230   -0.000216506
  12   C   :    0.000000028    0.000011304    0.000009584
  13   N   :   -0.000000018    0.000008261    0.000041948

Difference to translation invariance:
           :    0.0000000072    0.0000118879   -0.0000840651

Difference to rotation invariance:
           :    0.0002421707   -0.0000000381   -0.0000000219

Norm of the cartesian gradient     ...    0.0005561397
RMS gradient                       ...    0.0000890536
MAX gradient                       ...    0.0003268057

-------
TIMINGS
-------

Total SCF gradient time            ...        3.990 sec

One electron gradient       ....       0.035 sec  (  0.9%)
RI-J Coulomb gradient       ....       0.381 sec  (  9.5%)
COSX gradient               ....       1.613 sec  ( 40.4%)
XC gradient                 ....       0.699 sec  ( 17.5%)
CPCM gradient               ....       0.177 sec  (  4.4%)
   A-Matrix (El+Nuc)        ....       0.053 sec  (  1.3%)
   Potential                ....       0.124 sec  (  3.1%)

Maximum memory used throughout the entire SCFGRAD-calculation: 49.2 MB
------------------------------------------------------------------------------
                         ORCA GEOMETRY RELAXATION STEP
------------------------------------------------------------------------------

Reading the OPT-File                    .... done
Getting information on internals        .... done
Copying old internal coords+grads       .... done
Making the new internal coordinates     .... (new redundants).... done
Validating the new internal coordinates .... (new redundants).... done
Calculating the B-matrix                .... done
Calculating the G,G- and P matrices     .... done
Transforming gradient to internals      .... done
Projecting the internal gradient        .... done
Number of atoms                         ....  13
Number of internal coordinates          ....  57
Current Energy                          ....  -398.957742133 Eh
Current gradient norm                   ....     0.000556140 Eh/bohr
Maximum allowed component of the step   ....  0.200
Current trust radius                    ....  0.300
Evaluating the initial hessian          ....  (Almloef) done
Projecting the Hessian                  .... done
Forming the augmented Hessian           .... done
Diagonalizing the augmented Hessian     .... done
Last element of RFO vector              ....  0.999999534
Lowest eigenvalues of augmented Hessian:
 -0.000000440  0.018853595  0.020682705  0.023574700  0.024233740
Length of the computed step             ....  0.000965356
The final length of the internal step   ....  0.000965356
Converting the step to cartesian space:
 Initial RMS(Int)=    0.0001278645
Transforming coordinates:
 Iter   0:  RMS(Cart)=    0.0002376668 RMS(Int)=    1.6644563990
 Iter   1:  RMS(Cart)=    0.0000000273 RMS(Int)=    0.0000000186
done
Storing new coordinates                 .... done

                                .--------------------.
          ----------------------|Geometry convergence|-------------------------
          Item                value                   Tolerance       Converged
          ---------------------------------------------------------------------
          RMS gradient        0.0000632961            0.0000300000      NO
          MAX gradient        0.0002094476            0.0001000000      NO
          RMS step            0.0001278645            0.0006000000      YES
          MAX step            0.0003602824            0.0010000000      YES
          ........................................................
          Max(Bonds)      0.0002      Max(Angles)    0.02
          Max(Dihed)        0.00      Max(Improp)    0.00
          ---------------------------------------------------------------------

The optimization has not yet converged - more geometry cycles are needed


    ---------------------------------------------------------------------------
                         Redundant Internal Coordinates
                            (Angstroem and degrees)

        Definition                    Value    dE/dq     Step     New-Value
    ----------------------------------------------------------------------------
     1. B(C   1,C   0)                1.4077 -0.000129  0.0001    1.4078   
     2. B(C   2,C   0)                1.4076 -0.000168  0.0002    1.4078   
     3. B(H   3,C   1)                1.0854  0.000031 -0.0000    1.0853   
     4. B(H   4,C   2)                1.0854  0.000032 -0.0000    1.0853   
     5. B(C   5,C   1)                1.3703 -0.000142  0.0001    1.3704   
     6. B(C   6,C   2)                1.3704 -0.000102  0.0001    1.3705   
     7. B(H   7,C   5)                1.0857  0.000047 -0.0001    1.0856   
     8. B(H   8,C   6)                1.0857  0.000047 -0.0001    1.0856   
     9. B(C   9,C   6)                1.4369 -0.000056  0.0001    1.4370   
    10. B(C   9,C   5)                1.4371  0.000008 -0.0000    1.4371   
    11. B(O  10,C   9)                1.2630 -0.000209  0.0001    1.2631   
    12. B(C  11,C   0)                1.4083 -0.000065  0.0001    1.4083   
    13. B(N  12,C  11)                1.1594 -0.000049  0.0000    1.1594   
[...]
     17      -0.000000   0.036594   0.000001   0.000000  -0.000000  -0.009941
     18       0.073884   0.000008  -0.145729  -0.060331  -0.070753   0.000000
     19      -0.000000   0.301298   0.000008   0.000000  -0.000000   0.171439
     20       0.000000   0.016099   0.000001   0.000000   0.000000  -0.021759
     21       0.571118  -0.000050   0.532010   0.348514  -0.430535   0.000001
     22       0.000000  -0.324564  -0.000009  -0.000000  -0.000001  -0.384080
     23      -0.000000   0.051470   0.000004   0.000000  -0.000000   0.391203
     24      -0.571175  -0.000053   0.530936   0.373563   0.409511  -0.000000
     25      -0.000000   0.327033   0.000009   0.000000  -0.000000   0.408386
     26       0.000000   0.029747   0.000004   0.000000   0.000001   0.360246
     27      -0.000148  -0.000016   0.281569   0.000110  -0.000011  -0.000000
     28      -0.000000  -0.004957  -0.000000  -0.000000   0.000001  -0.000586
     29       0.000000  -0.134550  -0.000002   0.000001   0.000000  -0.013298
     30       0.000076   0.000005  -0.071497  -0.002953   0.000073   0.000000
     31       0.000000  -0.007664  -0.000000  -0.000000  -0.000000   0.001115
     32       0.000000  -0.227441  -0.000009  -0.000002   0.000000   0.030759
     33       0.000079   0.000002  -0.022114   0.018434  -0.000520  -0.000000
     34       0.000000   0.001173   0.000000  -0.000000  -0.000000  -0.000189
     35      -0.000000   0.032299   0.000001   0.000000   0.000000  -0.009531
     36      -0.000006  -0.000002   0.005468  -0.003875   0.000098   0.000000
     37      -0.000000   0.001783   0.000000   0.000000   0.000000  -0.000599
     38      -0.000000   0.049150   0.000001   0.000000   0.000000  -0.017647
                 24         25         26         27         28         29    
      0      -0.000000   0.000000   0.000000  -0.000000  -0.000000   0.000000
      1      -0.072148  -0.002404   0.013131   0.031832  -0.251377  -0.006201
      2       0.002259  -0.053412   0.384410   0.001268   0.009484  -0.142800
      3      -0.000000  -0.000000  -0.000000   0.000000  -0.000000  -0.000001
      4       0.032453   0.045502   0.033724  -0.052274   0.047600   0.103814
      5      -0.044618   0.030941   0.057446  -0.054329   0.004773  -0.012713
      6       0.000000  -0.000000  -0.000000  -0.000000   0.000000  -0.000001
      7       0.037224  -0.042370  -0.028458  -0.048442   0.047468  -0.103661
      8       0.041449   0.034567   0.059192   0.058816  -0.007618  -0.003768
      9       0.000002   0.000001  -0.000001  -0.000001   0.000002  -0.000002
     10      -0.195005   0.313040  -0.154619   0.148051   0.378410  -0.163010
     11      -0.420565   0.455213  -0.218764   0.274298   0.522657  -0.474385
     12      -0.000001   0.000001  -0.000001   0.000001  -0.000001  -0.000001
     13      -0.159905  -0.284185   0.133590   0.128728   0.340885   0.133477
     14       0.425236   0.484717  -0.216432  -0.282536  -0.545559  -0.487671
     15       0.000000   0.000000  -0.000000  -0.000000   0.000000   0.000002
     16       0.055167   0.007809  -0.094127  -0.061955   0.085422  -0.085808
     17       0.042652  -0.026628  -0.061545  -0.005298  -0.062631   0.147842
     18      -0.000000   0.000000  -0.000000   0.000000  -0.000000   0.000002
     19       0.051469  -0.008833   0.090798  -0.060680   0.089257   0.095272
     20      -0.045856  -0.027039  -0.069345   0.007882   0.055540   0.139716
     21      -0.000001  -0.000001  -0.000001   0.000001  -0.000001  -0.000001
     22      -0.179110   0.193288   0.154588  -0.329982  -0.034637   0.189817
     23       0.499173  -0.378995  -0.555529   0.492172   0.181033  -0.357117
     24       0.000001  -0.000001   0.000000  -0.000001   0.000001  -0.000001
     25      -0.208879  -0.221122  -0.186698  -0.366228  -0.047598  -0.214551
     26      -0.477137  -0.370687  -0.537629  -0.476304  -0.179775  -0.345348
     27       0.000000  -0.000000   0.000001   0.000000   0.000000  -0.000001
     28      -0.068705  -0.000240  -0.003036   0.270407  -0.098969   0.006573
     29       0.002246   0.019098  -0.007867  -0.009334   0.003226   0.181697
     30      -0.000000   0.000000   0.000000  -0.000000  -0.000000   0.000000
     31       0.009999  -0.000596   0.000227  -0.031484   0.001811  -0.005724
     32      -0.000014  -0.021036  -0.004338   0.001180   0.000172  -0.170966
     33      -0.000000   0.000000  -0.000001   0.000000  -0.000000  -0.000000
     34       0.018521   0.000545  -0.002060  -0.003729   0.034734   0.000716
     35      -0.000621   0.012922  -0.058416  -0.000160  -0.001245   0.013087
     36      -0.000000  -0.000000   0.000001   0.000000  -0.000000   0.000001
     37      -0.004248   0.000598  -0.004987   0.001697  -0.008585   0.001263
     38       0.000228   0.018527  -0.145632  -0.000906   0.000049   0.038040
                 30         31         32         33         34         35    
      0       0.000000   0.000000  -0.000000   0.000000   0.000001  -0.000000
      1      -0.130557  -0.346559  -0.005334   0.006801   0.003998   0.000503
      2       0.004704   0.011934  -0.178437   0.189462   0.117732   0.001566
      3      -0.000000   0.000000   0.000004   0.000001  -0.000001   0.000000
      4       0.036992   0.240860   0.083854  -0.100059   0.011564  -0.043689
      5      -0.261327   0.180658   0.102075  -0.315027   0.027064   0.024478
      6       0.000000  -0.000000   0.000003   0.000001  -0.000001   0.000000
      7       0.055692   0.227819  -0.077628   0.077694  -0.009573   0.012635
      8       0.257304  -0.196844   0.106380  -0.322088   0.027778   0.005134
      9       0.000002  -0.000001   0.000003   0.000001  -0.000001   0.000000
     10       0.312648  -0.131851  -0.172650   0.309903  -0.006620   0.503453
     11       0.122755  -0.429085  -0.318786   0.326552  -0.002248  -0.311004
     12      -0.000001   0.000001   0.000001   0.000001  -0.000001  -0.000000
     13       0.301634  -0.101480   0.148396  -0.287222   0.006405  -0.141978
     14      -0.140176   0.436471  -0.330288   0.346653  -0.002175  -0.074230
     15       0.000000  -0.000000  -0.000004  -0.000001   0.000000  -0.000000
     16      -0.065447  -0.176225  -0.062095  -0.014881   0.004608   0.057854
     17       0.324936   0.006727   0.090798   0.289227  -0.024036   0.029406
     18      -0.000000   0.000000  -0.000004  -0.000001   0.000000  -0.000000
     19      -0.088157  -0.176238   0.069617   0.035464  -0.006307  -0.013457
     20      -0.319187   0.005781   0.088828   0.289237  -0.023642   0.007988
     21      -0.000001  -0.000000   0.000001   0.000000  -0.000000   0.000000
     22       0.302340  -0.045571   0.164712   0.232561  -0.007024  -0.676125
     23      -0.326496  -0.272115  -0.393465  -0.139884   0.000549  -0.353778
     24       0.000001  -0.000000   0.000002   0.000000   0.000000   0.000000
     25       0.325410  -0.026380  -0.194601  -0.244058   0.006841   0.159122
     26       0.307618   0.275362  -0.385663  -0.126437  -0.000009  -0.096753
     27      -0.000000  -0.000000   0.000002   0.000001   0.000000   0.000000
     28       0.023741   0.281919  -0.016290  -0.005050   0.000898  -0.000706
     29      -0.003902  -0.010707  -0.464950  -0.144821   0.024944   0.002253
     30      -0.000000  -0.000000   0.000000   0.000000   0.000000   0.000000
     31       0.028079  -0.031589   0.008075   0.000152  -0.000505   0.000002
     32       0.001058   0.001642   0.242075   0.008296  -0.014073  -0.000333
     33      -0.000000  -0.000000   0.000000  -0.000000  -0.000000  -0.000000
     34       0.032635   0.025579  -0.000211  -0.000892  -0.027328  -0.000117
     35      -0.001211  -0.000872  -0.003035  -0.024329  -0.804526  -0.000046
     36      -0.000000  -0.000000  -0.000002  -0.000000   0.000000   0.000000
     37      -0.005605  -0.008110   0.001607  -0.000186   0.019590   0.000022
     38       0.000274   0.000209   0.047804  -0.005881   0.577747  -0.000168
                 36         37         38    
      0       0.000000   0.000000  -0.000000
      1       0.000653  -0.003453   0.000317
      2      -0.000938  -0.000196  -0.002801
      3      -0.000000   0.000000   0.000000
      4      -0.009298   0.046321   0.035766
      5       0.006134  -0.031502  -0.023794
      6      -0.000000  -0.000000   0.000000
      7      -0.043309   0.038909  -0.048240
      8      -0.020779   0.022735  -0.027600
      9      -0.000000  -0.000000  -0.000000
     10       0.112469  -0.532061  -0.406763
     11      -0.069905   0.334212   0.254683
     12       0.000000   0.000000   0.000000
     13       0.503639  -0.446481   0.548845
     14       0.264890  -0.239165   0.293017
     15       0.000000  -0.000000  -0.000000
     16       0.015853   0.035822   0.029890
     17       0.008179   0.021919   0.017608
     18       0.000000   0.000000  -0.000000
     19       0.057010   0.025758  -0.035046
     20      -0.034271  -0.018574   0.024318
     21       0.000000   0.000000   0.000000
     22      -0.182845  -0.411780  -0.342074
     23      -0.096880  -0.218360  -0.180328
     24      -0.000000  -0.000000   0.000000
     25      -0.664335  -0.298175   0.403251
     26       0.409031   0.185898  -0.249935
     27      -0.000000   0.000000   0.000000
     28      -0.001418  -0.002292   0.000379
     29      -0.001308   0.000511   0.003354
     30      -0.000000  -0.000000  -0.000000
     31       0.000030   0.000209  -0.000063
     32       0.000204  -0.000133  -0.001017
     33      -0.000000   0.000000   0.000000
     34      -0.000199   0.000449  -0.000076
     35       0.000048  -0.000047  -0.000227
     36      -0.000000   0.000000  -0.000000
     37       0.000051  -0.000077   0.000030
     38       0.000088   0.000067   0.000550


-----------
IR SPECTRUM
-----------

 Mode   freq       eps      Int      T**2         TX        TY        TZ
       cm**-1   L/(mol*cm) km/mol    a.u.
----------------------------------------------------------------------------
  6:     95.99   0.003674   18.57  0.011945  ( 0.109295 -0.000002 -0.000008)
  7:    159.10   0.004235   21.40  0.008306  (-0.000000  0.091099 -0.002593)
  8:    232.04   0.000018    0.09  0.000025  ( 0.004978  0.000002  0.000020)
  9:    417.30   0.003664   18.52  0.002740  ( 0.000001 -0.001815 -0.052316)
 10:    420.16   0.000000    0.00  0.000000  ( 0.000271 -0.000001 -0.000003)
 11:    449.58   0.001314    6.64  0.000912  (-0.000000  0.030190 -0.000614)
 12:    493.90   0.001890    9.55  0.001194  ( 0.034553 -0.000001 -0.000006)
 13:    569.89   0.008763   44.28  0.004798  (-0.069270 -0.000000 -0.000006)
 14:    574.73   0.000268    1.35  0.000145  (-0.000000  0.012054 -0.000201)
 15:    661.51   0.000004    0.02  0.000002  ( 0.000000 -0.001345  0.000111)
 16:    725.63   0.011880   60.04  0.005109  ( 0.000001  0.002214  0.071443)
 17:    741.02   0.000746    3.77  0.000314  (-0.017729 -0.000001 -0.000000)
 18:    806.50   0.000000    0.00  0.000000  (-0.000021 -0.000000  0.000001)
 19:    842.56   0.000867    4.38  0.000321  (-0.000004 -0.000782 -0.017906)
 20:    860.45   0.022072  111.54  0.008005  ( 0.089471 -0.000001 -0.000009)
 21:    970.58   0.000357    1.80  0.000115  (-0.010710 -0.000000 -0.000000)
 22:    973.21   0.000001    0.00  0.000000  ( 0.000416 -0.000002 -0.000000)
 23:    998.58   0.002577   13.02  0.000805  (-0.000000 -0.000723 -0.028370)
 24:   1109.86   0.005098   25.76  0.001433  ( 0.000000 -0.037852  0.000754)
 25:   1166.65   0.045123  228.03  0.012070  (-0.000000  0.003473  0.109807)
 26:   1246.93   0.018700   94.50  0.004680  ( 0.000000 -0.002802 -0.068352)
 27:   1277.86   0.000039    0.20  0.000010  (-0.000000  0.003083 -0.000122)
 28:   1325.66   0.002518   12.73  0.000593  ( 0.000000  0.024330 -0.000907)
 29:   1428.41   0.056217  284.10  0.012282  (-0.000000  0.003330  0.110772)
 30:   1495.65   0.000960    4.85  0.000200  ( 0.000000 -0.014053 -0.001672)
 31:   1543.13   0.012507   63.21  0.002529  ( 0.000000  0.050247 -0.002119)
 32:   1567.72   0.195194  986.43  0.038855  ( 0.000000 -0.006863 -0.196996)
 33:   1638.87   0.187791  949.02  0.035758  ( 0.000000 -0.006479 -0.188987)
 34:   2286.06   0.190118  960.78  0.025952  ( 0.000000 -0.005646 -0.160999)
 35:   3173.51   0.004874   24.63  0.000479  (-0.000000  0.004340  0.021458)
 36:   3173.98   0.002169   10.96  0.000213  (-0.000000  0.006214 -0.013214)
 37:   3191.05   0.007869   39.77  0.000770  ( 0.000000  0.027740  0.000090)
 38:   3193.66   0.000560    2.83  0.000055  ( 0.000000 -0.003078  0.006729)

* The epsilon (eps) is given for a Dirac delta lineshape.
** The dipole moment derivative (T) already includes vibrational overlap.

The first frequency considered to be a vibration is 6
The total number of vibrations considered is 33


--------------------------
THERMOCHEMISTRY AT 298.15K
--------------------------

Temperature         ... 298.15 K
Pressure            ... 1.00 atm
Total Mass          ... 118.12 AMU

Throughout the following assumptions are being made:
  (1) The electronic state is orbitally nondegenerate
  (2) There are no thermally accessible electronically excited states
  (3) Hindered rotations indicated by low frequency modes are not
      treated as such but are treated as vibrations and this may
      cause some error
  (4) All equations used are the standard statistical mechanics
      equations for an ideal gas
  (5) All vibrations are strictly harmonic

freq.      95.99  E(vib)   ...       0.47 
freq.     159.10  E(vib)   ...       0.39 
freq.     232.04  E(vib)   ...       0.32 
freq.     417.30  E(vib)   ...       0.18 
freq.     420.16  E(vib)   ...       0.18 
freq.     449.58  E(vib)   ...       0.17 
freq.     493.90  E(vib)   ...       0.14 
freq.     569.89  E(vib)   ...       0.11 
freq.     574.73  E(vib)   ...       0.11 
freq.     661.51  E(vib)   ...       0.08 
freq.     725.63  E(vib)   ...       0.06 
freq.     741.02  E(vib)   ...       0.06 
freq.     806.50  E(vib)   ...       0.05 
freq.     842.56  E(vib)   ...       0.04 
freq.     860.45  E(vib)   ...       0.04 
freq.     970.58  E(vib)   ...       0.03 
freq.     973.21  E(vib)   ...       0.03 
freq.     998.58  E(vib)   ...       0.02 
freq.    1109.86  E(vib)   ...       0.02 
freq.    1166.65  E(vib)   ...       0.01 
freq.    1246.93  E(vib)   ...       0.01 
freq.    1277.86  E(vib)   ...       0.01 
freq.    1325.66  E(vib)   ...       0.01 
freq.    1428.41  E(vib)   ...       0.00 
freq.    1495.65  E(vib)   ...       0.00 
freq.    1543.13  E(vib)   ...       0.00 
freq.    1567.72  E(vib)   ...       0.00 
freq.    1638.87  E(vib)   ...       0.00 
freq.    2286.06  E(vib)   ...       0.00 
freq.    3173.51  E(vib)   ...       0.00 
freq.    3173.98  E(vib)   ...       0.00 
freq.    3191.05  E(vib)   ...       0.00 
freq.    3193.66  E(vib)   ...       0.00 

------------
INNER ENERGY
------------

The inner energy is: U= E(el) + E(ZPE) + E(vib) + E(rot) + E(trans)
    E(el)   - is the total energy from the electronic structure calculation
              = E(kin-el) + E(nuc-el) + E(el-el) + E(nuc-nuc)
    E(ZPE)  - the the zero temperature vibrational energy from the frequency calculation
    E(vib)  - the the finite temperature correction to E(ZPE) due to population
              of excited vibrational states
    E(rot)  - is the rotational thermal energy
    E(trans)- is the translational thermal energy

Summary of contributions to the inner energy U:
Electronic energy                ...   -398.95774252 Eh
Zero point energy                ...      0.09069782 Eh      56.91 kcal/mol
Thermal vibrational correction   ...      0.00406628 Eh       2.55 kcal/mol
Thermal rotational correction    ...      0.00141627 Eh       0.89 kcal/mol
Thermal translational correction ...      0.00141627 Eh       0.89 kcal/mol
-----------------------------------------------------------------------
Total thermal energy                   -398.86014588 Eh


Summary of corrections to the electronic energy:
(perhaps to be used in another calculation)
Total thermal correction                  0.00689882 Eh       4.33 kcal/mol
Non-thermal (ZPE) correction              0.09069782 Eh      56.91 kcal/mol
-----------------------------------------------------------------------
Total correction                          0.09759664 Eh      61.24 kcal/mol


--------
ENTHALPY
--------

The enthalpy is H = U + kB*T
                kB is Boltzmann's constant
Total free energy                 ...   -398.86014588 Eh 
Thermal Enthalpy correction       ...      0.00094421 Eh       0.59 kcal/mol
-----------------------------------------------------------------------
Total Enthalpy                    ...   -398.85920167 Eh


Note: Rotational entropy computed according to Herzberg 
Infrared and Raman Spectra, Chapter V,1, Van Nostrand Reinhold, 1945 
Point Group:  Cs, Symmetry Number:   1  
Rotational constants in cm-1:     0.189157     0.034055     0.028859 

Vibrational entropy computed according to the QRRHO of S. Grimme
Chem.Eur.J. 2012 18 9955


-------
ENTROPY
-------

The entropy contributions are T*S = T*(S(el)+S(vib)+S(rot)+S(trans))
     S(el)   - electronic entropy
     S(vib)  - vibrational entropy
     S(rot)  - rotational entropy
     S(trans)- translational entropy
The entropies will be listed as multiplied by the temperature to get
units of energy

Electronic entropy                ...      0.00000000 Eh      0.00 kcal/mol
Vibrational entropy               ...      0.00658237 Eh      4.13 kcal/mol
Rotational entropy                ...      0.01356620 Eh      8.51 kcal/mol
Translational entropy             ...      0.01910704 Eh     11.99 kcal/mol
-----------------------------------------------------------------------
Final entropy term                ...      0.03925561 Eh     24.63 kcal/mol

In case the symmetry of your molecule has not been determined correctly
or in case you have a reason to use a different symmetry number we print 
out the resulting rotational entropy values for sn=1,12 :
 --------------------------------------------------------
|  sn= 1 | S(rot)=       0.01356620 Eh      8.51 kcal/mol|
|  sn= 2 | S(rot)=       0.01291175 Eh      8.10 kcal/mol|
|  sn= 3 | S(rot)=       0.01252891 Eh      7.86 kcal/mol|
|  sn= 4 | S(rot)=       0.01225729 Eh      7.69 kcal/mol|
|  sn= 5 | S(rot)=       0.01204660 Eh      7.56 kcal/mol|
|  sn= 6 | S(rot)=       0.01187446 Eh      7.45 kcal/mol|
|  sn= 7 | S(rot)=       0.01172891 Eh      7.36 kcal/mol|
|  sn= 8 | S(rot)=       0.01160283 Eh      7.28 kcal/mol|
|  sn= 9 | S(rot)=       0.01149163 Eh      7.21 kcal/mol|
|  sn=10 | S(rot)=       0.01139215 Eh      7.15 kcal/mol|
|  sn=11 | S(rot)=       0.01130216 Eh      7.09 kcal/mol|
|  sn=12 | S(rot)=       0.01122000 Eh      7.04 kcal/mol|
 --------------------------------------------------------


-------------------
GIBBS FREE ENERGY
-------------------

The Gibbs free energy is G = H - T*S

Total enthalpy                    ...   -398.85920167 Eh 
Total entropy correction          ...     -0.03925561 Eh    -24.63 kcal/mol
-----------------------------------------------------------------------
Final Gibbs free energy         ...   -398.89845728 Eh

For completeness - the Gibbs free energy minus the electronic energy
G-E(el)                           ...      0.05928524 Eh     37.20 kcal/mol


Timings for individual modules:

Sum of individual times         ...      204.554 sec (=   3.409 min)
GTO integral calculation        ...        3.848 sec (=   0.064 min)   1.9 %
SCF iterations                  ...       48.235 sec (=   0.804 min)  23.6 %
SCF Gradient evaluation         ...        9.323 sec (=   0.155 min)   4.6 %
Geometry relaxation             ...        0.164 sec (=   0.003 min)   0.1 %
Analytical frequency calculation...      142.984 sec (=   2.383 min)  69.9 %
                             ****ORCA TERMINATED NORMALLY****
TOTAL RUN TIME: 0 days 0 hours 3 minutes 30 seconds 897 msec
