
                                 *****************
                                 * O   R   C   A *
                                 *****************

                                            #,                                       
                                            ###                                      
                                            ####                                     
                                            #####                                    
                                            ######                                   
                                           ########,                                 
                                     ,,################,,,,,                         
                               ,,#################################,,                 
                          ,,##########################################,,             
                       ,#########################################, ''#####,          
                    ,#############################################,,   '####,        
                  ,##################################################,,,,####,       
                ,###########''''           ''''###############################       
              ,#####''   ,,,,##########,,,,          '''####'''          '####       
            ,##' ,,,,###########################,,,                        '##       
           ' ,,###''''                  '''############,,,                           
         ,,##''                                '''############,,,,        ,,,,,,###''
      ,#''                                            '''#######################'''  
     '                                                          ''''####''''         
             ,#######,   #######,   ,#######,      ##                                
            ,#'     '#,  ##    ##  ,#'     '#,    #''#        ######   ,####,        
            ##       ##  ##   ,#'  ##            #'  '#       #        #'  '#        
            ##       ##  #######   ##           ,######,      #####,   #    #        
            '#,     ,#'  ##    ##  '#,     ,#' ,#      #,         ##   #,  ,#        
             '#######'   ##     ##  '#######'  #'      '#     #####' # '####'        



                  #######################################################
                  #                        -***-                        #
                  #          Department of theory and spectroscopy      #
                  #    Directorship and core code : Frank Neese         #
                  #        Max Planck Institute fuer Kohlenforschung    #
                  #                Kaiser Wilhelm Platz 1               #
                  #                 D-45470 Muelheim/Ruhr               #
                  #                      Germany                        #
                  #                                                     #
                  #                  All rights reserved                #
                  #                        -***-                        #
                  #######################################################


                         Program Version 5.0.4 -  RELEASE  -


 With contributions from (in alphabetic order):
   Daniel Aravena         : Magnetic Suceptibility
   Michael Atanasov       : Ab Initio Ligand Field Theory (pilot matlab implementation)
   Alexander A. Auer      : GIAO ZORA, VPT2 properties, NMR spectrum
   Ute Becker             : Parallelization
   Giovanni Bistoni       : ED, misc. LED, open-shell LED, HFLD
   Martin Brehm           : Molecular dynamics
   Dmytro Bykov           : SCF Hessian
   Vijay G. Chilkuri      : MRCI spin determinant printing, contributions to CSF-ICE
   Dipayan Datta          : RHF DLPNO-CCSD density
   Achintya Kumar Dutta   : EOM-CC, STEOM-CC
   Dmitry Ganyushin       : Spin-Orbit,Spin-Spin,Magnetic field MRCI
   Miquel Garcia          : C-PCM and meta-GGA Hessian, CC/C-PCM, Gaussian charge scheme
   Yang Guo               : DLPNO-NEVPT2, F12-NEVPT2, CIM, IAO-localization
   Andreas Hansen         : Spin unrestricted coupled pair/coupled cluster methods
   Benjamin Helmich-Paris : MC-RPA, TRAH-SCF, COSX integrals
   Lee Huntington         : MR-EOM, pCC
   Robert Izsak           : Overlap fitted RIJCOSX, COSX-SCS-MP3, EOM
   Marcus Kettner         : VPT2
   Christian Kollmar      : KDIIS, OOCD, Brueckner-CCSD(T), CCSD density, CASPT2, CASPT2-K
   Simone Kossmann        : Meta GGA functionals, TD-DFT gradient, OOMP2, MP2 Hessian
   Martin Krupicka        : Initial AUTO-CI
   Lucas Lang             : DCDCAS
   Marvin Lechner         : AUTO-CI (C++ implementation), FIC-MRCC
   Dagmar Lenk            : GEPOL surface, SMD
   Dimitrios Liakos       : Extrapolation schemes; Compound Job, initial MDCI parallelization
   Dimitrios Manganas     : Further ROCIS development; embedding schemes
   Dimitrios Pantazis     : SARC Basis sets
   Anastasios Papadopoulos: AUTO-CI, single reference methods and gradients
   Taras Petrenko         : DFT Hessian,TD-DFT gradient, ASA, ECA, R-Raman, ABS, FL, XAS/XES, NRVS
   Peter Pinski           : DLPNO-MP2, DLPNO-MP2 Gradient
   Christoph Reimann      : Effective Core Potentials
   Marius Retegan         : Local ZFS, SOC
   Christoph Riplinger    : Optimizer, TS searches, QM/MM, DLPNO-CCSD(T), (RO)-DLPNO pert. Triples
   Tobias Risthaus        : Range-separated hybrids, TD-DFT gradient, RPA, STAB
   Michael Roemelt        : Original ROCIS implementation
   Masaaki Saitow         : Open-shell DLPNO-CCSD energy and density
   Barbara Sandhoefer     : DKH picture change effects
   Avijit Sen             : IP-ROCIS
   Kantharuban Sivalingam : CASSCF convergence, NEVPT2, FIC-MRCI
   Bernardo de Souza      : ESD, SOC TD-DFT
   Georgi Stoychev        : AutoAux, RI-MP2 NMR, DLPNO-MP2 response
   Willem Van den Heuvel  : Paramagnetic NMR
   Boris Wezisla          : Elementary symmetry handling
   Frank Wennmohs         : Technical directorship


 We gratefully acknowledge several colleagues who have allowed us to
 interface, adapt or use parts of their codes:
   Stefan Grimme, W. Hujo, H. Kruse, P. Pracht,  : VdW corrections, initial TS optimization,
                  C. Bannwarth, S. Ehlert          DFT functionals, gCP, sTDA/sTD-DF
   Ed Valeev, F. Pavosevic, A. Kumar             : LibInt (2-el integral package), F12 methods
   Garnet Chan, S. Sharma, J. Yang, R. Olivares  : DMRG
   Ulf Ekstrom                                   : XCFun DFT Library
   Mihaly Kallay                                 : mrcc  (arbitrary order and MRCC methods)
   Jiri Pittner, Ondrej Demel                    : Mk-CCSD
   Frank Weinhold                                : gennbo (NPA and NBO analysis)
   Christopher J. Cramer and Donald G. Truhlar   : smd solvation model
   Lars Goerigk                                  : TD-DFT with DH, B97 family of functionals
   V. Asgeirsson, H. Jonsson                     : NEB implementation
   FAccTs GmbH                                   : IRC, NEB, NEB-TS, DLPNO-Multilevel, CI-OPT
                                                   MM, QMMM, 2- and 3-layer-ONIOM, Crystal-QMMM,
                                                   LR-CPCM, SF, NACMEs, symmetry and pop. for TD-DFT,
                                                   nearIR, NL-DFT gradient (VV10), updates on ESD,
                                                   ML-optimized integration grids
   S Lehtola, MJT Oliveira, MAL Marques          : LibXC Library
   Liviu Ungur et al                             : ANISO software


 Your calculation uses the libint2 library for the computation of 2-el integrals
 For citations please refer to: http://libint.valeyev.net

 Your ORCA version has been built with support for libXC version: 5.1.0
 For citations please refer to: https://tddft.org/programs/libxc/

 This ORCA versions uses:
   CBLAS   interface :  Fast vector & matrix operations
   LAPACKE interface :  Fast linear algebra routines
   SCALAPACK package :  Parallel linear algebra routines
   Shared memory     :  Shared parallel matrices
   BLAS/LAPACK       :  OpenBLAS 0.3.15  USE64BITINT DYNAMIC_ARCH NO_AFFINITY Haswell SINGLE_THREADED
        Core in use  :  Haswell
   Copyright (c) 2011-2014, The OpenBLAS Project


Your calculation utilizes the atom-pairwise dispersion correction
with the Becke-Johnson damping scheme (D3BJ)
Cite in your paper:
S.Grimme, S.Ehrlich, L.Goerigk, J Comput Chem, (2011), 32, 1456–1465 
S.Grimme, J.Antony, S.Ehrlich and H.Krieg, J.Chem.Phys., 132, (2010), 154104 
   

================================================================================

----- Orbital basis set information -----
Your calculation utilizes the basis: def2-TZVP
   F. Weigend and R. Ahlrichs, Phys. Chem. Chem. Phys. 7, 3297 (2005).

----- AuxJ basis set information -----
Your calculation utilizes the auxiliary basis: def2/J
   F. Weigend, Phys. Chem. Chem. Phys. 8, 1057 (2006).

================================================================================
                                        WARNINGS
                       Please study these warnings very carefully!
================================================================================


WARNING: Geometry Optimization
  ===> : Switching off AutoStart
         For restart on a previous wavefunction, please use MOREAD

INFO   : the flag for use of the SHARK integral package has been found!

================================================================================
                                       INPUT FILE
================================================================================
NAME = CN_PhenOH/CN_PhenOH.inp
|  1> %pal nprocs 24 end
|  2> %maxcore 3500
|  3> ! PBE0 D3BJ def2-TZVP TightSCF OPT FREQ TightOpt
|  4> ! CPCM(dmso)
|  5> %scf
|  6> MaxIter 800
|  7> end
|  8> %geom
|  9> MaxIter 800
| 10> MaxStep 0.2
| 11> end
| 12> *xyz 0 1
| 13> 
| 14> C      -0.00000000     -0.54562300     -1.56723900
| 15> C      -0.00000000      0.68989600     -0.91572700
| 16> C      -0.00000000     -1.72679800     -0.81892200
| 17> H       0.00000000      1.60602500     -1.49363300
| 18> H       0.00000000     -2.68476600     -1.32447400
| 19> C       0.00000000      0.74325500      0.46223600
| 20> C      -0.00000000     -1.67342400      0.55798600
| 21> H      -0.00000000      1.69988100      0.97372500
| 22> H       0.00000000     -2.58217900      1.14758500
| 23> C       0.00000000     -0.43744100      1.20450400
| 24> O       0.00000000     -0.43907700      2.54777800
| 25> H       0.00000000      0.46640800      2.88255700
| 26> C       0.00000000     -0.59984100     -2.98680600
| 27> N       0.00000000     -0.64218300     -4.13994200
| 28> *
| 29> 
| 30>                          ****END OF INPUT****
================================================================================

                       *****************************
                       * Geometry Optimization Run *
                       *****************************

Geometry optimization settings:
Update method            Update   .... BFGS
Choice of coordinates    CoordSys .... Z-matrix Internals
Initial Hessian          InHess   .... Almoef's Model

Convergence Tolerances:
Energy Change            TolE     ....  1.0000e-06 Eh
Max. Gradient            TolMAXG  ....  1.0000e-04 Eh/bohr
RMS Gradient             TolRMSG  ....  3.0000e-05 Eh/bohr
Max. Displacement        TolMAXD  ....  1.0000e-03 bohr
RMS Displacement         TolRMSD  ....  6.0000e-04 bohr
Strict Convergence                ....  False
------------------------------------------------------------------------------
                        ORCA OPTIMIZATION COORDINATE SETUP
------------------------------------------------------------------------------

The optimization will be done in new redundant internal coordinates
Making redundant internal coordinates   ...  (new redundants) done
Evaluating the initial hessian          ...  (Almloef) done
Evaluating the coordinates              ...  done
Calculating the B-matrix                .... done
Calculating the G-matrix                .... done
Diagonalizing the G-matrix              .... done
The first mode is                       ....   25
The number of degrees of freedom        ....   36

    -----------------------------------------------------------------
                    Redundant Internal Coordinates


    -----------------------------------------------------------------
         Definition                    Initial Value    Approx d2E/dq
    -----------------------------------------------------------------
      1. B(C   1,C   0)                  1.3968         0.609442   
      2. B(C   2,C   0)                  1.3983         0.606105   
      3. B(H   3,C   1)                  1.0832         0.369243   
      4. B(H   4,C   2)                  1.0832         0.369232   
      5. B(C   5,C   1)                  1.3790         0.650572   
      6. B(C   6,C   2)                  1.3779         0.653095   
      7. B(H   7,C   5)                  1.0848         0.367068   
      8. B(H   8,C   6)                  1.0833         0.369121   
      9. B(C   9,C   6)                  1.3949         0.613736   
     10. B(C   9,C   5)                  1.3946         0.614250   
     11. B(O  10,C   9)                  1.3433         0.664389   
     12. B(H  11,O  10)                  0.9654         0.509760   
     13. B(C  12,C   0)                  1.4206         0.558361   
     14. B(N  13,C  12)                  1.1539         1.332101   
     15. A(C   1,C   0,C  12)          119.9908         0.424676   
     16. A(C   2,C   0,C  12)          120.1685         0.424259   
     17. A(C   1,C   0,C   2)          119.8408         0.430968   
     18. A(C   0,C   1,H   3)          119.9522         0.353381   
     19. A(C   0,C   1,C   5)          120.0211         0.436492   
     20. A(H   3,C   1,C   5)          120.0267         0.357318   
     21. A(H   4,C   2,C   6)          120.0420         0.357551   
     22. A(C   0,C   2,C   6)          120.1359         0.436365   
     23. A(C   0,C   2,H   4)          119.8221         0.353051   
     24. A(H   7,C   5,C   9)          119.7111         0.353498   
     25. A(C   1,C   5,C   9)          119.9388         0.437111   
     26. A(C   1,C   5,H   7)          120.3501         0.356960   
     27. A(H   8,C   6,C   9)          119.4114         0.353782   
     28. A(C   2,C   6,C   9)          119.8330         0.437350   
     29. A(C   2,C   6,H   8)          120.7556         0.357533   
     30. A(C   5,C   9,O  10)          122.2261         0.435892   
     31. A(C   5,C   9,C   6)          120.2305         0.432549   
     32. A(C   6,C   9,O  10)          117.5434         0.435827   
     33. A(C   9,O  10,H  11)          110.2208         0.373273   
     34. L(C   0,C  12,N  13,C   1, 2) 180.0000         0.486372   
     35. L(C   0,C  12,N  13,C   1, 1) 179.9156         0.486372   
     36. D(C   5,C   1,C   0,C   2)      0.0000         0.025649   
     37. D(C   5,C   1,C   0,C  12)    180.0000         0.025649   
     38. D(H   3,C   1,C   0,C  12)      0.0000         0.025649   
     39. D(H   3,C   1,C   0,C   2)    180.0000         0.025649   
     40. D(C   6,C   2,C   0,C   1)      0.0000         0.025353   
     41. D(H   4,C   2,C   0,C   1)    180.0000         0.025353   
     42. D(H   4,C   2,C   0,C  12)      0.0000         0.025353   
     43. D(C   6,C   2,C   0,C  12)    180.0000         0.025353   
     44. D(C   9,C   5,C   1,H   3)    180.0000         0.029473   
     45. D(C   9,C   5,C   1,C   0)      0.0000         0.029473   
     46. D(H   7,C   5,C   1,H   3)      0.0000         0.029473   
     47. D(H   7,C   5,C   1,C   0)    180.0000         0.029473   
     48. D(C   9,C   6,C   2,C   0)      0.0000         0.029718   
     49. D(H   8,C   6,C   2,H   4)      0.0000         0.029718   
     50. D(H   8,C   6,C   2,C   0)    180.0000         0.029718   
     51. D(C   9,C   6,C   2,H   4)    180.0000         0.029718   
     52. D(O  10,C   9,C   6,H   8)      0.0000         0.026033   
     53. D(C   5,C   9,C   6,H   8)    180.0000         0.026033   
     54. D(C   5,C   9,C   6,C   2)      0.0000         0.026033   
     55. D(O  10,C   9,C   5,H   7)      0.0000         0.026079   
     56. D(O  10,C   9,C   5,C   1)    180.0000         0.026079   
     57. D(O  10,C   9,C   6,C   2)    180.0000         0.026033   
     58. D(C   6,C   9,C   5,H   7)    180.0000         0.026079   
     59. D(C   6,C   9,C   5,C   1)      0.0000         0.026079   
     60. D(H  11,O  10,C   9,C   6)    180.0000         0.032743   
     61. D(H  11,O  10,C   9,C   5)      0.0000         0.032743   
    -----------------------------------------------------------------

Number of atoms                         .... 14
Number of degrees of freedom            .... 61

         *************************************************************
         *                GEOMETRY OPTIMIZATION CYCLE   1            *
         *************************************************************
---------------------------------
CARTESIAN COORDINATES (ANGSTROEM)
---------------------------------
  C     -0.000000   -0.545623   -1.567239
  C     -0.000000    0.689896   -0.915727
  C     -0.000000   -1.726798   -0.818922
  H      0.000000    1.606025   -1.493633
  H      0.000000   -2.684766   -1.324474
  C      0.000000    0.743255    0.462236
  C     -0.000000   -1.673424    0.557986
  H     -0.000000    1.699881    0.973725
  H      0.000000   -2.582179    1.147585
  C      0.000000   -0.437441    1.204504
  O      0.000000   -0.439077    2.547778
  H      0.000000    0.466408    2.882557
  C      0.000000   -0.599841   -2.986806
  N      0.000000   -0.642183   -4.139942

----------------------------
CARTESIAN COORDINATES (A.U.)
----------------------------
  NO LB      ZA    FRAG     MASS         X           Y           Z
   0 C     6.0000    0    12.011   -0.000000   -1.031078   -2.961652
   1 C     6.0000    0    12.011   -0.000000    1.303715   -1.730473
   2 C     6.0000    0    12.011   -0.000000   -3.263175   -1.547538
   3 H     1.0000    0     1.008    0.000000    3.034947   -2.822557
   4 H     1.0000    0     1.008    0.000000   -5.073472   -2.502893
   5 C     6.0000    0    12.011    0.000000    1.404548    0.873499
   6 C     6.0000    0    12.011   -0.000000   -3.162313    1.054441
   7 H     1.0000    0     1.008   -0.000000    3.212310    1.840074
   8 H     1.0000    0     1.008    0.000000   -4.879611    2.168621
   9 C     6.0000    0    12.011    0.000000   -0.826644    2.276183
  10 O     8.0000    0    15.999    0.000000   -0.829735    4.814603
  11 H     1.0000    0     1.008    0.000000    0.881383    5.447243
  12 C     6.0000    0    12.011    0.000000   -1.133535   -5.644245
  13 N     7.0000    0    14.007    0.000000   -1.213550   -7.823357

--------------------------------
INTERNAL COORDINATES (ANGSTROEM)
--------------------------------
 C      0   0   0     0.000000000000     0.00000000     0.00000000
 C      1   0   0     1.396773097359     0.00000000     0.00000000
 C      1   2   0     1.398267754443   119.84075572     0.00000000
 H      2   1   3     1.083174819444   119.95223202   180.00000000
 H      3   1   2     1.083183047194   119.82214438   180.00000000
 C      2   1   3     1.378995725972   120.02107217     0.00000000
 C      3   1   2     1.377942097601   120.13585145     0.00000000
 H      6   2   1     1.084783066330   120.35009678   180.00000000
 H      7   3   1     1.083264801803   120.75556903   180.00000000
 C      6   2   1     1.394634299105   119.93877556     0.00000000
 O     10   6   2     1.343274996258   122.22611948   180.00000000
 H     11  10   6     0.965391145633   110.22075155     0.00000000
 C      1   2   3     1.420602005846   119.99076374   180.00000000
 N     13   1   2     1.153913116079   179.91564507     0.00000000

---------------------------
INTERNAL COORDINATES (A.U.)
---------------------------
 C      0   0   0     0.000000000000     0.00000000     0.00000000
 C      1   0   0     2.639518625237     0.00000000     0.00000000
 C      1   2   0     2.642343117790   119.84075572     0.00000000
 H      2   1   3     2.046903763908   119.95223202   180.00000000
 H      3   1   2     2.046919312103   119.82214438   180.00000000
 C      2   1   3     2.605924261936   120.02107217     0.00000000
 C      3   1   2     2.603933192866   120.13585145     0.00000000
 H      6   2   1     2.049942910080   120.35009678   180.00000000
 H      7   3   1     2.047073805925   120.75556903   180.00000000
 C      6   2   1     2.635476882282   119.93877556     0.00000000
 O     10   6   2     2.538421865472   122.22611948   180.00000000
 H     11  10   6     1.824324877358   110.22075155     0.00000000
 C      1   2   3     2.684548736348   119.99076374   180.00000000
 N     13   1   2     2.180579771730   179.91564507     0.00000000

---------------------
BASIS SET INFORMATION
---------------------
There are 4 groups of distinct atoms

 Group   1 Type C   : 11s6p2d1f contracted to 5s3p2d1f pattern {62111/411/11/1}
 Group   2 Type H   : 5s1p contracted to 3s1p pattern {311/1}
 Group   3 Type O   : 11s6p2d1f contracted to 5s3p2d1f pattern {62111/411/11/1}
 Group   4 Type N   : 11s6p2d1f contracted to 5s3p2d1f pattern {62111/411/11/1}

Atom   0C    basis set group =>   1
Atom   1C    basis set group =>   1
Atom   2C    basis set group =>   1
Atom   3H    basis set group =>   2
Atom   4H    basis set group =>   2
Atom   5C    basis set group =>   1
Atom   6C    basis set group =>   1
Atom   7H    basis set group =>   2
Atom   8H    basis set group =>   2
Atom   9C    basis set group =>   1
Atom  10O    basis set group =>   3
Atom  11H    basis set group =>   2
Atom  12C    basis set group =>   1
Atom  13N    basis set group =>   4
---------------------------------
AUXILIARY/J BASIS SET INFORMATION
---------------------------------
There are 4 groups of distinct atoms

 Group   1 Type C   : 12s5p4d2f1g contracted to 6s4p3d1f1g pattern {711111/2111/211/2/1}
 Group   2 Type H   : 5s2p1d contracted to 3s1p1d pattern {311/2/1}
 Group   3 Type O   : 12s5p4d2f1g contracted to 6s4p3d1f1g pattern {711111/2111/211/2/1}
 Group   4 Type N   : 12s5p4d2f1g contracted to 6s4p3d1f1g pattern {711111/2111/211/2/1}

Atom   0C    basis set group =>   1
Atom   1C    basis set group =>   1
Atom   2C    basis set group =>   1
Atom   3H    basis set group =>   2
Atom   4H    basis set group =>   2
Atom   5C    basis set group =>   1
Atom   6C    basis set group =>   1
Atom   7H    basis set group =>   2
Atom   8H    basis set group =>   2
Atom   9C    basis set group =>   1
Atom  10O    basis set group =>   3
Atom  11H    basis set group =>   2
Atom  12C    basis set group =>   1
Atom  13N    basis set group =>   4


           ************************************************************
           *        Program running with 24 parallel MPI-processes    *
           *              working on a common directory               *
           ************************************************************
------------------------------------------------------------------------------
                           ORCA GTO INTEGRAL CALCULATION
                           -- RI-GTO INTEGRALS CHOSEN --
------------------------------------------------------------------------------
------------------------------------------------------------------------------
                   ___                                                        
                  /   \      - P O W E R E D   B Y -                         
                 /     \                                                     
                 |  |  |   _    _      __       _____    __    __             
                 |  |  |  | |  | |    /  \     |  _  \  |  |  /  |          
                  \  \/   | |  | |   /    \    | | | |  |  | /  /          
                 / \  \   | |__| |  /  /\  \   | |_| |  |  |/  /          
                |  |  |   |  __  | /  /__\  \  |    /   |      \           
                |  |  |   | |  | | |   __   |  |    \   |  |\   \          
                \     /   | |  | | |  |  |  |  | |\  \  |  | \   \       
                 \___/    |_|  |_| |__|  |__|  |_| \__\ |__|  \__/        
                                                                              
                      - O R C A' S   B I G   F R I E N D -                    
                                      &                                       
                       - I N T E G R A L  F E E D E R -                       
                                                                              
 v1 FN, 2020, v2 2021                                                         
------------------------------------------------------------------------------


Reading SHARK input file CN_PhenOH/CN_PhenOH.SHARKINP.tmp ... ok
----------------------
SHARK INTEGRAL PACKAGE
----------------------

Number of atoms                             ...     14
Number of basis functions                   ...    309
Number of shells                            ...    119
Maximum angular momentum                    ...      3
Integral batch strategy                     ... SHARK/LIBINT Hybrid
RI-J (if used) integral strategy            ... SPLIT-RIJ (Revised 2003 algorithm where possible)
Printlevel                                  ...      1
Contraction scheme used                     ... SEGMENTED contraction
Coulomb Range Separation                    ... NOT USED
Exchange Range Separation                   ... NOT USED
Finite Nucleus Model                        ... NOT USED
Auxiliary Coulomb fitting basis             ... AVAILABLE
   # of basis functions in Aux-J            ...    496
   # of shells in Aux-J                     ...    160
   Maximum angular momentum in Aux-J        ...      4
Auxiliary J/K fitting basis                 ... NOT available
Auxiliary Correlation fitting basis         ... NOT available
Auxiliary 'external' fitting basis          ... NOT available
Integral threshold                          ...     2.500000e-11
Primitive cut-off                           ...     2.500000e-12
Primitive pair pre-selection threshold      ...     2.500000e-12

Calculating pre-screening integrals         ... done (  0.1 sec) Dimension = 119
Organizing shell pair data                  ... done (  0.1 sec)
Shell pair information
Total number of shell pairs                 ...      7140
Shell pairs after pre-screening             ...      6411
Total number of primitive shell pairs       ...     22368
Primitive shell pairs kept                  ...     14946
          la=0 lb=0:   1561 shell pairs
          la=1 lb=0:   1751 shell pairs
          la=1 lb=1:    504 shell pairs
          la=2 lb=0:    964 shell pairs
          la=2 lb=1:    544 shell pairs
          la=2 lb=2:    158 shell pairs
          la=3 lb=0:    472 shell pairs
          la=3 lb=1:    269 shell pairs
          la=3 lb=2:    148 shell pairs
          la=3 lb=3:     40 shell pairs

Calculating one electron integrals          ... done (  0.0 sec)
Calculating RI/J V-Matrix + Cholesky decomp.... done (  0.1 sec)
Calculating Nuclear repulsion               ... done (  0.0 sec) ENN=    377.521590445682 Eh

SHARK setup successfully completed in   0.6 seconds

Maximum memory used throughout the entire GTOINT-calculation: 19.9 MB


           ************************************************************
           *        Program running with 24 parallel MPI-processes    *
           *              working on a common directory               *
           ************************************************************
-------------------------------------------------------------------------------
                                 ORCA SCF
-------------------------------------------------------------------------------

------------
SCF SETTINGS
------------
Hamiltonian:
 Density Functional     Method          .... DFT(GTOs)
 Exchange Functional    Exchange        .... PBE
   PBE kappa parameter   XKappa         ....  0.804000
   PBE mue parameter    XMuePBE         ....  0.219520
 Correlation Functional Correlation     .... PBE
   PBE beta parameter  CBetaPBE         ....  0.066725
 LDA part of GGA corr.  LDAOpt          .... PW91-LDA
 Gradients option       PostSCFGGA      .... off
 Hybrid DFT is turned on
   Fraction HF Exchange ScalHFX         ....  0.250000
   Scaling of DF-GGA-X  ScalDFX         ....  0.750000
   Scaling of DF-GGA-C  ScalDFC         ....  1.000000
   Scaling of DF-LDA-C  ScalLDAC        ....  1.000000
   Perturbative correction              ....  0.000000
   Density functional embedding theory  .... OFF
   NL short-range parameter             ....  6.900000
 RI-approximation to the Coulomb term is turned on
   Number of AuxJ basis functions       .... 496
   RIJ-COSX (HFX calculated with COS-X)).... on


General Settings:
 Integral files         IntName         .... CN_PhenOH/CN_PhenOH
 Hartree-Fock type      HFTyp           .... RHF
 Total Charge           Charge          ....    0
 Multiplicity           Mult            ....    1
 Number of Electrons    NEL             ....   62
 Basis Dimension        Dim             ....  309
 Nuclear Repulsion      ENuc            ....    377.5215904457 Eh

Convergence Acceleration:
 DIIS                   CNVDIIS         .... on
   Start iteration      DIISMaxIt       ....    12
   Startup error        DIISStart       ....  0.200000
   # of expansion vecs  DIISMaxEq       ....     5
   Bias factor          DIISBfac        ....   1.050
   Max. coefficient     DIISMaxC        ....  10.000
 Trust-Rad. Augm. Hess. CNVTRAH         .... auto
   Auto Start mean grad. ratio tolernc. ....  1.125000
   Auto Start start iteration           ....    20
   Auto Start num. interpolation iter.  ....    10
   Max. Number of Micro iterations      ....    16
   Max. Number of Macro iterations      .... Maxiter - #DIIS iter
   Number of Davidson start vectors     ....     2
   Converg. threshold I  (grad. norm)   ....   1.000e-05
   Converg. threshold II (energy diff.) ....   1.000e-08
   Grad. Scal. Fac. for Micro threshold ....   0.100
   Minimum threshold for Micro iter.    ....   0.010
   NR start threshold (gradient norm)   ....   0.001
   Initial trust radius                 ....   0.400
   Minimum AH scaling param. (alpha)    ....   1.000
   Maximum AH scaling param. (alpha)    .... 1000.000
   Orbital update algorithm             .... Taylor
   White noise on init. David. guess    .... on
   Maximum white noise                  ....   0.010
   Quad. conv. algorithm                .... NR
 SOSCF                  CNVSOSCF        .... on
   Start iteration      SOSCFMaxIt      ....   150
   Startup grad/error   SOSCFStart      ....  0.003300
 Level Shifting         CNVShift        .... on
   Level shift para.    LevelShift      ....    0.2500
   Turn off err/grad.   ShiftErr        ....    0.0010
 Zerner damping         CNVZerner       .... off
 Static damping         CNVDamp         .... on
   Fraction old density DampFac         ....    0.7000
   Max. Damping (<1)    DampMax         ....    0.9800
   Min. Damping (>=0)   DampMin         ....    0.0000
   Turn off err/grad.   DampErr         ....    0.1000
 Fernandez-Rico         CNVRico         .... off

SCF Procedure:
 Maximum # iterations   MaxIter         ....   800
 SCF integral mode      SCFMode         .... Direct
   Integral package                     .... SHARK and LIBINT hybrid scheme
 Reset frequency        DirectResetFreq ....    20
 Integral Threshold     Thresh          ....  2.500e-11 Eh
 Primitive CutOff       TCut            ....  2.500e-12 Eh

Convergence Tolerance:
 Convergence Check Mode ConvCheckMode   .... Total+1el-Energy
 Convergence forced     ConvForced      .... 0
 Energy Change          TolE            ....  1.000e-08 Eh
 1-El. energy change                    ....  1.000e-05 Eh
 Orbital Gradient       TolG            ....  1.000e-05
 Orbital Rotation angle TolX            ....  1.000e-05
 DIIS Error             TolErr          ....  5.000e-07


Diagonalization of the overlap matrix:
Smallest eigenvalue                        ... 9.017e-06
Time for diagonalization                   ...    0.021 sec
Threshold for overlap eigenvalues          ... 1.000e-08
Number of eigenvalues below threshold      ... 0
Time for construction of square roots      ...    0.022 sec
Total time needed                          ...    0.047 sec

Time for model grid setup =    0.106 sec

------------------------------
INITIAL GUESS: MODEL POTENTIAL
------------------------------
Loading Hartree-Fock densities                     ... done
Calculating cut-offs                               ... done
Initializing the effective Hamiltonian             ... done
Setting up the integral package (SHARK)            ... done
Starting the Coulomb interaction                   ... done (   0.1 sec)
Reading the grid                                   ... done
Mapping shells                                     ... done
Starting the XC term evaluation                    ... done (   0.0 sec)
  promolecular density results
     # of electrons  =     61.998593811
     EX              =    -51.928729948
     EC              =     -2.056166506
     EX+EC           =    -53.984896454
Transforming the Hamiltonian                       ... done (   0.0 sec)
Diagonalizing the Hamiltonian                      ... done (   0.0 sec)
Back transforming the eigenvectors                 ... done (   0.0 sec)
Now organizing SCF variables                       ... done
                      ------------------
                      INITIAL GUESS DONE (   0.3 sec)
                      ------------------
-------------------
DFT GRID GENERATION
-------------------

General Integration Accuracy     IntAcc      ... 4.388
Radial Grid Type                 RadialGrid  ... OptM3 with GC (2021)
Angular Grid (max. ang.)         AngularGrid ... 4 (Lebedev-302)
Angular grid pruning method      GridPruning ... 4 (adaptive)
Weight generation scheme         WeightScheme... Becke
Basis function cutoff            BFCut       ... 1.0000e-11
Integration weight cutoff        WCut        ... 1.0000e-14
Angular grids for H and He will be reduced by one unit
Partially contracted basis set               ... off
Rotationally invariant grid construction     ... off

Total number of grid points                  ...    70340
Total number of batches                      ...     1104
Average number of points per batch           ...       63
Average number of grid points per atom       ...     5024
Time for grid setup =    0.400 sec

--------------------
COSX GRID GENERATION
--------------------

GRIDX 1
-------
General Integration Accuracy     IntAcc      ... 3.816
Radial Grid Type                 RadialGrid  ... OptM3 with GC (2021)
Angular Grid (max. ang.)         AngularGrid ... 1 (Lebedev-50)
Angular grid pruning method      GridPruning ... 4 (adaptive)
Weight generation scheme         WeightScheme... Becke
Basis function cutoff            BFCut       ... 1.0000e-11
Integration weight cutoff        WCut        ... 1.0000e-14
Angular grids for H and He will be reduced by one unit
Partially contracted basis set               ... on
Rotationally invariant grid construction     ... off

Total number of grid points                  ...     8968
Total number of batches                      ...      145
Average number of points per batch           ...       61
Average number of grid points per atom       ...      641
UseSFitting                                  ... on

GRIDX 2
-------
General Integration Accuracy     IntAcc      ... 4.020
Radial Grid Type                 RadialGrid  ... OptM3 with GC (2021)
Angular Grid (max. ang.)         AngularGrid ... 2 (Lebedev-110)
Angular grid pruning method      GridPruning ... 4 (adaptive)
Weight generation scheme         WeightScheme... Becke
Basis function cutoff            BFCut       ... 1.0000e-11
Integration weight cutoff        WCut        ... 1.0000e-14
Angular grids for H and He will be reduced by one unit
Partially contracted basis set               ... on
Rotationally invariant grid construction     ... off

Total number of grid points                  ...    20072
Total number of batches                      ...      321
Average number of points per batch           ...       62
Average number of grid points per atom       ...     1434
UseSFitting                                  ... on

GRIDX 3
-------
General Integration Accuracy     IntAcc      ... 4.338
Radial Grid Type                 RadialGrid  ... OptM3 with GC (2021)
Angular Grid (max. ang.)         AngularGrid ... 3 (Lebedev-194)
Angular grid pruning method      GridPruning ... 4 (adaptive)
Weight generation scheme         WeightScheme... Becke
Basis function cutoff            BFCut       ... 1.0000e-11
Integration weight cutoff        WCut        ... 1.0000e-14
Angular grids for H and He will be reduced by one unit
Partially contracted basis set               ... on
Rotationally invariant grid construction     ... off

Total number of grid points                  ...    44303
Total number of batches                      ...      700
Average number of points per batch           ...       63
Average number of grid points per atom       ...     3164
UseSFitting                                  ... on

Time for X-Grid setup             =    0.625 sec


--------------------
CPCM SOLVATION MODEL
--------------------
CPCM parameters:
  Epsilon                                         ...      47.2000
  Refrac                                          ...       1.4790
  Rsolv                                           ...       1.3000
  Surface type                                    ... GAUSSIAN VDW
  Epsilon function type                           ...         CPCM
Radii:
 Radius for C  used is    3.8550 Bohr (=   2.0400 Ang.)
 Radius for H  used is    2.4944 Bohr (=   1.3200 Ang.)
 Radius for O  used is    3.4469 Bohr (=   1.8240 Ang.)
 Radius for N  used is    3.5149 Bohr (=   1.8600 Ang.)
Calculating surface                               ...        done! (  0.0s)
GEPOL surface points                              ...          831
GEPOL Volume                                      ...    1010.9333
GEPOL Surface-area                                ...     573.7196
Calculating surface distance matrix               ...        done! (  0.0s)
Performing Cholesky decomposition & store         ...        done! (  0.1s)
Overall time for CPCM initialization              ...                 0.1s
--------------
SCF ITERATIONS
--------------
ITER       Energy         Delta-E        Max-DP      RMS-DP      [F,P]     Damp
               ***  Starting incremental Fock matrix formation  ***
  0   -399.2092249715   0.000000000000 0.06406218  0.00122150  0.2473254 0.7000
  1   -399.3035645528  -0.094339581317 0.06936380  0.00110101  0.1043937 0.7000
                               ***Turning on DIIS***
  2   -399.3428204733  -0.039255920479 0.10791076  0.00190080  0.0358698 0.0000
  3   -399.4057634128  -0.062942939538 0.06407111  0.00091384  0.0528001 0.0000
  4   -399.4173241520  -0.011560739187 0.01675511  0.00028571  0.0202172 0.0000
  5   -399.4182998525  -0.000975700513 0.00651427  0.00011018  0.0036242 0.0000
                      *** Initiating the SOSCF procedure ***
                           *** Shutting down DIIS ***
                      *** Re-Reading the Fockian *** 
                      *** Removing any level shift *** 
ITER      Energy       Delta-E        Grad      Rot      Max-DP    RMS-DP
  6   -399.41833814  -0.0000382902  0.000215  0.000215  0.002652  0.000050
               *** Restarting incremental Fock matrix formation ***
  7   -399.41832822   0.0000099249  0.000123  0.000366  0.000563  0.000017
  8   -399.41832757   0.0000006520  0.000195  0.000257  0.000291  0.000005
  9   -399.41832886  -0.0000012914  0.000045  0.000093  0.000119  0.000002
 10   -399.41832879   0.0000000721  0.000078  0.000066  0.000063  0.000001
 11   -399.41832889  -0.0000001075  0.000007  0.000026  0.000138  0.000002
 12   -399.41832889   0.0000000027  0.000011  0.000017  0.000054  0.000001
                  ***Gradient check signals convergence***
              ***Rediagonalizing the Fockian in SOSCF/NRSCF***

               *****************************************************
               *                     SUCCESS                       *
               *           SCF CONVERGED AFTER  13 CYCLES          *
               *****************************************************

Old exchange energy                            =    -13.225430364 Eh
New exchange energy                            =    -13.225435321 Eh
Exchange energy change after final integration =     -0.000004957 Eh
Total energy after final integration           =   -399.418333850 Eh
Final COS-X integration done in                =     1.282 sec

----------------
TOTAL SCF ENERGY
----------------

Total Energy       :         -399.41833385 Eh          -10868.72542 eV

Components:
Nuclear Repulsion  :          377.52159045 Eh           10272.88474 eV
Electronic Energy  :         -776.93992430 Eh          -21141.61016 eV
One Electron Energy:        -1288.25965297 Eh          -35055.32734 eV
Two Electron Energy:          511.31972867 Eh           13913.71718 eV
Max COSX asymmetry :            0.00000130 Eh               0.00004 eV
CPCM Dielectric    :           -0.02120627 Eh              -0.57705 eV

Virial components:
Potential Energy   :         -797.05571300 Eh          -21688.98860 eV
Kinetic Energy     :          397.63737915 Eh           10820.26318 eV
Virial Ratio       :            2.00447884


DFT components:
N(Alpha)           :       31.000034297130 electrons
N(Beta)            :       31.000034297130 electrons
N(Total)           :       62.000068594261 electrons
E(X)               :      -39.607624014964 Eh       
E(C)               :       -2.067677652216 Eh       
E(XC)              :      -41.675301667180 Eh       
DFET-embed. en.    :        0.000000000000 Eh       
CPCM Solvation Model Properties:
Surface-charge          :           -0.02083823
Charge-correction       :            0.00016863 Eh               0.00459 eV
Free-energy (cav+disp)  :  This term is not implemented in the current solvation scheme

---------------
SCF CONVERGENCE
---------------

  Last Energy change         ...   -3.6159e-09  Tolerance :   1.0000e-08
  Last MAX-Density change    ...    8.8818e-16  Tolerance :   1.0000e-07
  Last RMS-Density change    ...    1.3541e-17  Tolerance :   5.0000e-09
  Last Orbital Gradient      ...    4.1482e-07  Tolerance :   1.0000e-05
  Last Orbital Rotation      ...    9.1448e-07  Tolerance :   1.0000e-05

             **** THE GBW FILE WAS UPDATED (CN_PhenOH/CN_PhenOH.gbw) ****
             **** DENSITY CN_PhenOH/CN_PhenOH.scfp WAS UPDATED ****
             **** ENERGY FILE WAS UPDATED (CN_PhenOH/CN_PhenOH.en.tmp) ****
             **** THE GBW FILE WAS UPDATED (CN_PhenOH/CN_PhenOH.gbw) ****
             **** DENSITY CN_PhenOH/CN_PhenOH.scfp WAS UPDATED ****
----------------
ORBITAL ENERGIES
----------------

  NO   OCC          E(Eh)            E(eV) 
   0   2.0000     -19.251659      -523.8643 
   1   2.0000     -14.388271      -391.5248 
   2   2.0000     -10.308811      -280.5170 
   3   2.0000     -10.274119      -279.5730 
   4   2.0000     -10.267757      -279.3999 
   5   2.0000     -10.253485      -279.0115 
   6   2.0000     -10.252739      -278.9912 
   7   2.0000     -10.239716      -278.6369 
   8   2.0000     -10.237625      -278.5800 
   9   2.0000      -1.112729       -30.2789 
  10   2.0000      -0.948060       -25.7980 
  11   2.0000      -0.904895       -24.6234 
  12   2.0000      -0.802373       -21.8337 
  13   2.0000      -0.795873       -21.6568 
  14   2.0000      -0.680324       -18.5126 
  15   2.0000      -0.657090       -17.8803 
  16   2.0000      -0.582687       -15.8557 
  17   2.0000      -0.579176       -15.7602 
  18   2.0000      -0.516707       -14.0603 
  19   2.0000      -0.470661       -12.8073 
  20   2.0000      -0.455291       -12.3891 
  21   2.0000      -0.452957       -12.3256 
  22   2.0000      -0.441103       -12.0030 
  23   2.0000      -0.417392       -11.3578 
  24   2.0000      -0.412683       -11.2297 
  25   2.0000      -0.394223       -10.7273 
  26   2.0000      -0.375428       -10.2159 
  27   2.0000      -0.357050        -9.7158 
  28   2.0000      -0.354408        -9.6439 
  29   2.0000      -0.290653        -7.9091 
  30   2.0000      -0.256059        -6.9677 
  31   0.0000      -0.042707        -1.1621 
  32   0.0000      -0.025042        -0.6814 
  33   0.0000       0.030235         0.8227 
  34   0.0000       0.054533         1.4839 
  35   0.0000       0.061123         1.6632 
  36   0.0000       0.079136         2.1534 
  37   0.0000       0.093191         2.5359 
  38   0.0000       0.095402         2.5960 
  39   0.0000       0.126678         3.4471 
  40   0.0000       0.140977         3.8362 
  41   0.0000       0.147022         4.0007 
  42   0.0000       0.150834         4.1044 
  43   0.0000       0.186909         5.0861 
  44   0.0000       0.200455         5.4547 
  45   0.0000       0.202470         5.5095 
  46   0.0000       0.217571         5.9204 
  47   0.0000       0.230373         6.2688 
  48   0.0000       0.247037         6.7222 
  49   0.0000       0.247066         6.7230 
  50   0.0000       0.249964         6.8019 
  51   0.0000       0.261196         7.1075 
  52   0.0000       0.268745         7.3129 
  53   0.0000       0.291710         7.9378 
  54   0.0000       0.316467         8.6115 
  55   0.0000       0.318101         8.6560 
  56   0.0000       0.323739         8.8094 
  57   0.0000       0.326477         8.8839 
  58   0.0000       0.338193         9.2027 
  59   0.0000       0.347265         9.4496 
  60   0.0000       0.356956         9.7133 
  61   0.0000       0.375821        10.2266 
  62   0.0000       0.381544        10.3823 
  63   0.0000       0.402017        10.9394 
  64   0.0000       0.409843        11.1524 
  65   0.0000       0.411635        11.2012 
  66   0.0000       0.423707        11.5296 
  67   0.0000       0.448223        12.1968 
  68   0.0000       0.462503        12.5853 
  69   0.0000       0.467036        12.7087 
  70   0.0000       0.470378        12.7996 
  71   0.0000       0.478521        13.0212 
  72   0.0000       0.490491        13.3469 
  73   0.0000       0.502000        13.6601 
  74   0.0000       0.512898        13.9567 
  75   0.0000       0.537472        14.6253 
  76   0.0000       0.552719        15.0403 
  77   0.0000       0.568647        15.4737 
  78   0.0000       0.573639        15.6095 
  79   0.0000       0.580239        15.7891 
  80   0.0000       0.611067        16.6280 
  81   0.0000       0.641744        17.4627 
  82   0.0000       0.647081        17.6080 
  83   0.0000       0.658980        17.9317 
  84   0.0000       0.665766        18.1164 
  85   0.0000       0.681518        18.5450 
  86   0.0000       0.699052        19.0222 
  87   0.0000       0.699825        19.0432 
  88   0.0000       0.714395        19.4397 
  89   0.0000       0.732311        19.9272 
  90   0.0000       0.751997        20.4629 
  91   0.0000       0.776943        21.1417 
  92   0.0000       0.795785        21.6544 
  93   0.0000       0.796547        21.6751 
  94   0.0000       0.817134        22.2353 
  95   0.0000       0.843988        22.9661 
  96   0.0000       0.847310        23.0565 
  97   0.0000       0.873877        23.7794 
  98   0.0000       0.878862        23.9151 
  99   0.0000       0.884184        24.0599 
 100   0.0000       0.908175        24.7127 
 101   0.0000       0.928616        25.2689 
 102   0.0000       1.013246        27.5718 
 103   0.0000       1.027132        27.9497 
 104   0.0000       1.050606        28.5885 
 105   0.0000       1.050657        28.5898 
 106   0.0000       1.057375        28.7726 
 107   0.0000       1.091784        29.7089 
 108   0.0000       1.114597        30.3297 
 109   0.0000       1.121513        30.5179 
 110   0.0000       1.145869        31.1807 
 111   0.0000       1.164189        31.6792 
 112   0.0000       1.191140        32.4126 
 113   0.0000       1.214754        33.0551 
 114   0.0000       1.220868        33.2215 
 115   0.0000       1.243999        33.8509 
 116   0.0000       1.253603        34.1123 
 117   0.0000       1.258214        34.2377 
 118   0.0000       1.269888        34.5554 
 119   0.0000       1.311478        35.6871 
 120   0.0000       1.330304        36.1994 
 121   0.0000       1.352234        36.7962 
 122   0.0000       1.364609        37.1329 
 123   0.0000       1.377347        37.4795 
 124   0.0000       1.398902        38.0661 
 125   0.0000       1.415573        38.5197 
 126   0.0000       1.461868        39.7794 
 127   0.0000       1.474696        40.1285 
 128   0.0000       1.484552        40.3967 
 129   0.0000       1.517411        41.2908 
 130   0.0000       1.531481        41.6737 
 131   0.0000       1.544312        42.0229 
 132   0.0000       1.557635        42.3854 
 133   0.0000       1.568805        42.6893 
 134   0.0000       1.589555        43.2540 
 135   0.0000       1.609672        43.8014 
 136   0.0000       1.619958        44.0813 
 137   0.0000       1.654852        45.0308 
 138   0.0000       1.668834        45.4113 
 139   0.0000       1.706023        46.4232 
 140   0.0000       1.712978        46.6125 
 141   0.0000       1.736574        47.2546 
 142   0.0000       1.743634        47.4467 
 143   0.0000       1.758981        47.8643 
 144   0.0000       1.799200        48.9587 
 145   0.0000       1.835006        49.9331 
 146   0.0000       1.860235        50.6196 
 147   0.0000       1.875180        51.0262 
 148   0.0000       1.884941        51.2919 
 149   0.0000       1.892580        51.4997 
 150   0.0000       1.907694        51.9110 
 151   0.0000       1.963486        53.4292 
 152   0.0000       1.985728        54.0344 
 153   0.0000       1.987555        54.0841 
 154   0.0000       2.031406        55.2774 
 155   0.0000       2.042591        55.5817 
 156   0.0000       2.120703        57.7073 
 157   0.0000       2.133644        58.0594 
 158   0.0000       2.154566        58.6287 
 159   0.0000       2.154988        58.6402 
 160   0.0000       2.174812        59.1797 
 161   0.0000       2.213447        60.2309 
 162   0.0000       2.248369        61.1812 
 163   0.0000       2.266960        61.6871 
 164   0.0000       2.289336        62.2960 
 165   0.0000       2.324784        63.2606 
 166   0.0000       2.332652        63.4747 
 167   0.0000       2.334172        63.5160 
 168   0.0000       2.357072        64.1392 
 169   0.0000       2.426556        66.0299 
 170   0.0000       2.476343        67.3847 
 171   0.0000       2.481612        67.5281 
 172   0.0000       2.506242        68.1983 
 173   0.0000       2.519849        68.5686 
 174   0.0000       2.523131        68.6579 
 175   0.0000       2.541437        69.1560 
 176   0.0000       2.577865        70.1473 
 177   0.0000       2.606714        70.9323 
 178   0.0000       2.645224        71.9802 
 179   0.0000       2.651491        72.1507 
 180   0.0000       2.654461        72.2316 
 181   0.0000       2.668657        72.6178 
 182   0.0000       2.671332        72.6906 
 183   0.0000       2.708246        73.6951 
 184   0.0000       2.725251        74.1578 
 185   0.0000       2.742944        74.6393 
 186   0.0000       2.746016        74.7229 
 187   0.0000       2.763544        75.1999 
 188   0.0000       2.766431        75.2784 
 189   0.0000       2.785834        75.8064 
 190   0.0000       2.826979        76.9260 
 191   0.0000       2.829110        76.9840 
 192   0.0000       2.846760        77.4643 
 193   0.0000       2.857628        77.7600 
 194   0.0000       2.898831        78.8812 
 195   0.0000       2.904079        79.0240 
 196   0.0000       2.910769        79.2061 
 197   0.0000       2.928976        79.7015 
 198   0.0000       2.930961        79.7555 
 199   0.0000       2.955864        80.4331 
 200   0.0000       2.998324        81.5885 
 201   0.0000       3.021173        82.2103 
 202   0.0000       3.040227        82.7288 
 203   0.0000       3.046144        82.8898 
 204   0.0000       3.054492        83.1170 
 205   0.0000       3.085890        83.9713 
 206   0.0000       3.101293        84.3905 
 207   0.0000       3.116746        84.8110 
 208   0.0000       3.124379        85.0187 
 209   0.0000       3.134407        85.2915 
 210   0.0000       3.147820        85.6565 
 211   0.0000       3.172894        86.3388 
 212   0.0000       3.185139        86.6720 
 213   0.0000       3.187043        86.7238 
 214   0.0000       3.245341        88.3102 
 215   0.0000       3.246315        88.3367 
 216   0.0000       3.254717        88.5653 
 217   0.0000       3.269588        88.9700 
 218   0.0000       3.300611        89.8142 
 219   0.0000       3.325605        90.4943 
 220   0.0000       3.354273        91.2744 
 221   0.0000       3.366743        91.6137 
 222   0.0000       3.376131        91.8692 
 223   0.0000       3.385274        92.1180 
 224   0.0000       3.388433        92.2039 
 225   0.0000       3.404744        92.6478 
 226   0.0000       3.423613        93.1613 
 227   0.0000       3.435543        93.4859 
 228   0.0000       3.459435        94.1360 
 229   0.0000       3.484898        94.8289 
 230   0.0000       3.491030        94.9958 
 231   0.0000       3.523044        95.8669 
 232   0.0000       3.525274        95.9276 
 233   0.0000       3.540310        96.3367 
 234   0.0000       3.618270        98.4581 
 235   0.0000       3.657435        99.5239 
 236   0.0000       3.698059       100.6293 
 237   0.0000       3.740597       101.7868 
 238   0.0000       3.742660       101.8429 
 239   0.0000       3.777034       102.7783 
 240   0.0000       3.793686       103.2314 
 241   0.0000       3.862611       105.1070 
 242   0.0000       3.933152       107.0265 
 243   0.0000       3.938526       107.1727 
 244   0.0000       3.970607       108.0457 
 245   0.0000       3.971465       108.0690 
 246   0.0000       3.978867       108.2705 
 247   0.0000       4.019217       109.3685 
 248   0.0000       4.050247       110.2128 
 249   0.0000       4.076054       110.9151 
 250   0.0000       4.145452       112.8035 
 251   0.0000       4.160112       113.2024 
 252   0.0000       4.173403       113.5641 
 253   0.0000       4.189823       114.0109 
 254   0.0000       4.190426       114.0273 
 255   0.0000       4.234467       115.2257 
 256   0.0000       4.242422       115.4422 
 257   0.0000       4.277428       116.3947 
 258   0.0000       4.317184       117.4765 
 259   0.0000       4.351514       118.4107 
 260   0.0000       4.403080       119.8139 
 261   0.0000       4.501116       122.4816 
 262   0.0000       4.507499       122.6553 
 263   0.0000       4.574808       124.4869 
 264   0.0000       4.576452       124.5316 
 265   0.0000       4.596782       125.0848 
 266   0.0000       4.643285       126.3502 
 267   0.0000       4.650233       126.5393 
 268   0.0000       4.671952       127.1303 
 269   0.0000       4.714069       128.2764 
 270   0.0000       4.799498       130.6010 
 271   0.0000       4.814892       131.0199 
 272   0.0000       4.880397       132.8024 
 273   0.0000       4.918556       133.8407 
 274   0.0000       4.934467       134.2737 
 275   0.0000       4.977377       135.4413 
 276   0.0000       5.141564       139.9091 
 277   0.0000       5.171507       140.7239 
 278   0.0000       5.194549       141.3509 
 279   0.0000       5.224541       142.1670 
 280   0.0000       5.266762       143.3159 
 281   0.0000       5.342068       145.3651 
 282   0.0000       5.410009       147.2138 
 283   0.0000       5.416064       147.3786 
 284   0.0000       5.499615       149.6521 
 285   0.0000       5.524876       150.3395 
 286   0.0000       5.657476       153.9477 
 287   0.0000       5.703301       155.1947 
 288   0.0000       5.720581       155.6649 
 289   0.0000       5.827217       158.5666 
 290   0.0000       5.938850       161.6043 
 291   0.0000       6.026700       163.9948 
 292   0.0000       6.195394       168.5852 
 293   0.0000       6.369904       173.3339 
 294   0.0000       6.427062       174.8892 
 295   0.0000       6.427855       174.9108 
 296   0.0000       6.727478       183.0640 
 297   0.0000       6.815035       185.4465 
 298   0.0000       6.999791       190.4740 
 299   0.0000       7.303284       198.7324 
 300   0.0000      22.219228       604.6159 
 301   0.0000      22.736766       618.6988 
 302   0.0000      22.794037       620.2573 
 303   0.0000      22.805080       620.5578 
 304   0.0000      23.038568       626.9113 
 305   0.0000      23.400522       636.7606 
 306   0.0000      23.680539       644.3802 
 307   0.0000      32.181597       875.7058 
 308   0.0000      44.019947      1197.8437 

                    ********************************
                    * MULLIKEN POPULATION ANALYSIS *
                    ********************************

-----------------------
MULLIKEN ATOMIC CHARGES
-----------------------
   0 C :    0.297880
   1 C :   -0.242513
   2 C :   -0.232714
   3 H :    0.170538
   4 H :    0.166776
   5 C :   -0.217448
   6 C :   -0.219454
   7 H :    0.169551
   8 H :    0.156814
   9 C :    0.285773
  10 O :   -0.408968
  11 H :    0.375352
  12 C :   -0.194356
  13 N :   -0.107231
Sum of atomic charges:    0.0000000

--------------------------------
MULLIKEN REDUCED ORBITAL CHARGES
--------------------------------
  0 C s       :     3.086266  s :     3.086266
      pz      :     0.637401  p :     2.490075
      px      :     1.045746
      py      :     0.806927
      dz2     :     0.025013  d :     0.116907
      dxz     :     0.016170
      dyz     :     0.034766
      dx2y2   :     0.016708
      dxy     :     0.024251
      f0      :     0.001359  f :     0.008872
      f+1     :     0.000598
      f-1     :     0.002604
      f+2     :     0.000866
      f-2     :     0.001058
      f+3     :     0.001534
      f-3     :     0.000852
  1 C s       :     3.267403  s :     3.267403
      pz      :     0.970253  p :     2.869461
      px      :     0.923336
      py      :     0.975872
      dz2     :     0.017673  d :     0.098186
      dxz     :     0.023044
      dyz     :     0.036998
      dx2y2   :     0.009108
      dxy     :     0.011362
      f0      :     0.000816  f :     0.007463
      f+1     :     0.001544
      f-1     :     0.002145
      f+2     :     0.000798
      f-2     :     0.000449
      f+3     :     0.001037
      f-3     :     0.000674
  2 C s       :     3.272923  s :     3.272923
      pz      :     0.949323  p :     2.854357
      px      :     0.923852
      py      :     0.981181
      dz2     :     0.019701  d :     0.098024
      dxz     :     0.024029
      dyz     :     0.035395
      dx2y2   :     0.009084
      dxy     :     0.009814
      f0      :     0.000860  f :     0.007411
      f+1     :     0.001511
      f-1     :     0.002113
      f+2     :     0.000755
      f-2     :     0.000591
      f+3     :     0.000899
      f-3     :     0.000681
  3 H s       :     0.807268  s :     0.807268
      pz      :     0.006541  p :     0.022194
      px      :     0.004332
      py      :     0.011322
  4 H s       :     0.811049  s :     0.811049
      pz      :     0.005792  p :     0.022175
      px      :     0.004336
      py      :     0.012047
  5 C s       :     3.220895  s :     3.220895
      pz      :     0.921207  p :     2.906384
      px      :     1.021757
      py      :     0.963420
      dz2     :     0.017968  d :     0.082959
      dxz     :     0.016598
      dyz     :     0.030473
      dx2y2   :     0.009389
      dxy     :     0.008531
      f0      :     0.000859  f :     0.007209
      f+1     :     0.001484
      f-1     :     0.002070
      f+2     :     0.000784
      f-2     :     0.000409
      f+3     :     0.000908
      f-3     :     0.000695
  6 C s       :     3.236552  s :     3.236552
      pz      :     0.927677  p :     2.892380
      px      :     1.011673
      py      :     0.953030
      dz2     :     0.017199  d :     0.083062
      dxz     :     0.016255
      dyz     :     0.031170
      dx2y2   :     0.008134
      dxy     :     0.010304
      f0      :     0.000817  f :     0.007460
      f+1     :     0.001471
      f-1     :     0.002232
      f+2     :     0.000829
      f-2     :     0.000379
      f+3     :     0.001038
      f-3     :     0.000693
  7 H s       :     0.808152  s :     0.808152
      pz      :     0.005583  p :     0.022297
      px      :     0.004909
      py      :     0.011804
  8 H s       :     0.820846  s :     0.820846
      pz      :     0.006542  p :     0.022340
      px      :     0.004849
      py      :     0.010949
  9 C s       :     3.006567  s :     3.006567
      pz      :     0.719722  p :     2.504441
      px      :     0.879575
      py      :     0.905143
      dz2     :     0.034933  d :     0.187218
      dxz     :     0.049965
      dyz     :     0.062257
      dx2y2   :     0.015668
      dxy     :     0.024395
      f0      :     0.002608  f :     0.016001
      f+1     :     0.003478
      f-1     :     0.005565
      f+2     :     0.000738
      f-2     :     0.001068
      f+3     :     0.001709
      f-3     :     0.000835
 10 O s       :     3.752560  s :     3.752560
      pz      :     1.338204  p :     4.621719
      px      :     1.796425
      py      :     1.487090
      dz2     :     0.011624  d :     0.032899
      dxz     :     0.005925
      dyz     :     0.007691
      dx2y2   :     0.006368
      dxy     :     0.001292
      f0      :     0.000549  f :     0.001790
      f+1     :     0.000329
      f-1     :     0.000273
      f+2     :     0.000235
      f-2     :     0.000021
      f+3     :     0.000051
      f-3     :     0.000332
 11 H s       :     0.579618  s :     0.579618
      pz      :     0.011044  p :     0.045029
      px      :     0.014539
      py      :     0.019446
 12 C s       :     3.236844  s :     3.236844
      pz      :     1.039878  p :     2.846347
      px      :     0.895883
      py      :     0.910586
      dz2     :     0.012754  d :     0.095036
      dxz     :     0.047165
      dyz     :     0.034073
      dx2y2   :     0.000623
      dxy     :     0.000421
      f0      :     0.003146  f :     0.016129
      f+1     :     0.006411
      f-1     :     0.006460
      f+2     :     0.000049
      f-2     :     0.000053
      f+3     :     0.000003
      f-3     :     0.000008
 13 N s       :     3.589693  s :     3.589693
      pz      :     1.261456  p :     3.476506
      px      :     1.134390
      py      :     1.080660
      dz2     :     0.006716  d :     0.039012
      dxz     :     0.015861
      dyz     :     0.016391
      dx2y2   :     0.000021
      dxy     :     0.000023
      f0      :     0.000091  f :     0.002020
      f+1     :     0.000951
      f-1     :     0.000971
      f+2     :     0.000003
      f-2     :     0.000003
      f+3     :     0.000000
      f-3     :     0.000000


                     *******************************
                     * LOEWDIN POPULATION ANALYSIS *
                     *******************************

----------------------
LOEWDIN ATOMIC CHARGES
----------------------
   0 C :   -0.173924
   1 C :   -0.074638
   2 C :   -0.074749
   3 H :    0.167821
   4 H :    0.167631
   5 C :   -0.121267
   6 C :   -0.112267
   7 H :    0.164434
   8 H :    0.162910
   9 C :   -0.273093
  10 O :    0.110235
  11 H :    0.215024
  12 C :   -0.152051
  13 N :   -0.006067

-------------------------------
LOEWDIN REDUCED ORBITAL CHARGES
-------------------------------
  0 C s       :     2.692757  s :     2.692757
      pz      :     0.952741  p :     2.905250
      px      :     0.912540
      py      :     1.039969
      dz2     :     0.157006  d :     0.518437
      dxz     :     0.056436
      dyz     :     0.152182
      dx2y2   :     0.073078
      dxy     :     0.079736
      f0      :     0.008349  f :     0.057480
      f+1     :     0.004658
      f-1     :     0.020880
      f+2     :     0.006427
      f-2     :     0.007550
      f+3     :     0.003929
      f-3     :     0.005685
  1 C s       :     2.755826  s :     2.755826
      pz      :     1.038072  p :     2.880765
      px      :     0.845080
      py      :     0.997613
      dz2     :     0.094447  d :     0.394219
      dxz     :     0.071314
      dyz     :     0.151345
      dx2y2   :     0.042653
      dxy     :     0.034460
      f0      :     0.007355  f :     0.043828
      f+1     :     0.006660
      f-1     :     0.014587
      f+2     :     0.004430
      f-2     :     0.002949
      f+3     :     0.003907
      f-3     :     0.003940
  2 C s       :     2.755856  s :     2.755856
      pz      :     1.041188  p :     2.881531
      px      :     0.845608
      py      :     0.994735
      dz2     :     0.100737  d :     0.393636
      dxz     :     0.075937
      dyz     :     0.144693
      dx2y2   :     0.043158
      dxy     :     0.029112
      f0      :     0.007545  f :     0.043727
      f+1     :     0.006212
      f-1     :     0.014583
      f+2     :     0.004482
      f-2     :     0.003981
      f+3     :     0.003233
      f-3     :     0.003691
  3 H s       :     0.771326  s :     0.771326
      pz      :     0.018016  p :     0.060852
      px      :     0.012559
      py      :     0.030277
  4 H s       :     0.771569  s :     0.771569
      pz      :     0.016167  p :     0.060799
      px      :     0.012553
      py      :     0.032079
  5 C s       :     2.759826  s :     2.759826
      pz      :     1.041692  p :     2.953640
      px      :     0.919772
      py      :     0.992176
      dz2     :     0.095071  d :     0.365205
      dxz     :     0.056738
      dyz     :     0.146544
      dx2y2   :     0.042707
      dxy     :     0.024145
      f0      :     0.007724  f :     0.042597
      f+1     :     0.005828
      f-1     :     0.014511
      f+2     :     0.004833
      f-2     :     0.003164
      f+3     :     0.002817
      f-3     :     0.003720
  6 C s       :     2.758912  s :     2.758912
      pz      :     1.040276  p :     2.948608
      px      :     0.911968
      py      :     0.996364
      dz2     :     0.089019  d :     0.362207
      dxz     :     0.052588
      dyz     :     0.150124
      dx2y2   :     0.042511
      dxy     :     0.027966
      f0      :     0.007582  f :     0.042540
      f+1     :     0.006003
      f-1     :     0.014406
      f+2     :     0.004800
      f-2     :     0.002409
      f+3     :     0.003353
      f-3     :     0.003987
  7 H s       :     0.774170  s :     0.774170
      pz      :     0.015728  p :     0.061395
      px      :     0.014110
      py      :     0.031557
  8 H s       :     0.775666  s :     0.775666
      pz      :     0.018007  p :     0.061425
      px      :     0.013934
      py      :     0.029484
  9 C s       :     2.715718  s :     2.715718
      pz      :     0.847506  p :     2.750270
      px      :     0.817416
      py      :     1.085348
      dz2     :     0.205949  d :     0.706145
      dxz     :     0.149429
      dyz     :     0.201536
      dx2y2   :     0.069905
      dxy     :     0.079327
      f0      :     0.019985  f :     0.100960
      f+1     :     0.020373
      f-1     :     0.035778
      f+2     :     0.006121
      f-2     :     0.007460
      f+3     :     0.005514
      f-3     :     0.005728
 10 O s       :     3.311422  s :     3.311422
      pz      :     1.381946  p :     4.500324
      px      :     1.678786
      py      :     1.439592
      dz2     :     0.025334  d :     0.073021
      dxz     :     0.014276
      dyz     :     0.023761
      dx2y2   :     0.009155
      dxy     :     0.000495
      f0      :     0.001492  f :     0.004998
      f+1     :     0.001030
      f-1     :     0.001518
      f+2     :     0.000408
      f-2     :     0.000010
      f+3     :     0.000001
      f-3     :     0.000539
 11 H s       :     0.632932  s :     0.632932
      pz      :     0.029865  p :     0.152044
      px      :     0.040249
      py      :     0.081929
 12 C s       :     2.812840  s :     2.812840
      pz      :     1.167588  p :     2.825513
      px      :     0.839932
      py      :     0.817993
      dz2     :     0.153499  d :     0.453514
      dxz     :     0.160761
      dyz     :     0.136868
      dx2y2   :     0.001590
      dxy     :     0.000796
      f0      :     0.024862  f :     0.060184
      f+1     :     0.017343
      f-1     :     0.017709
      f+2     :     0.000130
      f-2     :     0.000118
      f+3     :     0.000002
      f-3     :     0.000020
 13 N s       :     3.299095  s :     3.299095
      pz      :     1.489274  p :     3.588412
      px      :     1.070122
      py      :     1.029016
      dz2     :     0.045018  d :     0.102929
      dxz     :     0.029029
      dyz     :     0.028800
      dx2y2   :     0.000040
      dxy     :     0.000042
      f0      :     0.006959  f :     0.015632
      f+1     :     0.004265
      f-1     :     0.004378
      f+2     :     0.000015
      f-2     :     0.000015
      f+3     :     0.000000
      f-3     :     0.000000


                      *****************************
                      * MAYER POPULATION ANALYSIS *
                      *****************************

  NA   - Mulliken gross atomic population
  ZA   - Total nuclear charge
  QA   - Mulliken gross atomic charge
  VA   - Mayer's total valence
  BVA  - Mayer's bonded valence
  FA   - Mayer's free valence

  ATOM       NA         ZA         QA         VA         BVA        FA
  0 C      5.7021     6.0000     0.2979     3.5789     3.5789     0.0000
  1 C      6.2425     6.0000    -0.2425     3.9632     3.9632     0.0000
  2 C      6.2327     6.0000    -0.2327     3.9972     3.9972     0.0000
  3 H      0.8295     1.0000     0.1705     0.9671     0.9671     0.0000
  4 H      0.8332     1.0000     0.1668     0.9661     0.9661     0.0000
  5 C      6.2174     6.0000    -0.2174     3.8521     3.8521    -0.0000
  6 C      6.2195     6.0000    -0.2195     3.9379     3.9379    -0.0000
  7 H      0.8304     1.0000     0.1696     0.9649     0.9649    -0.0000
  8 H      0.8432     1.0000     0.1568     0.9757     0.9757     0.0000
  9 C      5.7142     6.0000     0.2858     3.9987     3.9987    -0.0000
 10 O      8.4090     8.0000    -0.4090     2.1085     2.1085     0.0000
 11 H      0.6246     1.0000     0.3754     0.8720     0.8720     0.0000
 12 C      6.1944     6.0000    -0.1944     4.0494     4.0494     0.0000
 13 N      7.1072     7.0000    -0.1072     3.1561     3.1561    -0.0000

  Mayer bond orders larger than 0.100000
B(  0-C ,  1-C ) :   1.3089 B(  0-C ,  2-C ) :   1.3038 B(  0-C , 12-C ) :   0.9598 
B(  1-C ,  3-H ) :   0.9633 B(  1-C ,  5-C ) :   1.4371 B(  2-C ,  4-H ) :   0.9779 
B(  2-C ,  6-C ) :   1.4850 B(  5-C ,  7-H ) :   0.9574 B(  5-C ,  9-C ) :   1.3332 
B(  6-C ,  8-H ) :   0.9754 B(  6-C ,  9-C ) :   1.3444 B(  9-C , 10-O ) :   1.1665 
B( 10-O , 11-H ) :   0.8440 B( 12-C , 13-N ) :   3.0389 

-------
TIMINGS
-------

Total SCF time: 0 days 0 hours 0 min 25 sec 

Total time                  ....      25.828 sec
Sum of individual times     ....      22.898 sec  ( 88.7%)

Fock matrix formation       ....      20.481 sec  ( 79.3%)
  Split-RI-J                ....       2.313 sec  ( 11.3% of F)
  Chain of spheres X        ....       8.619 sec  ( 42.1% of F)
  XC integration            ....       4.373 sec  ( 21.4% of F)
    Basis function eval.    ....       0.335 sec  (  7.7% of XC)
    Density eval.           ....       0.330 sec  (  7.5% of XC)
    XC-Functional eval.     ....       0.062 sec  (  1.4% of XC)
    XC-Potential eval.      ....       0.363 sec  (  8.3% of XC)
Diagonalization             ....       0.368 sec  (  1.4%)
Density matrix formation    ....       0.033 sec  (  0.1%)
Population analysis         ....       0.103 sec  (  0.4%)
Initial guess               ....       0.227 sec  (  0.9%)
Orbital Transformation      ....       0.000 sec  (  0.0%)
Orbital Orthonormalization  ....       0.000 sec  (  0.0%)
DIIS solution               ....       0.248 sec  (  1.0%)
SOSCF solution              ....       0.307 sec  (  1.2%)
Grid generation             ....       1.131 sec  (  4.4%)

Maximum memory used throughout the entire SCF-calculation: 76.8 MB


-------------------------------------------------------------------------------
                          DFT DISPERSION CORRECTION                            
                                                                               
                              DFTD3 V3.1  Rev 1                                
                          USING Becke-Johnson damping                          
-------------------------------------------------------------------------------
The PBE0 functional is recognized
Active option DFTDOPT                   ...         4   

molecular C6(AA) [au] = 2715.651937 


            DFT-D V3
 parameters
 s6 scaling factor         :     1.0000 
 a1 scaling factor         :     0.4145 
 s8 scaling factor         :     1.2177 
 a2 scaling factor         :     4.8593 
 ad hoc parameters k1-k3   :    16.0000     1.3333    -4.0000 

 Edisp/kcal,au: -8.097452199909  -0.012904110091 
 E6   /kcal   :  -4.991322379 
 E8   /kcal   :  -3.106129821 
 % E8         :  38.359347415 

-------------------------   ----------------
Dispersion correction           -0.012904110
-------------------------   ----------------


-------------------------   --------------------
FINAL SINGLE POINT ENERGY      -399.431237960577
-------------------------   --------------------



           ************************************************************
           *        Program running with 24 parallel MPI-processes    *
           *              working on a common directory               *
           ************************************************************
------------------------------------------------------------------------------
                         ORCA SCF GRADIENT CALCULATION
------------------------------------------------------------------------------

 ... reading COSX grid (gridx3)
Gradient of the Kohn-Sham DFT energy:
Kohn-Sham wavefunction type      ... RKS
Hartree-Fock exchange scaling    ...    0.250
Number of operators              ...    1
Number of atoms                  ...   14
Basis set dimensions             ...  309
Integral neglect threshold       ... 2.5e-11
Integral primitive cutoff        ... 2.5e-12
SHARK Integral package           ... ON

Nuc. rep. gradient       (SHARK) ... done (  0.0 sec)
HCore & Overlap gradient (SHARK) ... done (  0.0 sec)
RI-J gradient            (SHARK) ... done (  0.5 sec)
COSX-gradient                    ... done (  1.6 sec)
Exchange-correlation gradient    ... done
Dispersion correction            ... done

------------------
CARTESIAN GRADIENT
------------------

   1   C   :   -0.000000011   -0.000065775    0.000108116
   2   C   :    0.000000025   -0.000089008    0.000119166
   3   C   :    0.000000030    0.000193667   -0.000074531
   4   H   :   -0.000000013    0.000047690    0.000024082
   5   H   :   -0.000000004   -0.000059121    0.000010594
   6   C   :   -0.000000036   -0.000144959   -0.000160960
   7   C   :   -0.000000003    0.000115000    0.000028221
   8   H   :    0.000000011   -0.000007109    0.000075536
   9   H   :   -0.000000001   -0.000123640   -0.000094216
  10   C   :    0.000000019   -0.000051092   -0.000044034
  11   O   :   -0.000000010   -0.000016579   -0.000187445
  12   H   :   -0.000000004   -0.000052662    0.000114080
  13   C   :    0.000000004    0.000073616    0.000056390
  14   N   :   -0.000000002    0.000035717    0.000003212

Difference to translation invariance:
           :    0.0000000051   -0.0001442556   -0.0000217892

Difference to rotation invariance:
           :    0.0023201484   -0.0000000625    0.0000000893

Norm of the cartesian gradient     ...    0.0004941222
RMS gradient                       ...    0.0000762447
MAX gradient                       ...    0.0001936674

-------
TIMINGS
-------

Total SCF gradient time            ...        4.053 sec

One electron gradient       ....       0.036 sec  (  0.9%)
RI-J Coulomb gradient       ....       0.484 sec  ( 11.9%)
COSX gradient               ....       1.584 sec  ( 39.1%)
XC gradient                 ....       0.722 sec  ( 17.8%)
CPCM gradient               ....       0.171 sec  (  4.2%)
   A-Matrix (El+Nuc)        ....       0.060 sec  (  1.5%)
   Potential                ....       0.111 sec  (  2.7%)

Maximum memory used throughout the entire SCFGRAD-calculation: 50.0 MB
------------------------------------------------------------------------------
                         ORCA GEOMETRY RELAXATION STEP
------------------------------------------------------------------------------

Reading the OPT-File                    .... done
Getting information on internals        .... done
Copying old internal coords+grads       .... done
Making the new internal coordinates     .... (new redundants).... done
Validating the new internal coordinates .... (new redundants).... done
Calculating the B-matrix                .... done
Calculating the G,G- and P matrices     .... done
Transforming gradient to internals      .... done
Projecting the internal gradient        .... done
Number of atoms                         ....  14
Number of internal coordinates          ....  61
Current Energy                          ....  -399.431237961 Eh
Current gradient norm                   ....     0.000494122 Eh/bohr
Maximum allowed component of the step   ....  0.200
Current trust radius                    ....  0.300
Evaluating the initial hessian          ....  (Almloef) done
Projecting the Hessian                  .... done
Forming the augmented Hessian           .... done
Diagonalizing the augmented Hessian     .... done
Last element of RFO vector              ....  0.999999598
Lowest eigenvalues of augmented Hessian:
 -0.000000363  0.025499090  0.025818447  0.026649622  0.027033407
Length of the computed step             ....  0.000896561
The final length of the internal step   ....  0.000896561
Converting the step to cartesian space:
 Initial RMS(Int)=    0.0001147929
Transforming coordinates:
 Iter   0:  RMS(Cart)=    0.0001813719 RMS(Int)=    1.9705640892
 Iter   1:  RMS(Cart)=    0.0000000324 RMS(Int)=    0.0000000287
done
Storing new coordinates                 .... done

                                .--------------------.
          ----------------------|Geometry convergence|-------------------------
          Item                value                   Tolerance       Converged
          ---------------------------------------------------------------------
          RMS gradient        0.0000536763            0.0000300000      NO
          MAX gradient        0.0001674722            0.0001000000      NO
          RMS step            0.0001147929            0.0006000000      YES
          MAX step            0.0004486581            0.0010000000      YES
          ........................................................
          Max(Bonds)      0.0001      Max(Angles)    0.03
          Max(Dihed)        0.00      Max(Improp)    0.00
[...]
      7       0.182542   0.024801   0.050390   0.018140   0.024640   0.067851
      8       0.019541   0.062116  -0.023014   0.009119  -0.062232   0.082909
      9      -0.000000   0.000001  -0.000000   0.000001   0.000001  -0.000001
     10      -0.354424  -0.156246  -0.330604   0.070853   0.126095   0.232111
     11      -0.242068  -0.384925  -0.491582   0.115581   0.131144   0.585645
     12       0.000002  -0.000000  -0.000000  -0.000000   0.000002   0.000001
     13       0.319249  -0.196138   0.243256  -0.066418  -0.174957   0.041110
     14      -0.227736   0.495265  -0.379302   0.176433   0.290653   0.164091
     15      -0.000000   0.000000   0.000000   0.000000  -0.000000   0.000000
     16       0.199201   0.037072  -0.013924   0.052531   0.095454   0.019684
     17       0.015661   0.052917   0.028909  -0.029462   0.092400  -0.101855
     18      -0.000000   0.000000   0.000000   0.000000   0.000001  -0.000000
     19      -0.191562   0.045215   0.041621   0.043424  -0.073232  -0.037158
     20       0.028197  -0.061718   0.012706  -0.005231   0.080277  -0.078485
     21      -0.000000  -0.000000   0.000000  -0.000000   0.000000  -0.000001
     22       0.364422  -0.142027  -0.184396   0.250910  -0.109235  -0.308978
     23      -0.285500   0.408330   0.354002  -0.391614   0.508349   0.481574
     24       0.000001  -0.000001   0.000000  -0.000000  -0.000001   0.000000
     25      -0.433487  -0.229080   0.287061   0.134707   0.223117   0.011570
     26      -0.337327  -0.501052   0.388371   0.127779   0.559213  -0.027344
     27       0.000001  -0.000000  -0.000000  -0.000000   0.000001   0.000000
     28       0.000848  -0.048287  -0.032373  -0.098466  -0.029825   0.061283
     29      -0.005998   0.004594  -0.035702  -0.036149  -0.017539  -0.339995
     30       0.000000  -0.000000  -0.000000  -0.000000  -0.000000   0.000000
     31       0.000488  -0.003091  -0.010157  -0.055074  -0.003304   0.007316
     32       0.009122   0.004012   0.032775   0.064785   0.014984   0.183916
     33       0.000000  -0.000000  -0.000000   0.000000  -0.000000  -0.000000
     34      -0.005503   0.058566   0.070931   0.267289   0.041479  -0.005493
     35       0.026561  -0.157248  -0.181437  -0.773022  -0.101665   0.219967
     36       0.000000   0.000000   0.000000  -0.000000  -0.000000   0.000001
     37       0.001582   0.015788   0.001571   0.003579   0.003139   0.004425
     38       0.007327  -0.001924  -0.011920  -0.002717   0.055107  -0.009042
     39       0.000000  -0.000000  -0.000000  -0.000000   0.000000  -0.000000
     40       0.000222  -0.003306  -0.001247  -0.001457   0.004848  -0.001401
     41       0.015443  -0.002988  -0.020471  -0.005223   0.137325  -0.017030
                 30         31         32         33         34         35    
      0      -0.000000   0.000000  -0.000000   0.000000   0.000000  -0.000000
      1       0.197519  -0.177403   0.155770   0.044779   0.275778   0.064053
      2       0.013470   0.032639  -0.035436   0.173701  -0.066322   0.177849
      3       0.000000   0.000000   0.000000   0.000000  -0.000000   0.000000
      4      -0.042716   0.107001  -0.037701  -0.126694  -0.156478  -0.128914
      5       0.024805   0.167631   0.170748  -0.096386  -0.032104  -0.310330
      6       0.000000  -0.000000   0.000000   0.000000  -0.000000   0.000000
      7      -0.013141   0.126221  -0.081568   0.075391  -0.200311   0.032109
      8       0.005824  -0.158189  -0.155923  -0.105244   0.206175  -0.269413
      9      -0.000000   0.000000  -0.000001   0.000000   0.000001  -0.000000
     10      -0.306144  -0.118780  -0.295637   0.183761  -0.027854   0.268764
     11      -0.378388  -0.189936  -0.195173   0.424583   0.199051   0.307626
     12       0.000000   0.000000   0.000001  -0.000000  -0.000000  -0.000000
     13      -0.312823  -0.145538  -0.231139  -0.180520   0.102629  -0.234597
     14       0.571208   0.369371   0.067556   0.396517  -0.391669   0.209821
     15       0.000000  -0.000000  -0.000000  -0.000000   0.000000   0.000000
     16      -0.055091   0.057080  -0.003239   0.112021   0.209222  -0.012544
     17       0.034899  -0.131622  -0.194494  -0.120701  -0.125545   0.286663
     18      -0.000000  -0.000000  -0.000000  -0.000000   0.000000  -0.000000
     19      -0.074220   0.038315   0.047764  -0.090984   0.202745   0.129233
     20      -0.077801   0.064002   0.242157  -0.069008  -0.017001   0.302953
     21      -0.000000  -0.000000   0.000001   0.000000  -0.000000   0.000000
     22       0.114523   0.047991  -0.296910  -0.186057   0.040192   0.266046
     23      -0.306257  -0.126961   0.325080   0.479813   0.227369  -0.209795
     24       0.000000  -0.000000   0.000000   0.000000  -0.000000   0.000000
     25       0.175778   0.142238  -0.372595   0.149636   0.122471  -0.229624
     26       0.314910   0.219737  -0.378448   0.334654  -0.198456  -0.245587
     27      -0.000000  -0.000000   0.000000  -0.000000  -0.000000   0.000000
     28       0.014003  -0.207250   0.101148   0.006101  -0.404974  -0.108311
     29      -0.057422  -0.023215  -0.017039   0.214113   0.022239  -0.193087
     30       0.000000   0.000000   0.000000   0.000000  -0.000000  -0.000000
     31       0.018065   0.055595  -0.050627  -0.012199   0.058107   0.020684
     32       0.024655  -0.014989   0.018555  -0.053468  -0.016740   0.007645
     33       0.000000   0.000000   0.000000   0.000000   0.000000  -0.000000
     34      -0.046251  -0.222180   0.099623   0.038161  -0.138674  -0.068923
     35       0.192394   0.685309  -0.361245  -0.175162   0.458965   0.196434
     36       0.000000   0.000000   0.000000  -0.000000  -0.000000   0.000000
     37      -0.025762   0.012622  -0.029458  -0.004331  -0.018167  -0.003960
     38      -0.001575  -0.002288   0.002136  -0.003735   0.003672  -0.011629
     39       0.000000   0.000000   0.000000   0.000000   0.000000  -0.000000
     40       0.005839  -0.004953   0.005793  -0.000388   0.005570   0.000551
     41      -0.006942  -0.008018   0.007410  -0.037801   0.005491  -0.012762
                 36         37         38         39         40         41    
      0      -0.000000   0.000000  -0.000000  -0.000000  -0.000000   0.000000
      1       0.004296  -0.000244   0.001170  -0.003365   0.002271  -0.000049
      2       0.116729  -0.000525  -0.001274  -0.001822  -0.002129  -0.000426
      3       0.000000  -0.000000   0.000000   0.000000  -0.000000   0.000000
      4       0.007104   0.025274   0.002183   0.069591   0.006440   0.000182
      5       0.015549  -0.012497  -0.000850  -0.045336  -0.003792   0.000328
      6       0.000001  -0.000000  -0.000000   0.000000  -0.000000   0.000000
      7      -0.005713  -0.002890  -0.049993   0.006992  -0.058828   0.000035
      8       0.015970  -0.000964  -0.023764   0.004470  -0.033621   0.000301
      9       0.000000  -0.000000  -0.000000  -0.000000   0.000000   0.000000
     10      -0.005183  -0.288011  -0.020734  -0.789776  -0.068991   0.000508
     11       0.001224   0.178144   0.012883   0.498123   0.043090  -0.000823
     12      -0.000000  -0.000000  -0.000000   0.000000  -0.000000  -0.000000
     13       0.005193   0.030774   0.570389  -0.084227   0.666168  -0.000765
     14       0.001417   0.015986   0.297901  -0.044988   0.352827  -0.000306
     15       0.000000  -0.000000  -0.000000  -0.000000  -0.000000  -0.000000
     16       0.003499  -0.072578   0.003732   0.025934   0.003634  -0.000535
     17      -0.014162  -0.037462   0.002229   0.017255   0.001838  -0.001000
     18      -0.000001   0.000000  -0.000000  -0.000000   0.000000   0.000000
     19      -0.004615   0.001679   0.056115   0.001888  -0.047575  -0.000794
     20      -0.013701  -0.000579  -0.033765  -0.001944   0.033571  -0.000816
     21       0.000000  -0.000000  -0.000000   0.000000  -0.000000   0.000000
     22      -0.003436   0.828783  -0.042994  -0.292553  -0.038378   0.004047
     23      -0.001184   0.435060  -0.022991  -0.156871  -0.020148   0.002922
     24       0.000000   0.000000   0.000000   0.000000  -0.000000  -0.000000
     25       0.004118  -0.017171  -0.639374  -0.024121   0.541270  -0.000238
     26      -0.000940   0.010220   0.408351   0.016042  -0.349550  -0.000053
     27      -0.000001   0.000000   0.000000  -0.000000   0.000000  -0.000000
     28       0.000134   0.002398  -0.002161  -0.001582   0.002252   0.002136
     29       0.012668  -0.002710  -0.001382   0.001409   0.002196   0.000833
     30       0.000000   0.000000   0.000000   0.000000  -0.000000  -0.000000
     31       0.000488  -0.000323   0.000264   0.000255  -0.000197   0.057689
     32      -0.006036   0.000258   0.000072  -0.000246  -0.000309   0.023073
     33       0.000000   0.000000   0.000000   0.000000  -0.000000  -0.000000
     34      -0.008356   0.002497  -0.001178  -0.001864  -0.000566  -0.930642
     35      -0.001996   0.007541   0.000789  -0.002454  -0.002101  -0.360569
     36       0.000000  -0.000000   0.000000   0.000000   0.000000  -0.000000
     37      -0.029467   0.000077  -0.000219   0.000348  -0.000265   0.000011
     38      -0.803288   0.000062   0.000091   0.000058   0.000085   0.000473
     39      -0.000000   0.000000   0.000000   0.000000   0.000000  -0.000000
     40       0.021228  -0.000018   0.000050  -0.000056   0.000050  -0.000023
     41       0.581725   0.000031   0.000113   0.000200   0.000206  -0.000267


-----------
IR SPECTRUM
-----------

 Mode   freq       eps      Int      T**2         TX        TY        TZ
       cm**-1   L/(mol*cm) km/mol    a.u.
----------------------------------------------------------------------------
  6:    105.67   0.000717    3.62  0.002117  (-0.046010  0.000002 -0.000012)
  7:    157.74   0.002135   10.79  0.004224  (-0.000000  0.064097  0.010772)
  8:    264.29   0.000503    2.54  0.000594  ( 0.024374  0.000001 -0.000009)
  9:    404.66   0.025647  129.61  0.019778  ( 0.140635  0.000002 -0.000001)
 10:    415.45   0.003239   16.37  0.002433  (-0.000003 -0.003063  0.049233)
 11:    419.15   0.000004    0.02  0.000003  ( 0.000005 -0.000692 -0.001507)
 12:    423.79   0.010848   54.82  0.007988  (-0.089374  0.000002 -0.000005)
 13:    497.91   0.000438    2.21  0.000275  (-0.016571 -0.000001  0.000004)
 14:    574.49   0.009094   45.96  0.004940  ( 0.070284  0.000000 -0.000008)
 15:    576.79   0.000397    2.01  0.000215  ( 0.000003  0.013365  0.006021)
 16:    665.71   0.000210    1.06  0.000098  ( 0.000000  0.000182 -0.009909)
 17:    720.29   0.005595   28.28  0.002424  (-0.000000 -0.000158 -0.049235)
 18:    742.88   0.000000    0.00  0.000000  (-0.000024  0.000001 -0.000003)
 19:    832.80   0.000736    3.72  0.000276  ( 0.016608 -0.000001  0.000002)
 20:    861.85   0.019598   99.04  0.007096  ( 0.084239  0.000000 -0.000002)
 21:    863.29   0.002289   11.57  0.000827  (-0.000011 -0.001839 -0.028704)
 22:    975.15   0.000091    0.46  0.000029  ( 0.005392 -0.000001  0.000001)
 23:    985.41   0.000011    0.06  0.000003  ( 0.001869  0.000000  0.000002)
 24:   1032.44   0.000274    1.39  0.000083  ( 0.000000 -0.002014 -0.008879)
 25:   1131.83   0.004053   20.48  0.001117  (-0.000000 -0.029850 -0.015044)
 26:   1187.49   0.033221  167.88  0.008730  (-0.000000 -0.005727 -0.093259)
 27:   1202.60   0.042022  212.36  0.010904  (-0.000000  0.006524 -0.104219)
 28:   1240.66   0.000960    4.85  0.000241  ( 0.000000 -0.000799  0.015516)
 29:   1324.81   0.053905  272.41  0.012698  (-0.000000 -0.004719 -0.112585)
 30:   1337.06   0.000784    3.96  0.000183  (-0.000000 -0.009621 -0.009511)
 31:   1393.61   0.007490   37.85  0.001677  ( 0.000000 -0.003775  0.040778)
 32:   1478.45   0.004817   24.34  0.001017  ( 0.000000 -0.008627 -0.030698)
 33:   1552.52   0.035777  180.80  0.007191  ( 0.000000  0.002085  0.084777)
 34:   1640.13   0.009862   49.84  0.001876  (-0.000000 -0.022146  0.037229)
 35:   1666.82   0.061709  311.85  0.011553  ( 0.000000 -0.011657 -0.106852)
 36:   2338.19   0.065585  331.44  0.008753  (-0.000000 -0.004372 -0.093456)
 37:   3199.23   0.000837    4.23  0.000082  ( 0.000000  0.000127 -0.009035)
 38:   3211.50   0.000274    1.39  0.000027  ( 0.000000 -0.001323 -0.004989)
 39:   3219.89   0.000047    0.24  0.000005  ( 0.000000  0.001237  0.001742)
 40:   3224.78   0.000149    0.75  0.000014  ( 0.000000 -0.001255  0.003578)
 41:   3807.47   0.050353  254.46  0.004127  (-0.000000 -0.040562 -0.049816)

* The epsilon (eps) is given for a Dirac delta lineshape.
** The dipole moment derivative (T) already includes vibrational overlap.

The first frequency considered to be a vibration is 6
The total number of vibrations considered is 36


--------------------------
THERMOCHEMISTRY AT 298.15K
--------------------------

Temperature         ... 298.15 K
Pressure            ... 1.00 atm
Total Mass          ... 119.12 AMU

Throughout the following assumptions are being made:
  (1) The electronic state is orbitally nondegenerate
  (2) There are no thermally accessible electronically excited states
  (3) Hindered rotations indicated by low frequency modes are not
      treated as such but are treated as vibrations and this may
      cause some error
  (4) All equations used are the standard statistical mechanics
      equations for an ideal gas
  (5) All vibrations are strictly harmonic

freq.     105.67  E(vib)   ...       0.45 
freq.     157.74  E(vib)   ...       0.40 
freq.     264.29  E(vib)   ...       0.29 
freq.     404.66  E(vib)   ...       0.19 
freq.     415.45  E(vib)   ...       0.18 
freq.     419.15  E(vib)   ...       0.18 
freq.     423.79  E(vib)   ...       0.18 
freq.     497.91  E(vib)   ...       0.14 
freq.     574.49  E(vib)   ...       0.11 
freq.     576.79  E(vib)   ...       0.11 
freq.     665.71  E(vib)   ...       0.08 
freq.     720.29  E(vib)   ...       0.07 
freq.     742.88  E(vib)   ...       0.06 
freq.     832.80  E(vib)   ...       0.04 
freq.     861.85  E(vib)   ...       0.04 
freq.     863.29  E(vib)   ...       0.04 
freq.     975.15  E(vib)   ...       0.03 
freq.     985.41  E(vib)   ...       0.02 
freq.    1032.44  E(vib)   ...       0.02 
freq.    1131.83  E(vib)   ...       0.01 
freq.    1187.49  E(vib)   ...       0.01 
freq.    1202.60  E(vib)   ...       0.01 
freq.    1240.66  E(vib)   ...       0.01 
freq.    1324.81  E(vib)   ...       0.01 
freq.    1337.06  E(vib)   ...       0.01 
freq.    1393.61  E(vib)   ...       0.00 
freq.    1478.45  E(vib)   ...       0.00 
freq.    1552.52  E(vib)   ...       0.00 
freq.    1640.13  E(vib)   ...       0.00 
freq.    1666.82  E(vib)   ...       0.00 
freq.    2338.19  E(vib)   ...       0.00 
freq.    3199.23  E(vib)   ...       0.00 
freq.    3211.50  E(vib)   ...       0.00 
freq.    3219.89  E(vib)   ...       0.00 
freq.    3224.78  E(vib)   ...       0.00 
freq.    3807.47  E(vib)   ...       0.00 

------------
INNER ENERGY
------------

The inner energy is: U= E(el) + E(ZPE) + E(vib) + E(rot) + E(trans)
    E(el)   - is the total energy from the electronic structure calculation
              = E(kin-el) + E(nuc-el) + E(el-el) + E(nuc-nuc)
    E(ZPE)  - the the zero temperature vibrational energy from the frequency calculation
    E(vib)  - the the finite temperature correction to E(ZPE) due to population
              of excited vibrational states
    E(rot)  - is the rotational thermal energy
    E(trans)- is the translational thermal energy

Summary of contributions to the inner energy U:
Electronic energy                ...   -399.43123830 Eh
Zero point energy                ...      0.10405937 Eh      65.30 kcal/mol
Thermal vibrational correction   ...      0.00431855 Eh       2.71 kcal/mol
Thermal rotational correction    ...      0.00141627 Eh       0.89 kcal/mol
Thermal translational correction ...      0.00141627 Eh       0.89 kcal/mol
-----------------------------------------------------------------------
Total thermal energy                   -399.32002784 Eh


Summary of corrections to the electronic energy:
(perhaps to be used in another calculation)
Total thermal correction                  0.00715109 Eh       4.49 kcal/mol
Non-thermal (ZPE) correction              0.10405937 Eh      65.30 kcal/mol
-----------------------------------------------------------------------
Total correction                          0.11121046 Eh      69.79 kcal/mol


--------
ENTHALPY
--------

The enthalpy is H = U + kB*T
                kB is Boltzmann's constant
Total free energy                 ...   -399.32002784 Eh 
Thermal Enthalpy correction       ...      0.00094421 Eh       0.59 kcal/mol
-----------------------------------------------------------------------
Total Enthalpy                    ...   -399.31908363 Eh


Note: Rotational entropy computed according to Herzberg 
Infrared and Raman Spectra, Chapter V,1, Van Nostrand Reinhold, 1945 
Point Group:  Cs, Symmetry Number:   1  
Rotational constants in cm-1:     0.188192     0.033474     0.028419 

Vibrational entropy computed according to the QRRHO of S. Grimme
Chem.Eur.J. 2012 18 9955


-------
ENTROPY
-------

The entropy contributions are T*S = T*(S(el)+S(vib)+S(rot)+S(trans))
     S(el)   - electronic entropy
     S(vib)  - vibrational entropy
     S(rot)  - rotational entropy
     S(trans)- translational entropy
The entropies will be listed as multiplied by the temperature to get
units of energy

Electronic entropy                ...      0.00000000 Eh      0.00 kcal/mol
Vibrational entropy               ...      0.00690893 Eh      4.34 kcal/mol
Rotational entropy                ...      0.01358400 Eh      8.52 kcal/mol
Translational entropy             ...      0.01911907 Eh     12.00 kcal/mol
-----------------------------------------------------------------------
Final entropy term                ...      0.03961200 Eh     24.86 kcal/mol

In case the symmetry of your molecule has not been determined correctly
or in case you have a reason to use a different symmetry number we print 
out the resulting rotational entropy values for sn=1,12 :
 --------------------------------------------------------
|  sn= 1 | S(rot)=       0.01358400 Eh      8.52 kcal/mol|
|  sn= 2 | S(rot)=       0.01292954 Eh      8.11 kcal/mol|
|  sn= 3 | S(rot)=       0.01254671 Eh      7.87 kcal/mol|
|  sn= 4 | S(rot)=       0.01227508 Eh      7.70 kcal/mol|
|  sn= 5 | S(rot)=       0.01206440 Eh      7.57 kcal/mol|
|  sn= 6 | S(rot)=       0.01189225 Eh      7.46 kcal/mol|
|  sn= 7 | S(rot)=       0.01174671 Eh      7.37 kcal/mol|
|  sn= 8 | S(rot)=       0.01162063 Eh      7.29 kcal/mol|
|  sn= 9 | S(rot)=       0.01150942 Eh      7.22 kcal/mol|
|  sn=10 | S(rot)=       0.01140994 Eh      7.16 kcal/mol|
|  sn=11 | S(rot)=       0.01131995 Eh      7.10 kcal/mol|
|  sn=12 | S(rot)=       0.01123780 Eh      7.05 kcal/mol|
 --------------------------------------------------------


-------------------
GIBBS FREE ENERGY
-------------------

The Gibbs free energy is G = H - T*S

Total enthalpy                    ...   -399.31908363 Eh 
Total entropy correction          ...     -0.03961200 Eh    -24.86 kcal/mol
-----------------------------------------------------------------------
Final Gibbs free energy         ...   -399.35869563 Eh

For completeness - the Gibbs free energy minus the electronic energy
G-E(el)                           ...      0.07254267 Eh     45.52 kcal/mol


Timings for individual modules:

Sum of individual times         ...      213.153 sec (=   3.553 min)
GTO integral calculation        ...        4.744 sec (=   0.079 min)   2.2 %
SCF iterations                  ...       54.162 sec (=   0.903 min)  25.4 %
SCF Gradient evaluation         ...       10.417 sec (=   0.174 min)   4.9 %
Geometry relaxation             ...        0.196 sec (=   0.003 min)   0.1 %
Analytical frequency calculation...      143.632 sec (=   2.394 min)  67.4 %
                             ****ORCA TERMINATED NORMALLY****
TOTAL RUN TIME: 0 days 0 hours 3 minutes 42 seconds 172 msec
