
                                 *****************
                                 * O   R   C   A *
                                 *****************

                                            #,                                       
                                            ###                                      
                                            ####                                     
                                            #####                                    
                                            ######                                   
                                           ########,                                 
                                     ,,################,,,,,                         
                               ,,#################################,,                 
                          ,,##########################################,,             
                       ,#########################################, ''#####,          
                    ,#############################################,,   '####,        
                  ,##################################################,,,,####,       
                ,###########''''           ''''###############################       
              ,#####''   ,,,,##########,,,,          '''####'''          '####       
            ,##' ,,,,###########################,,,                        '##       
           ' ,,###''''                  '''############,,,                           
         ,,##''                                '''############,,,,        ,,,,,,###''
      ,#''                                            '''#######################'''  
     '                                                          ''''####''''         
             ,#######,   #######,   ,#######,      ##                                
            ,#'     '#,  ##    ##  ,#'     '#,    #''#        ######   ,####,        
            ##       ##  ##   ,#'  ##            #'  '#       #        #'  '#        
            ##       ##  #######   ##           ,######,      #####,   #    #        
            '#,     ,#'  ##    ##  '#,     ,#' ,#      #,         ##   #,  ,#        
             '#######'   ##     ##  '#######'  #'      '#     #####' # '####'        



                  #######################################################
                  #                        -***-                        #
                  #          Department of theory and spectroscopy      #
                  #    Directorship and core code : Frank Neese         #
                  #        Max Planck Institute fuer Kohlenforschung    #
                  #                Kaiser Wilhelm Platz 1               #
                  #                 D-45470 Muelheim/Ruhr               #
                  #                      Germany                        #
                  #                                                     #
                  #                  All rights reserved                #
                  #                        -***-                        #
                  #######################################################


                         Program Version 5.0.4 -  RELEASE  -


 With contributions from (in alphabetic order):
   Daniel Aravena         : Magnetic Suceptibility
   Michael Atanasov       : Ab Initio Ligand Field Theory (pilot matlab implementation)
   Alexander A. Auer      : GIAO ZORA, VPT2 properties, NMR spectrum
   Ute Becker             : Parallelization
   Giovanni Bistoni       : ED, misc. LED, open-shell LED, HFLD
   Martin Brehm           : Molecular dynamics
   Dmytro Bykov           : SCF Hessian
   Vijay G. Chilkuri      : MRCI spin determinant printing, contributions to CSF-ICE
   Dipayan Datta          : RHF DLPNO-CCSD density
   Achintya Kumar Dutta   : EOM-CC, STEOM-CC
   Dmitry Ganyushin       : Spin-Orbit,Spin-Spin,Magnetic field MRCI
   Miquel Garcia          : C-PCM and meta-GGA Hessian, CC/C-PCM, Gaussian charge scheme
   Yang Guo               : DLPNO-NEVPT2, F12-NEVPT2, CIM, IAO-localization
   Andreas Hansen         : Spin unrestricted coupled pair/coupled cluster methods
   Benjamin Helmich-Paris : MC-RPA, TRAH-SCF, COSX integrals
   Lee Huntington         : MR-EOM, pCC
   Robert Izsak           : Overlap fitted RIJCOSX, COSX-SCS-MP3, EOM
   Marcus Kettner         : VPT2
   Christian Kollmar      : KDIIS, OOCD, Brueckner-CCSD(T), CCSD density, CASPT2, CASPT2-K
   Simone Kossmann        : Meta GGA functionals, TD-DFT gradient, OOMP2, MP2 Hessian
   Martin Krupicka        : Initial AUTO-CI
   Lucas Lang             : DCDCAS
   Marvin Lechner         : AUTO-CI (C++ implementation), FIC-MRCC
   Dagmar Lenk            : GEPOL surface, SMD
   Dimitrios Liakos       : Extrapolation schemes; Compound Job, initial MDCI parallelization
   Dimitrios Manganas     : Further ROCIS development; embedding schemes
   Dimitrios Pantazis     : SARC Basis sets
   Anastasios Papadopoulos: AUTO-CI, single reference methods and gradients
   Taras Petrenko         : DFT Hessian,TD-DFT gradient, ASA, ECA, R-Raman, ABS, FL, XAS/XES, NRVS
   Peter Pinski           : DLPNO-MP2, DLPNO-MP2 Gradient
   Christoph Reimann      : Effective Core Potentials
   Marius Retegan         : Local ZFS, SOC
   Christoph Riplinger    : Optimizer, TS searches, QM/MM, DLPNO-CCSD(T), (RO)-DLPNO pert. Triples
   Tobias Risthaus        : Range-separated hybrids, TD-DFT gradient, RPA, STAB
   Michael Roemelt        : Original ROCIS implementation
   Masaaki Saitow         : Open-shell DLPNO-CCSD energy and density
   Barbara Sandhoefer     : DKH picture change effects
   Avijit Sen             : IP-ROCIS
   Kantharuban Sivalingam : CASSCF convergence, NEVPT2, FIC-MRCI
   Bernardo de Souza      : ESD, SOC TD-DFT
   Georgi Stoychev        : AutoAux, RI-MP2 NMR, DLPNO-MP2 response
   Willem Van den Heuvel  : Paramagnetic NMR
   Boris Wezisla          : Elementary symmetry handling
   Frank Wennmohs         : Technical directorship


 We gratefully acknowledge several colleagues who have allowed us to
 interface, adapt or use parts of their codes:
   Stefan Grimme, W. Hujo, H. Kruse, P. Pracht,  : VdW corrections, initial TS optimization,
                  C. Bannwarth, S. Ehlert          DFT functionals, gCP, sTDA/sTD-DF
   Ed Valeev, F. Pavosevic, A. Kumar             : LibInt (2-el integral package), F12 methods
   Garnet Chan, S. Sharma, J. Yang, R. Olivares  : DMRG
   Ulf Ekstrom                                   : XCFun DFT Library
   Mihaly Kallay                                 : mrcc  (arbitrary order and MRCC methods)
   Jiri Pittner, Ondrej Demel                    : Mk-CCSD
   Frank Weinhold                                : gennbo (NPA and NBO analysis)
   Christopher J. Cramer and Donald G. Truhlar   : smd solvation model
   Lars Goerigk                                  : TD-DFT with DH, B97 family of functionals
   V. Asgeirsson, H. Jonsson                     : NEB implementation
   FAccTs GmbH                                   : IRC, NEB, NEB-TS, DLPNO-Multilevel, CI-OPT
                                                   MM, QMMM, 2- and 3-layer-ONIOM, Crystal-QMMM,
                                                   LR-CPCM, SF, NACMEs, symmetry and pop. for TD-DFT,
                                                   nearIR, NL-DFT gradient (VV10), updates on ESD,
                                                   ML-optimized integration grids
   S Lehtola, MJT Oliveira, MAL Marques          : LibXC Library
   Liviu Ungur et al                             : ANISO software


 Your calculation uses the libint2 library for the computation of 2-el integrals
 For citations please refer to: http://libint.valeyev.net

 Your ORCA version has been built with support for libXC version: 5.1.0
 For citations please refer to: https://tddft.org/programs/libxc/

 This ORCA versions uses:
   CBLAS   interface :  Fast vector & matrix operations
   LAPACKE interface :  Fast linear algebra routines
   SCALAPACK package :  Parallel linear algebra routines
   Shared memory     :  Shared parallel matrices
   BLAS/LAPACK       :  OpenBLAS 0.3.15  USE64BITINT DYNAMIC_ARCH NO_AFFINITY Haswell SINGLE_THREADED
        Core in use  :  Haswell
   Copyright (c) 2011-2014, The OpenBLAS Project


Your calculation utilizes the atom-pairwise dispersion correction
with the Becke-Johnson damping scheme (D3BJ)
Cite in your paper:
S.Grimme, S.Ehrlich, L.Goerigk, J Comput Chem, (2011), 32, 1456–1465 
S.Grimme, J.Antony, S.Ehrlich and H.Krieg, J.Chem.Phys., 132, (2010), 154104 
   

================================================================================

----- Orbital basis set information -----
Your calculation utilizes the basis: def2-TZVP
   F. Weigend and R. Ahlrichs, Phys. Chem. Chem. Phys. 7, 3297 (2005).

----- AuxJ basis set information -----
Your calculation utilizes the auxiliary basis: def2/J
   F. Weigend, Phys. Chem. Chem. Phys. 8, 1057 (2006).

================================================================================
                                        WARNINGS
                       Please study these warnings very carefully!
================================================================================


WARNING: Geometry Optimization
  ===> : Switching off AutoStart
         For restart on a previous wavefunction, please use MOREAD

INFO   : the flag for use of the SHARK integral package has been found!

================================================================================
                                       INPUT FILE
================================================================================
NAME = CO2Me-PhenOH/CO2Me-PhenOH.inp
|  1> %pal nprocs 24 end
|  2> %maxcore 3500
|  3> ! PBE0 D3BJ def2-TZVP TightSCF OPT FREQ TightOpt
|  4> ! CPCM(dmso)
|  5> %scf
|  6> MaxIter 800
|  7> end
|  8> %geom
|  9> MaxIter 800
| 10> MaxStep 0.2
| 11> end
| 12> *xyz 0 1
| 13> 
| 14> C       0.00006900     -0.58276200     -1.58125600
| 15> C       0.00002700      0.65273000     -0.93661800
| 16> C       0.00006100     -1.74773800     -0.81252900
| 17> H       0.00003200      1.55879700     -1.53016100
| 18> H       0.00009100     -2.71441400     -1.29960200
| 19> C      -0.00001600      0.73056100      0.44119100
| 20> C       0.00001700     -1.68184700      0.56605600
| 21> H      -0.00004700      1.69382300      0.94080800
| 22> H       0.00001200     -2.58392200      1.16638800
| 23> C      -0.00002200     -0.43983800      1.19883600
| 24> O      -0.00006500     -0.42387900      2.54515300
| 25> H      -0.00008800      0.48696000      2.86431700
| 26> C       0.00012000     -0.60727000     -3.05524300
| 27> O       0.00002100      0.38148000     -3.75747300
| 28> O       0.00004000     -1.84487800     -3.55160800
| 29> C      -0.00004700     -1.95071900     -4.97459800
| 30> H      -0.89019700     -1.47916200     -5.39252100
| 31> H       0.89009500     -1.47923500     -5.39262300
| 32> H      -0.00010300     -3.01615000     -5.19112000
| 33> *
| 34> 
| 35>                          ****END OF INPUT****
================================================================================

                       *****************************
                       * Geometry Optimization Run *
                       *****************************

Geometry optimization settings:
Update method            Update   .... BFGS
Choice of coordinates    CoordSys .... Z-matrix Internals
Initial Hessian          InHess   .... Almoef's Model

Convergence Tolerances:
Energy Change            TolE     ....  1.0000e-06 Eh
Max. Gradient            TolMAXG  ....  1.0000e-04 Eh/bohr
RMS Gradient             TolRMSG  ....  3.0000e-05 Eh/bohr
Max. Displacement        TolMAXD  ....  1.0000e-03 bohr
RMS Displacement         TolRMSD  ....  6.0000e-04 bohr
Strict Convergence                ....  False
------------------------------------------------------------------------------
                        ORCA OPTIMIZATION COORDINATE SETUP
------------------------------------------------------------------------------

The optimization will be done in new redundant internal coordinates
Making redundant internal coordinates   ...  (new redundants) done
Evaluating the initial hessian          ...  (Almloef) done
Evaluating the coordinates              ...  done
Calculating the B-matrix                .... done
Calculating the G-matrix                .... done
Diagonalizing the G-matrix              .... done
Small eigenvalue found = 1.317e-02
The first mode is                       ....   32
The number of degrees of freedom        ....   51

    -----------------------------------------------------------------
                    Redundant Internal Coordinates


    -----------------------------------------------------------------
         Definition                    Initial Value    Approx d2E/dq
    -----------------------------------------------------------------
      1. B(C   1,C   0)                  1.3936         0.616687   
      2. B(C   2,C   0)                  1.3957         0.611743   
      3. B(H   3,C   1)                  1.0832         0.369254   
      4. B(H   4,C   2)                  1.0825         0.370225   
      5. B(C   5,C   1)                  1.3800         0.648163   
      6. B(C   6,C   2)                  1.3802         0.647798   
      7. B(H   7,C   5)                  1.0851         0.366610   
      8. B(H   8,C   6)                  1.0836         0.368699   
      9. B(C   9,C   6)                  1.3939         0.615877   
     10. B(C   9,C   5)                  1.3942         0.615177   
     11. B(O  10,C   9)                  1.3464         0.656777   
     12. B(H  11,O  10)                  0.9651         0.510232   
     13. B(C  12,C   0)                  1.4742         0.458583   
     14. B(O  13,C  12)                  1.2127         1.073180   
     15. B(O  14,C  12)                  1.3334         0.688842   
     16. B(C  15,O  14)                  1.4269         0.488619   
     17. B(H  16,C  15)                  1.0906         0.359317   
     18. B(H  17,C  15)                  1.0906         0.359315   
     19. B(H  18,C  15)                  1.0872         0.363810   
     20. A(C   2,C   0,C  12)          122.4669         0.410322   
     21. A(C   1,C   0,C   2)          119.0265         0.432604   
     22. A(C   1,C   0,C  12)          118.5066         0.410908   
     23. A(C   0,C   1,H   3)          119.2181         0.354091   
     24. A(H   3,C   1,C   5)          119.9947         0.357095   
     25. A(C   0,C   1,C   5)          120.7872         0.437131   
     26. A(H   4,C   2,C   6)          119.4783         0.357220   
     27. A(C   0,C   2,C   6)          120.6830         0.436453   
     28. A(C   0,C   2,H   4)          119.8387         0.353766   
     29. A(H   7,C   5,C   9)          119.6689         0.353513   
     30. A(C   1,C   5,C   9)          119.6834         0.436937   
     31. A(C   1,C   5,H   7)          120.6476         0.356659   
     32. A(H   8,C   6,C   9)          119.3582         0.353922   
     33. A(C   2,C   6,C   9)          119.7344         0.436983   
     34. A(C   2,C   6,H   8)          120.9074         0.356969   
     35. A(C   5,C   9,O  10)          122.2374         0.435107   
     36. A(C   5,C   9,C   6)          120.0855         0.432937   
     37. A(C   6,C   9,O  10)          117.6771         0.435196   
     38. A(C   9,O  10,H  11)          109.9899         0.372592   
     39. A(O  13,C  12,O  14)          122.7627         0.482557   
     40. A(C   0,C  12,O  14)          112.8067         0.416355   
     41. A(C   0,C  12,O  13)          124.4306         0.450911   
     42. A(C  12,O  14,C  15)          116.1079         0.418357   
     43. A(H  17,C  15,H  18)          110.3262         0.291208   
     44. A(H  16,C  15,H  18)          110.3262         0.291209   
     45. A(O  14,C  15,H  18)          105.7413         0.337579   
     46. A(H  16,C  15,H  17)          109.4131         0.290640   
     47. A(O  14,C  15,H  17)          110.4951         0.336881   
     48. A(O  14,C  15,H  16)          110.4952         0.336881   
     49. D(C   5,C   1,C   0,C  12)   -179.9997         0.026299   
     50. D(H   3,C   1,C   0,C  12)      0.0000         0.026299   
     51. D(C   5,C   1,C   0,C   2)      0.0003         0.026299   
     52. D(H   3,C   1,C   0,C   2)   -179.9999         0.026299   
     53. D(H   4,C   2,C   0,C  12)     -0.0001         0.025854   
     54. D(C   6,C   2,C   0,C   1)     -0.0002         0.025854   
     55. D(H   4,C   2,C   0,C   1)    179.9999         0.025854   
     56. D(C   6,C   2,C   0,C  12)    179.9998         0.025854   
     57. D(C   9,C   5,C   1,H   3)   -180.0000         0.029240   
     58. D(C   9,C   5,C   1,C   0)     -0.0002         0.029240   
     59. D(H   7,C   5,C   1,H   3)      0.0001         0.029240   
     60. D(H   7,C   5,C   1,C   0)    179.9999         0.029240   
     61. D(H   8,C   6,C   2,H   4)     -0.0000         0.029205   
     62. D(C   9,C   6,C   2,C   0)      0.0001         0.029205   
     63. D(H   8,C   6,C   2,C   0)   -179.9999         0.029205   
     64. D(C   9,C   6,C   2,H   4)   -180.0000         0.029205   
     65. D(O  10,C   9,C   6,H   8)     -0.0000         0.026226   
     66. D(C   5,C   9,C   6,H   8)    180.0000         0.026226   
     67. D(C   5,C   9,C   6,C   2)     -0.0000         0.026226   
     68. D(O  10,C   9,C   5,H   7)     -0.0000         0.026163   
     69. D(O  10,C   9,C   5,C   1)   -179.9999         0.026163   
     70. D(O  10,C   9,C   6,C   2)    180.0000         0.026226   
     71. D(C   6,C   9,C   5,H   7)    180.0000         0.026163   
     72. D(C   6,C   9,C   5,C   1)      0.0001         0.026163   
     73. D(H  11,O  10,C   9,C   6)    179.9999         0.031934   
     74. D(H  11,O  10,C   9,C   5)     -0.0001         0.031934   
     75. D(O  14,C  12,C   0,C   2)      0.0054         0.014327   
     76. D(O  14,C  12,C   0,C   1)   -179.9945         0.014327   
     77. D(O  13,C  12,C   0,C   2)    179.9938         0.014327   
     78. D(O  13,C  12,C   0,C   1)     -0.0061         0.014327   
     79. D(C  15,O  14,C  12,C   0)    179.9942         0.035426   
     80. D(C  15,O  14,C  12,O  13)      0.0056         0.035426   
     81. D(H  18,C  15,O  14,C  12)    180.0000         0.018850   
     82. D(H  17,C  15,O  14,C  12)     60.6170         0.018850   
     83. D(H  16,C  15,O  14,C  12)    -60.6169         0.018850   
    -----------------------------------------------------------------

Number of atoms                         .... 19
Number of degrees of freedom            .... 83

         *************************************************************
         *                GEOMETRY OPTIMIZATION CYCLE   1            *
         *************************************************************
---------------------------------
CARTESIAN COORDINATES (ANGSTROEM)
---------------------------------
  C      0.000069   -0.582762   -1.581256
  C      0.000027    0.652730   -0.936618
  C      0.000061   -1.747738   -0.812529
  H      0.000032    1.558797   -1.530161
  H      0.000091   -2.714414   -1.299602
  C     -0.000016    0.730561    0.441191
  C      0.000017   -1.681847    0.566056
  H     -0.000047    1.693823    0.940808
  H      0.000012   -2.583922    1.166388
  C     -0.000022   -0.439838    1.198836
  O     -0.000065   -0.423879    2.545153
  H     -0.000088    0.486960    2.864317
  C      0.000120   -0.607270   -3.055243
  O      0.000021    0.381480   -3.757473
  O      0.000040   -1.844878   -3.551608
  C     -0.000047   -1.950719   -4.974598
  H     -0.890197   -1.479162   -5.392521
  H      0.890095   -1.479235   -5.392623
  H     -0.000103   -3.016150   -5.191120

----------------------------
CARTESIAN COORDINATES (A.U.)
----------------------------
  NO LB      ZA    FRAG     MASS         X           Y           Z
   0 C     6.0000    0    12.011    0.000130   -1.101261   -2.988141
   1 C     6.0000    0    12.011    0.000051    1.233481   -1.769952
   2 C     6.0000    0    12.011    0.000115   -3.302746   -1.535457
   3 H     1.0000    0     1.008    0.000060    2.945699   -2.891585
   4 H     1.0000    0     1.008    0.000172   -5.129499   -2.455892
   5 C     6.0000    0    12.011   -0.000030    1.380560    0.833730
   6 C     6.0000    0    12.011    0.000032   -3.178230    1.069691
   7 H     1.0000    0     1.008   -0.000089    3.200862    1.777869
   8 H     1.0000    0     1.008    0.000023   -4.882905    2.204154
   9 C     6.0000    0    12.011   -0.000042   -0.831173    2.265472
  10 O     8.0000    0    15.999   -0.000123   -0.801015    4.809642
  11 H     1.0000    0     1.008   -0.000166    0.920221    5.412775
  12 C     6.0000    0    12.011    0.000227   -1.147574   -5.773573
  13 O     8.0000    0    15.999    0.000040    0.720893   -7.100595
  14 O     8.0000    0    15.999    0.000076   -3.486314   -6.711566
  15 C     6.0000    0    12.011   -0.000089   -3.686325   -9.400628
  16 H     1.0000    0     1.008   -1.682229   -2.795211  -10.190388
  17 H     1.0000    0     1.008    1.682036   -2.795349  -10.190581
  18 H     1.0000    0     1.008   -0.000195   -5.699697   -9.809795

--------------------------------
INTERNAL COORDINATES (ANGSTROEM)
--------------------------------
 C      0   0   0     0.000000000000     0.00000000     0.00000000
 C      1   0   0     1.393556111132     0.00000000     0.00000000
 C      1   2   0     1.395747212488   119.02654132     0.00000000
 H      2   1   3     1.083166977600   119.21811096   180.00006498
 H      3   1   2     1.082452122362   119.83869439   179.99986189
 C      2   1   3     1.380005545964   120.78717498     0.00000000
 C      3   1   2     1.380158769143   120.68299386     0.00000000
 H      6   2   1     1.085122494603   120.64764725   179.99989839
 H      7   3   1     1.083576400571   120.90738024   180.00008342
 C      7   3   1     1.393914231939   119.73441147     0.00000000
 O     10   7   3     1.346411584925   117.67712067   179.99996248
 H     11  10   7     0.965139027988   109.98993994   179.99993686
 C      1   2   3     1.474190734211   118.50660181   179.99998396
 O     13   1   2     1.212746282287   124.43056028     0.00000000
 O     13   1   2     1.333436080691   112.80671273   180.00545106
 C     15  13   1     1.426920763375   116.10793032   179.99419857
 H     16  15  13     1.090592802414   110.49522715   299.38305654
 H     16  15  13     1.090593802956   110.49512834    60.61696050
 H     16  15  13     1.087209729252   105.74126995   179.99996544

---------------------------
INTERNAL COORDINATES (A.U.)
---------------------------
 C      0   0   0     0.000000000000     0.00000000     0.00000000
 C      1   0   0     2.633439402291     0.00000000     0.00000000
 C      1   2   0     2.637579983787   119.02654132     0.00000000
 H      2   1   3     2.046888944971   119.21811096   180.00006498
 H      3   1   2     2.045538064345   119.83869439   179.99986189
 C      2   1   3     2.607832545164   120.78717498     0.00000000
 C      3   1   2     2.608122095010   120.68299386     0.00000000
 H      6   2   1     2.050584336558   120.64764725   179.99989839
 H      7   3   1     2.047662642259   120.90738024   180.00008342
 C      7   3   1     2.634116152540   119.73441147     0.00000000
 O     10   7   3     2.544349159046   117.67712067   179.99996248
 H     11  10   7     1.823848444057   109.98993994   179.99993686
 C      1   2   3     2.785816756823   118.50660181   179.99998396
 O     13   1   2     2.291758343454   124.43056028     0.00000000
 O     13   1   2     2.519829009596   112.80671273   180.00545106
 C     15  13   1     2.696489457584   116.10793032   179.99419857
 H     16  15  13     2.060921720189   110.49522715   299.38305654
 H     16  15  13     2.060923610938   110.49512834    60.61696050
 H     16  15  13     2.054528638422   105.74126995   179.99996544

---------------------
BASIS SET INFORMATION
---------------------
There are 3 groups of distinct atoms

 Group   1 Type C   : 11s6p2d1f contracted to 5s3p2d1f pattern {62111/411/11/1}
 Group   2 Type H   : 5s1p contracted to 3s1p pattern {311/1}
 Group   3 Type O   : 11s6p2d1f contracted to 5s3p2d1f pattern {62111/411/11/1}

Atom   0C    basis set group =>   1
Atom   1C    basis set group =>   1
Atom   2C    basis set group =>   1
Atom   3H    basis set group =>   2
Atom   4H    basis set group =>   2
Atom   5C    basis set group =>   1
Atom   6C    basis set group =>   1
Atom   7H    basis set group =>   2
Atom   8H    basis set group =>   2
Atom   9C    basis set group =>   1
Atom  10O    basis set group =>   3
Atom  11H    basis set group =>   2
Atom  12C    basis set group =>   1
Atom  13O    basis set group =>   3
Atom  14O    basis set group =>   3
Atom  15C    basis set group =>   1
Atom  16H    basis set group =>   2
Atom  17H    basis set group =>   2
Atom  18H    basis set group =>   2
---------------------------------
AUXILIARY/J BASIS SET INFORMATION
---------------------------------
There are 3 groups of distinct atoms

 Group   1 Type C   : 12s5p4d2f1g contracted to 6s4p3d1f1g pattern {711111/2111/211/2/1}
 Group   2 Type H   : 5s2p1d contracted to 3s1p1d pattern {311/2/1}
 Group   3 Type O   : 12s5p4d2f1g contracted to 6s4p3d1f1g pattern {711111/2111/211/2/1}

Atom   0C    basis set group =>   1
Atom   1C    basis set group =>   1
Atom   2C    basis set group =>   1
Atom   3H    basis set group =>   2
Atom   4H    basis set group =>   2
Atom   5C    basis set group =>   1
Atom   6C    basis set group =>   1
Atom   7H    basis set group =>   2
Atom   8H    basis set group =>   2
Atom   9C    basis set group =>   1
Atom  10O    basis set group =>   3
Atom  11H    basis set group =>   2
Atom  12C    basis set group =>   1
Atom  13O    basis set group =>   3
Atom  14O    basis set group =>   3
Atom  15C    basis set group =>   1
Atom  16H    basis set group =>   2
Atom  17H    basis set group =>   2
Atom  18H    basis set group =>   2


           ************************************************************
           *        Program running with 24 parallel MPI-processes    *
           *              working on a common directory               *
           ************************************************************
------------------------------------------------------------------------------
                           ORCA GTO INTEGRAL CALCULATION
                           -- RI-GTO INTEGRALS CHOSEN --
------------------------------------------------------------------------------
------------------------------------------------------------------------------
                   ___                                                        
                  /   \      - P O W E R E D   B Y -                         
                 /     \                                                     
                 |  |  |   _    _      __       _____    __    __             
                 |  |  |  | |  | |    /  \     |  _  \  |  |  /  |          
                  \  \/   | |  | |   /    \    | | | |  |  | /  /          
                 / \  \   | |__| |  /  /\  \   | |_| |  |  |/  /          
                |  |  |   |  __  | /  /__\  \  |    /   |      \           
                |  |  |   | |  | | |   __   |  |    \   |  |\   \          
                \     /   | |  | | |  |  |  |  | |\  \  |  | \   \       
                 \___/    |_|  |_| |__|  |__|  |_| \__\ |__|  \__/        
                                                                              
                      - O R C A' S   B I G   F R I E N D -                    
                                      &                                       
                       - I N T E G R A L  F E E D E R -                       
                                                                              
 v1 FN, 2020, v2 2021                                                         
------------------------------------------------------------------------------


Reading SHARK input file CO2Me-PhenOH/CO2Me-PhenOH.SHARKINP.tmp ... ok
----------------------
SHARK INTEGRAL PACKAGE
----------------------

Number of atoms                             ...     19
Number of basis functions                   ...    389
Number of shells                            ...    153
Maximum angular momentum                    ...      3
Integral batch strategy                     ... SHARK/LIBINT Hybrid
RI-J (if used) integral strategy            ... SPLIT-RIJ (Revised 2003 algorithm where possible)
Printlevel                                  ...      1
Contraction scheme used                     ... SEGMENTED contraction
Coulomb Range Separation                    ... NOT USED
Exchange Range Separation                   ... NOT USED
Finite Nucleus Model                        ... NOT USED
Auxiliary Coulomb fitting basis             ... AVAILABLE
   # of basis functions in Aux-J            ...    627
   # of shells in Aux-J                     ...    205
   Maximum angular momentum in Aux-J        ...      4
Auxiliary J/K fitting basis                 ... NOT available
Auxiliary Correlation fitting basis         ... NOT available
Auxiliary 'external' fitting basis          ... NOT available
Integral threshold                          ...     2.500000e-11
Primitive cut-off                           ...     2.500000e-12
Primitive pair pre-selection threshold      ...     2.500000e-12

Calculating pre-screening integrals         ... done (  0.1 sec) Dimension = 153
Organizing shell pair data                  ... done (  0.1 sec)
Shell pair information
Total number of shell pairs                 ...     11781
Shell pairs after pre-screening             ...      9839
Total number of primitive shell pairs       ...     36312
Primitive shell pairs kept                  ...     21864
          la=0 lb=0:   2509 shell pairs
          la=1 lb=0:   2753 shell pairs
          la=1 lb=1:    770 shell pairs
          la=2 lb=0:   1444 shell pairs
          la=2 lb=1:    794 shell pairs
          la=2 lb=2:    218 shell pairs
          la=3 lb=0:    695 shell pairs
          la=3 lb=1:    394 shell pairs
          la=3 lb=2:    207 shell pairs
          la=3 lb=3:     55 shell pairs

Calculating one electron integrals          ... done (  0.0 sec)
Calculating RI/J V-Matrix + Cholesky decomp.... done (  0.1 sec)
Calculating Nuclear repulsion               ... done (  0.0 sec) ENN=    578.897524256617 Eh

SHARK setup successfully completed in   0.6 seconds

Maximum memory used throughout the entire GTOINT-calculation: 23.0 MB


           ************************************************************
           *        Program running with 24 parallel MPI-processes    *
           *              working on a common directory               *
           ************************************************************
-------------------------------------------------------------------------------
                                 ORCA SCF
-------------------------------------------------------------------------------

------------
SCF SETTINGS
------------
Hamiltonian:
 Density Functional     Method          .... DFT(GTOs)
 Exchange Functional    Exchange        .... PBE
   PBE kappa parameter   XKappa         ....  0.804000
   PBE mue parameter    XMuePBE         ....  0.219520
 Correlation Functional Correlation     .... PBE
   PBE beta parameter  CBetaPBE         ....  0.066725
 LDA part of GGA corr.  LDAOpt          .... PW91-LDA
 Gradients option       PostSCFGGA      .... off
 Hybrid DFT is turned on
   Fraction HF Exchange ScalHFX         ....  0.250000
   Scaling of DF-GGA-X  ScalDFX         ....  0.750000
   Scaling of DF-GGA-C  ScalDFC         ....  1.000000
   Scaling of DF-LDA-C  ScalLDAC        ....  1.000000
   Perturbative correction              ....  0.000000
   Density functional embedding theory  .... OFF
   NL short-range parameter             ....  6.900000
 RI-approximation to the Coulomb term is turned on
   Number of AuxJ basis functions       .... 627
   RIJ-COSX (HFX calculated with COS-X)).... on


General Settings:
 Integral files         IntName         .... CO2Me-PhenOH/CO2Me-PhenOH
 Hartree-Fock type      HFTyp           .... RHF
 Total Charge           Charge          ....    0
 Multiplicity           Mult            ....    1
 Number of Electrons    NEL             ....   80
 Basis Dimension        Dim             ....  389
 Nuclear Repulsion      ENuc            ....    578.8975242566 Eh

Convergence Acceleration:
 DIIS                   CNVDIIS         .... on
   Start iteration      DIISMaxIt       ....    12
   Startup error        DIISStart       ....  0.200000
   # of expansion vecs  DIISMaxEq       ....     5
   Bias factor          DIISBfac        ....   1.050
   Max. coefficient     DIISMaxC        ....  10.000
 Trust-Rad. Augm. Hess. CNVTRAH         .... auto
   Auto Start mean grad. ratio tolernc. ....  1.125000
   Auto Start start iteration           ....    20
   Auto Start num. interpolation iter.  ....    10
   Max. Number of Micro iterations      ....    16
   Max. Number of Macro iterations      .... Maxiter - #DIIS iter
   Number of Davidson start vectors     ....     2
   Converg. threshold I  (grad. norm)   ....   1.000e-05
   Converg. threshold II (energy diff.) ....   1.000e-08
   Grad. Scal. Fac. for Micro threshold ....   0.100
   Minimum threshold for Micro iter.    ....   0.010
   NR start threshold (gradient norm)   ....   0.001
   Initial trust radius                 ....   0.400
   Minimum AH scaling param. (alpha)    ....   1.000
   Maximum AH scaling param. (alpha)    .... 1000.000
   Orbital update algorithm             .... Taylor
   White noise on init. David. guess    .... on
   Maximum white noise                  ....   0.010
   Quad. conv. algorithm                .... NR
 SOSCF                  CNVSOSCF        .... on
   Start iteration      SOSCFMaxIt      ....   150
   Startup grad/error   SOSCFStart      ....  0.003300
 Level Shifting         CNVShift        .... on
   Level shift para.    LevelShift      ....    0.2500
   Turn off err/grad.   ShiftErr        ....    0.0010
 Zerner damping         CNVZerner       .... off
 Static damping         CNVDamp         .... on
   Fraction old density DampFac         ....    0.7000
   Max. Damping (<1)    DampMax         ....    0.9800
   Min. Damping (>=0)   DampMin         ....    0.0000
   Turn off err/grad.   DampErr         ....    0.1000
 Fernandez-Rico         CNVRico         .... off

SCF Procedure:
 Maximum # iterations   MaxIter         ....   800
 SCF integral mode      SCFMode         .... Direct
   Integral package                     .... SHARK and LIBINT hybrid scheme
 Reset frequency        DirectResetFreq ....    20
 Integral Threshold     Thresh          ....  2.500e-11 Eh
 Primitive CutOff       TCut            ....  2.500e-12 Eh

Convergence Tolerance:
 Convergence Check Mode ConvCheckMode   .... Total+1el-Energy
 Convergence forced     ConvForced      .... 0
 Energy Change          TolE            ....  1.000e-08 Eh
 1-El. energy change                    ....  1.000e-05 Eh
 Orbital Gradient       TolG            ....  1.000e-05
 Orbital Rotation angle TolX            ....  1.000e-05
 DIIS Error             TolErr          ....  5.000e-07


Diagonalization of the overlap matrix:
Smallest eigenvalue                        ... 8.733e-06
Time for diagonalization                   ...    0.036 sec
Threshold for overlap eigenvalues          ... 1.000e-08
Number of eigenvalues below threshold      ... 0
Time for construction of square roots      ...    0.030 sec
Total time needed                          ...    0.069 sec

Time for model grid setup =    0.122 sec

------------------------------
INITIAL GUESS: MODEL POTENTIAL
------------------------------
Loading Hartree-Fock densities                     ... done
Calculating cut-offs                               ... done
Initializing the effective Hamiltonian             ... done
Setting up the integral package (SHARK)            ... done
Starting the Coulomb interaction                   ... done (   0.1 sec)
Reading the grid                                   ... done
Mapping shells                                     ... done
Starting the XC term evaluation                    ... done (   0.0 sec)
  promolecular density results
     # of electrons  =     79.993786926
     EX              =    -67.771805901
     EC              =     -2.682356418
     EX+EC           =    -70.454162319
Transforming the Hamiltonian                       ... done (   0.0 sec)
Diagonalizing the Hamiltonian                      ... done (   0.0 sec)
Back transforming the eigenvectors                 ... done (   0.0 sec)
Now organizing SCF variables                       ... done
                      ------------------
                      INITIAL GUESS DONE (   0.4 sec)
                      ------------------
-------------------
DFT GRID GENERATION
-------------------

General Integration Accuracy     IntAcc      ... 4.388
Radial Grid Type                 RadialGrid  ... OptM3 with GC (2021)
Angular Grid (max. ang.)         AngularGrid ... 4 (Lebedev-302)
Angular grid pruning method      GridPruning ... 4 (adaptive)
Weight generation scheme         WeightScheme... Becke
Basis function cutoff            BFCut       ... 1.0000e-11
Integration weight cutoff        WCut        ... 1.0000e-14
Angular grids for H and He will be reduced by one unit
Partially contracted basis set               ... off
Rotationally invariant grid construction     ... off

Total number of grid points                  ...    92021
Total number of batches                      ...     1445
Average number of points per batch           ...       63
Average number of grid points per atom       ...     4843
Time for grid setup =    0.507 sec

--------------------
COSX GRID GENERATION
--------------------

GRIDX 1
-------
General Integration Accuracy     IntAcc      ... 3.816
Radial Grid Type                 RadialGrid  ... OptM3 with GC (2021)
Angular Grid (max. ang.)         AngularGrid ... 1 (Lebedev-50)
Angular grid pruning method      GridPruning ... 4 (adaptive)
Weight generation scheme         WeightScheme... Becke
Basis function cutoff            BFCut       ... 1.0000e-11
Integration weight cutoff        WCut        ... 1.0000e-14
Angular grids for H and He will be reduced by one unit
Partially contracted basis set               ... on
Rotationally invariant grid construction     ... off

Total number of grid points                  ...    11764
Total number of batches                      ...      193
Average number of points per batch           ...       60
Average number of grid points per atom       ...      619
UseSFitting                                  ... on

GRIDX 2
-------
General Integration Accuracy     IntAcc      ... 4.020
Radial Grid Type                 RadialGrid  ... OptM3 with GC (2021)
Angular Grid (max. ang.)         AngularGrid ... 2 (Lebedev-110)
Angular grid pruning method      GridPruning ... 4 (adaptive)
Weight generation scheme         WeightScheme... Becke
Basis function cutoff            BFCut       ... 1.0000e-11
Integration weight cutoff        WCut        ... 1.0000e-14
Angular grids for H and He will be reduced by one unit
Partially contracted basis set               ... on
Rotationally invariant grid construction     ... off

Total number of grid points                  ...    25854
Total number of batches                      ...      414
Average number of points per batch           ...       62
Average number of grid points per atom       ...     1361
UseSFitting                                  ... on

GRIDX 3
-------
General Integration Accuracy     IntAcc      ... 4.338
Radial Grid Type                 RadialGrid  ... OptM3 with GC (2021)
Angular Grid (max. ang.)         AngularGrid ... 3 (Lebedev-194)
Angular grid pruning method      GridPruning ... 4 (adaptive)
Weight generation scheme         WeightScheme... Becke
Basis function cutoff            BFCut       ... 1.0000e-11
Integration weight cutoff        WCut        ... 1.0000e-14
Angular grids for H and He will be reduced by one unit
Partially contracted basis set               ... on
Rotationally invariant grid construction     ... off

Total number of grid points                  ...    56906
Total number of batches                      ...      900
Average number of points per batch           ...       63
Average number of grid points per atom       ...     2995
UseSFitting                                  ... on

Time for X-Grid setup             =    0.741 sec


--------------------
CPCM SOLVATION MODEL
--------------------
CPCM parameters:
  Epsilon                                         ...      47.2000
  Refrac                                          ...       1.4790
  Rsolv                                           ...       1.3000
  Surface type                                    ... GAUSSIAN VDW
  Epsilon function type                           ...         CPCM
Radii:
 Radius for C  used is    3.8550 Bohr (=   2.0400 Ang.)
 Radius for H  used is    2.4944 Bohr (=   1.3200 Ang.)
 Radius for O  used is    3.4469 Bohr (=   1.8240 Ang.)
Calculating surface                               ...        done! (  0.0s)
GEPOL surface points                              ...         1071
GEPOL Volume                                      ...    1228.1033
GEPOL Surface-area                                ...     684.2983
Calculating surface distance matrix               ...        done! (  0.0s)
Performing Cholesky decomposition & store         ...        done! (  0.1s)
Overall time for CPCM initialization              ...                 0.1s
--------------
SCF ITERATIONS
--------------
ITER       Energy         Delta-E        Max-DP      RMS-DP      [F,P]     Damp
               ***  Starting incremental Fock matrix formation  ***
  0   -534.7036710540   0.000000000000 0.07621055  0.00112983  0.2830206 0.7000
  1   -534.8253336586  -0.121662604554 0.08186214  0.00098314  0.1204523 0.7000
                               ***Turning on DIIS***
  2   -534.8750899968  -0.049756338247 0.12685486  0.00164275  0.0366125 0.0000
  3   -534.9553995242  -0.080309527387 0.07551627  0.00077576  0.0548353 0.0000
  4   -534.9704682324  -0.015068708207 0.02129215  0.00023559  0.0123685 0.0000
  5   -534.9713221191  -0.000853886654 0.00727592  0.00008808  0.0061613 0.0000
                      *** Initiating the SOSCF procedure ***
                           *** Shutting down DIIS ***
                      *** Re-Reading the Fockian *** 
                      *** Removing any level shift *** 
ITER      Energy       Delta-E        Grad      Rot      Max-DP    RMS-DP
  6   -534.97139238  -0.0000702620  0.000225  0.000225  0.002117  0.000028
               *** Restarting incremental Fock matrix formation ***
  7   -534.97138087   0.0000115088  0.000115  0.000407  0.000763  0.000019
  8   -534.97138041   0.0000004628  0.000238  0.000319  0.000430  0.000006
  9   -534.97138195  -0.0000015365  0.000031  0.000061  0.000081  0.000002
 10   -534.97138191   0.0000000352  0.000045  0.000038  0.000055  0.000001
 11   -534.97138197  -0.0000000628  0.000004  0.000009  0.000165  0.000002
 12   -534.97138198  -0.0000000029  0.000004  0.000006  0.000059  0.000001
                  ***Gradient check signals convergence***
              ***Rediagonalizing the Fockian in SOSCF/NRSCF***

               *****************************************************
               *                     SUCCESS                       *
               *           SCF CONVERGED AFTER  13 CYCLES          *
               *****************************************************

Old exchange energy                            =    -17.270141356 Eh
New exchange energy                            =    -17.270135014 Eh
Exchange energy change after final integration =      0.000006342 Eh
Total energy after final integration           =   -534.971375636 Eh
Final COS-X integration done in                =     2.453 sec

----------------
TOTAL SCF ENERGY
----------------

Total Energy       :         -534.97137564 Eh          -14557.31121 eV

Components:
Nuclear Repulsion  :          578.89752426 Eh           15752.60248 eV
Electronic Energy  :        -1113.86889989 Eh          -30309.91369 eV
One Electron Energy:        -1876.89560778 Eh          -51072.92599 eV
Two Electron Energy:          763.02670789 Eh           20763.01229 eV
Max COSX asymmetry :            0.00000164 Eh               0.00004 eV
CPCM Dielectric    :           -0.01803742 Eh              -0.49082 eV

Virial components:
Potential Energy   :        -1067.62157833 Eh          -29051.46009 eV
Kinetic Energy     :          532.65020270 Eh           14494.14888 eV
Virial Ratio       :            2.00435778


DFT components:
N(Alpha)           :       39.999998266609 electrons
N(Beta)            :       39.999998266609 electrons
N(Total)           :       79.999996533217 electrons
E(X)               :      -51.717660162861 Eh       
E(C)               :       -2.691771897345 Eh       
E(XC)              :      -54.409432060206 Eh       
DFET-embed. en.    :        0.000000000000 Eh       
CPCM Solvation Model Properties:
Surface-charge          :           -0.02168040
Charge-correction       :            0.00003995 Eh               0.00109 eV
Free-energy (cav+disp)  :  This term is not implemented in the current solvation scheme

---------------
SCF CONVERGENCE
---------------

  Last Energy change         ...   -8.6504e-10  Tolerance :   1.0000e-08
  Last MAX-Density change    ...    1.1102e-15  Tolerance :   1.0000e-07
  Last RMS-Density change    ...    1.5103e-17  Tolerance :   5.0000e-09
  Last Orbital Gradient      ...    8.4213e-07  Tolerance :   1.0000e-05
  Last Orbital Rotation      ...    2.7637e-06  Tolerance :   1.0000e-05

             **** THE GBW FILE WAS UPDATED (CO2Me-PhenOH/CO2Me-PhenOH.gbw) ****
             **** DENSITY CO2Me-PhenOH/CO2Me-PhenOH.scfp WAS UPDATED ****
             **** ENERGY FILE WAS UPDATED (CO2Me-PhenOH/CO2Me-PhenOH.en.tmp) ****
             **** THE GBW FILE WAS UPDATED (CO2Me-PhenOH/CO2Me-PhenOH.gbw) ****
             **** DENSITY CO2Me-PhenOH/CO2Me-PhenOH.scfp WAS UPDATED ****
----------------
ORBITAL ENERGIES
----------------

  NO   OCC          E(Eh)            E(eV) 
   0   2.0000     -19.257115      -524.0127 
   1   2.0000     -19.247494      -523.7509 
   2   2.0000     -19.194093      -522.2978 
   3   2.0000     -10.353614      -281.7362 
   4   2.0000     -10.302007      -280.3319 
   5   2.0000     -10.267873      -279.4030 
   6   2.0000     -10.241134      -278.6754 
   7   2.0000     -10.240800      -278.6663 
   8   2.0000     -10.239796      -278.6390 
   9   2.0000     -10.232630      -278.4440 
  10   2.0000     -10.230469      -278.3852 
  11   2.0000      -1.145531       -31.1715 
  12   2.0000      -1.107615       -30.1397 
  13   2.0000      -1.050649       -28.5896 
  14   2.0000      -0.896812       -24.4035 
  15   2.0000      -0.800319       -21.7778 
  16   2.0000      -0.786968       -21.4145 
  17   2.0000      -0.744083       -20.2475 
  18   2.0000      -0.666919       -18.1478 
  19   2.0000      -0.642470       -17.4825 
  20   2.0000      -0.591238       -16.0884 
  21   2.0000      -0.574510       -15.6332 
  22   2.0000      -0.557735       -15.1767 
  23   2.0000      -0.509774       -13.8716 
  24   2.0000      -0.505994       -13.7688 
  25   2.0000      -0.489896       -13.3308 
  26   2.0000      -0.468972       -12.7614 
  27   2.0000      -0.449710       -12.2372 
  28   2.0000      -0.446029       -12.1371 
  29   2.0000      -0.442525       -12.0417 
  30   2.0000      -0.422572       -11.4988 
  31   2.0000      -0.419408       -11.4127 
  32   2.0000      -0.397466       -10.8156 
  33   2.0000      -0.376015       -10.2319 
  34   2.0000      -0.363361        -9.8875 
  35   2.0000      -0.357196        -9.7198 
  36   2.0000      -0.325953        -8.8696 
  37   2.0000      -0.302495        -8.2313 
  38   2.0000      -0.282186        -7.6787 
  39   2.0000      -0.252176        -6.8621 
  40   0.0000      -0.042932        -1.1682 
  41   0.0000      -0.017376        -0.4728 
  42   0.0000       0.060816         1.6549 
  43   0.0000       0.060926         1.6579 
  44   0.0000       0.063380         1.7247 
  45   0.0000       0.080151         2.1810 
  46   0.0000       0.097301         2.6477 
  47   0.0000       0.099784         2.7153 
  48   0.0000       0.116656         3.1744 
  49   0.0000       0.130962         3.5637 
  50   0.0000       0.138804         3.7770 
  51   0.0000       0.144388         3.9290 
  52   0.0000       0.147494         4.0135 
  53   0.0000       0.164985         4.4895 
  54   0.0000       0.172151         4.6845 
  55   0.0000       0.197504         5.3744 
  56   0.0000       0.205730         5.5982 
  57   0.0000       0.209808         5.7092 
  58   0.0000       0.219858         5.9826 
  59   0.0000       0.223746         6.0884 
  60   0.0000       0.232276         6.3206 
  61   0.0000       0.249912         6.8005 
  62   0.0000       0.250348         6.8123 
  63   0.0000       0.255627         6.9560 
  64   0.0000       0.260944         7.1007 
  65   0.0000       0.274383         7.4664 
  66   0.0000       0.279388         7.6025 
  67   0.0000       0.311293         8.4707 
  68   0.0000       0.321073         8.7368 
  69   0.0000       0.324751         8.8369 
  70   0.0000       0.327356         8.9078 
  71   0.0000       0.332269         9.0415 
  72   0.0000       0.337220         9.1762 
  73   0.0000       0.349100         9.4995 
  74   0.0000       0.355175         9.6648 
  75   0.0000       0.371715        10.1149 
  76   0.0000       0.375597        10.2205 
  77   0.0000       0.388006        10.5582 
  78   0.0000       0.393980        10.7207 
  79   0.0000       0.406122        11.0511 
  80   0.0000       0.417368        11.3572 
  81   0.0000       0.421116        11.4591 
  82   0.0000       0.430997        11.7280 
  83   0.0000       0.442508        12.0413 
  84   0.0000       0.459654        12.5078 
  85   0.0000       0.465112        12.6563 
  86   0.0000       0.466537        12.6951 
  87   0.0000       0.478641        13.0245 
  88   0.0000       0.486388        13.2353 
  89   0.0000       0.489865        13.3299 
  90   0.0000       0.496643        13.5144 
  91   0.0000       0.505755        13.7623 
  92   0.0000       0.518318        14.1042 
  93   0.0000       0.530009        14.4223 
  94   0.0000       0.545016        14.8306 
  95   0.0000       0.545394        14.8409 
  96   0.0000       0.557464        15.1694 
  97   0.0000       0.560315        15.2469 
  98   0.0000       0.594116        16.1667 
  99   0.0000       0.606966        16.5164 
 100   0.0000       0.608579        16.5603 
 101   0.0000       0.634631        17.2692 
 102   0.0000       0.657873        17.9016 
 103   0.0000       0.662898        18.0384 
 104   0.0000       0.671477        18.2718 
 105   0.0000       0.675359        18.3774 
 106   0.0000       0.679247        18.4832 
 107   0.0000       0.707827        19.2609 
 108   0.0000       0.728353        19.8195 
 109   0.0000       0.730127        19.8678 
 110   0.0000       0.736695        20.0465 
 111   0.0000       0.757870        20.6227 
 112   0.0000       0.770220        20.9588 
 113   0.0000       0.783126        21.3099 
 114   0.0000       0.798863        21.7382 
 115   0.0000       0.803271        21.8581 
 116   0.0000       0.813867        22.1465 
 117   0.0000       0.825509        22.4632 
 118   0.0000       0.838888        22.8273 
 119   0.0000       0.851555        23.1720 
 120   0.0000       0.869610        23.6633 
 121   0.0000       0.871367        23.7111 
 122   0.0000       0.887548        24.1514 
 123   0.0000       0.903626        24.5889 
 124   0.0000       0.907325        24.6896 
 125   0.0000       0.910406        24.7734 
 126   0.0000       0.935107        25.4455 
 127   0.0000       0.995902        27.0999 
 128   0.0000       0.999233        27.1905 
 129   0.0000       1.007375        27.4121 
 130   0.0000       1.019638        27.7458 
 131   0.0000       1.033881        28.1333 
 132   0.0000       1.056536        28.7498 
 133   0.0000       1.069035        29.0899 
 134   0.0000       1.092809        29.7368 
 135   0.0000       1.110858        30.2280 
 136   0.0000       1.137948        30.9651 
 137   0.0000       1.145466        31.1697 
 138   0.0000       1.189690        32.3731 
 139   0.0000       1.196368        32.5548 
 140   0.0000       1.215597        33.0781 
 141   0.0000       1.222967        33.2786 
 142   0.0000       1.224834        33.3294 
 143   0.0000       1.266148        34.4536 
 144   0.0000       1.269472        34.5441 
 145   0.0000       1.293298        35.1924 
 146   0.0000       1.324617        36.0447 
 147   0.0000       1.334625        36.3170 
 148   0.0000       1.357978        36.9525 
 149   0.0000       1.359522        36.9945 
 150   0.0000       1.384822        37.6829 
 151   0.0000       1.407253        38.2933 
 152   0.0000       1.434594        39.0373 
 153   0.0000       1.454315        39.5739 
 154   0.0000       1.487865        40.4869 
 155   0.0000       1.493477        40.6396 
 156   0.0000       1.497515        40.7494 
 157   0.0000       1.511760        41.1371 
 158   0.0000       1.522609        41.4323 
 159   0.0000       1.529867        41.6298 
 160   0.0000       1.539230        41.8846 
 161   0.0000       1.543235        41.9936 
 162   0.0000       1.550084        42.1799 
 163   0.0000       1.575275        42.8654 
 164   0.0000       1.593953        43.3737 
 165   0.0000       1.609202        43.7886 
 166   0.0000       1.626479        44.2588 
 167   0.0000       1.630318        44.3632 
 168   0.0000       1.642924        44.7062 
 169   0.0000       1.674054        45.5533 
 170   0.0000       1.690110        45.9902 
 171   0.0000       1.705598        46.4117 
 172   0.0000       1.736108        47.2419 
 173   0.0000       1.744318        47.4653 
 174   0.0000       1.756971        47.8096 
 175   0.0000       1.767042        48.0837 
 176   0.0000       1.774097        48.2756 
 177   0.0000       1.806017        49.1442 
 178   0.0000       1.817405        49.4541 
 179   0.0000       1.823594        49.6225 
 180   0.0000       1.859979        50.6126 
 181   0.0000       1.876316        51.0571 
 182   0.0000       1.908170        51.9239 
 183   0.0000       1.925830        52.4045 
 184   0.0000       1.937548        52.7234 
 185   0.0000       1.969572        53.5948 
 186   0.0000       1.972602        53.6772 
 187   0.0000       1.999574        54.4112 
 188   0.0000       2.021579        55.0099 
 189   0.0000       2.034907        55.3726 
 190   0.0000       2.040776        55.5323 
 191   0.0000       2.046206        55.6801 
 192   0.0000       2.069818        56.3226 
 193   0.0000       2.092876        56.9500 
 194   0.0000       2.112386        57.4810 
 195   0.0000       2.132864        58.0382 
 196   0.0000       2.146151        58.3997 
 197   0.0000       2.150257        58.5115 
 198   0.0000       2.181232        59.3543 
 199   0.0000       2.184374        59.4398 
 200   0.0000       2.192492        59.6608 
 201   0.0000       2.231341        60.7179 
 202   0.0000       2.267108        61.6911 
 203   0.0000       2.272085        61.8266 
 204   0.0000       2.303426        62.6794 
 205   0.0000       2.313489        62.9532 
 206   0.0000       2.326542        63.3084 
 207   0.0000       2.341931        63.7272 
 208   0.0000       2.345918        63.8357 
 209   0.0000       2.360491        64.2322 
 210   0.0000       2.389912        65.0328 
 211   0.0000       2.411712        65.6260 
 212   0.0000       2.430721        66.1433 
 213   0.0000       2.447419        66.5977 
 214   0.0000       2.460314        66.9485 
 215   0.0000       2.518594        68.5344 
 216   0.0000       2.544275        69.2333 
 217   0.0000       2.553334        69.4798 
 218   0.0000       2.555922        69.5502 
 219   0.0000       2.576287        70.1043 
 220   0.0000       2.582911        70.2846 
 221   0.0000       2.623513        71.3894 
 222   0.0000       2.631655        71.6110 
 223   0.0000       2.652612        72.1812 
 224   0.0000       2.659116        72.3582 
 225   0.0000       2.671293        72.6896 
 226   0.0000       2.696832        73.3845 
 227   0.0000       2.702867        73.5487 
 228   0.0000       2.709234        73.7220 
 229   0.0000       2.725479        74.1640 
 230   0.0000       2.737901        74.5021 
 231   0.0000       2.742793        74.6352 
 232   0.0000       2.754552        74.9552 
 233   0.0000       2.798087        76.1398 
 234   0.0000       2.809050        76.4381 
 235   0.0000       2.809193        76.4420 
 236   0.0000       2.811685        76.5098 
 237   0.0000       2.823336        76.8269 
 238   0.0000       2.849282        77.5329 
 239   0.0000       2.867514        78.0290 
 240   0.0000       2.885671        78.5231 
 241   0.0000       2.905109        79.0520 
 242   0.0000       2.911099        79.2150 
 243   0.0000       2.926208        79.6262 
 244   0.0000       2.944035        80.1113 
 245   0.0000       2.945642        80.1550 
 246   0.0000       2.963276        80.6348 
 247   0.0000       2.973315        80.9080 
 248   0.0000       2.985515        81.2400 
 249   0.0000       3.012956        81.9867 
 250   0.0000       3.033447        82.5443 
 251   0.0000       3.044587        82.8474 
 252   0.0000       3.078430        83.7683 
 253   0.0000       3.085748        83.9675 
 254   0.0000       3.118188        84.8502 
 255   0.0000       3.121927        84.9519 
 256   0.0000       3.130054        85.1731 
 257   0.0000       3.150948        85.7416 
 258   0.0000       3.156284        85.8869 
 259   0.0000       3.164434        86.1086 
 260   0.0000       3.170451        86.2723 
 261   0.0000       3.215049        87.4859 
 262   0.0000       3.215063        87.4863 
 263   0.0000       3.234780        88.0229 
 264   0.0000       3.255973        88.5995 
 265   0.0000       3.260135        88.7128 
 266   0.0000       3.273290        89.0707 
 267   0.0000       3.286092        89.4191 
 268   0.0000       3.302363        89.8619 
 269   0.0000       3.303266        89.8864 
 270   0.0000       3.319971        90.3410 
 271   0.0000       3.324354        90.4603 
 272   0.0000       3.335407        90.7610 
 273   0.0000       3.358065        91.3776 
 274   0.0000       3.379440        91.9592 
 275   0.0000       3.393755        92.3488 
 276   0.0000       3.397739        92.4572 
 277   0.0000       3.405134        92.6584 
 278   0.0000       3.407385        92.7197 
 279   0.0000       3.414714        92.9191 
 280   0.0000       3.422717        93.1369 
 281   0.0000       3.437530        93.5400 
 282   0.0000       3.473111        94.5082 
 283   0.0000       3.484609        94.8210 
 284   0.0000       3.495681        95.1223 
 285   0.0000       3.503450        95.3337 
 286   0.0000       3.511938        95.5647 
 287   0.0000       3.539603        96.3175 
 288   0.0000       3.544219        96.4431 
 289   0.0000       3.572480        97.2121 
 290   0.0000       3.595026        97.8256 
 291   0.0000       3.595671        97.8432 
 292   0.0000       3.640828        99.0720 
 293   0.0000       3.646783        99.2340 
 294   0.0000       3.673657        99.9653 
 295   0.0000       3.681282       100.1728 
 296   0.0000       3.756129       102.2095 
 297   0.0000       3.796639       103.3118 
 298   0.0000       3.807197       103.5991 
 299   0.0000       3.837114       104.4132 
 300   0.0000       3.876564       105.4867 
 301   0.0000       3.904585       106.2492 
 302   0.0000       3.914428       106.5170 
 303   0.0000       3.977578       108.2354 
 304   0.0000       3.994078       108.6844 
 305   0.0000       4.030578       109.6776 
 306   0.0000       4.057243       110.4032 
 307   0.0000       4.106840       111.7528 
 308   0.0000       4.136460       112.5588 
 309   0.0000       4.178300       113.6973 
 310   0.0000       4.202243       114.3489 
 311   0.0000       4.207561       114.4936 
 312   0.0000       4.217054       114.7519 
 313   0.0000       4.220642       114.8495 
 314   0.0000       4.231285       115.1391 
 315   0.0000       4.253108       115.7329 
 316   0.0000       4.264684       116.0479 
 317   0.0000       4.283583       116.5622 
 318   0.0000       4.330142       117.8292 
 319   0.0000       4.366054       118.8064 
 320   0.0000       4.396753       119.6417 
 321   0.0000       4.420850       120.2974 
 322   0.0000       4.459137       121.3393 
 323   0.0000       4.513610       122.8216 
 324   0.0000       4.525113       123.1346 
 325   0.0000       4.618472       125.6750 
 326   0.0000       4.624422       125.8369 
 327   0.0000       4.645817       126.4191 
 328   0.0000       4.671502       127.1180 
 329   0.0000       4.706755       128.0773 
 330   0.0000       4.806838       130.8007 
 331   0.0000       4.845944       131.8648 
 332   0.0000       4.900332       133.3448 
 333   0.0000       4.921894       133.9315 
 334   0.0000       4.935386       134.2987 
 335   0.0000       5.009015       136.3022 
 336   0.0000       5.144690       139.9941 
 337   0.0000       5.170960       140.7090 
 338   0.0000       5.208205       141.7225 
 339   0.0000       5.240118       142.5909 
 340   0.0000       5.268940       143.3752 
 341   0.0000       5.307472       144.4237 
 342   0.0000       5.346169       145.4766 
 343   0.0000       5.355054       145.7184 
 344   0.0000       5.475058       148.9839 
 345   0.0000       5.491761       149.4384 
 346   0.0000       5.499738       149.6555 
 347   0.0000       5.517817       150.1474 
 348   0.0000       5.531075       150.5082 
 349   0.0000       5.614088       152.7671 
 350   0.0000       5.690140       154.8366 
 351   0.0000       5.696991       155.0230 
 352   0.0000       5.824314       158.4876 
 353   0.0000       5.911833       160.8692 
 354   0.0000       5.998579       163.2296 
 355   0.0000       6.029243       164.0640 
 356   0.0000       6.147952       167.2943 
 357   0.0000       6.201611       168.7544 
 358   0.0000       6.285681       171.0421 
 359   0.0000       6.366906       173.2523 
 360   0.0000       6.369283       173.3170 
 361   0.0000       6.430514       174.9832 
 362   0.0000       6.433937       175.0763 
 363   0.0000       6.447295       175.4398 
 364   0.0000       6.577071       178.9712 
 365   0.0000       6.671788       181.5486 
 366   0.0000       6.729372       183.1155 
 367   0.0000       6.752159       183.7356 
 368   0.0000       6.783394       184.5855 
 369   0.0000       6.818098       185.5299 
 370   0.0000       6.906356       187.9315 
 371   0.0000       6.974090       189.7746 
 372   0.0000       7.003382       190.5717 
 373   0.0000       7.073305       192.4744 
 374   0.0000       7.156160       194.7290 
 375   0.0000       7.301478       198.6833 
 376   0.0000       7.362027       200.3309 
 377   0.0000       7.477485       203.4727 
 378   0.0000      22.238606       605.1432 
 379   0.0000      22.450436       610.9074 
 380   0.0000      22.765781       619.4884 
 381   0.0000      22.802521       620.4881 
 382   0.0000      22.850906       621.8048 
 383   0.0000      23.033686       626.7785 
 384   0.0000      23.386391       636.3761 
 385   0.0000      23.618412       642.6897 
 386   0.0000      44.004053      1197.4112 
 387   0.0000      44.029247      1198.0967 
 388   0.0000      44.246703      1204.0140 

                    ********************************
                    * MULLIKEN POPULATION ANALYSIS *
                    ********************************

-----------------------
MULLIKEN ATOMIC CHARGES
-----------------------
   0 C :    0.113751
   1 C :   -0.216283
   2 C :   -0.220848
   3 H :    0.155740
   4 H :    0.156681
   5 C :   -0.221624
   6 C :   -0.228524
   7 H :    0.163624
   8 H :    0.149911
   9 C :    0.282838
  10 O :   -0.414558
  11 H :    0.372958
  12 C :    0.363220
  13 O :   -0.427547
  14 O :   -0.231592
  15 C :   -0.256137
  16 H :    0.149753
  17 H :    0.149754
  18 H :    0.158882
Sum of atomic charges:    0.0000000

--------------------------------
MULLIKEN REDUCED ORBITAL CHARGES
--------------------------------
  0 C s       :     3.167890  s :     3.167890
      pz      :     0.756476  p :     2.581844
      px      :     1.029487
      py      :     0.795881
      dz2     :     0.036539  d :     0.126519
      dxz     :     0.014378
      dyz     :     0.031977
      dx2y2   :     0.020332
      dxy     :     0.023294
      f0      :     0.001452  f :     0.009995
      f+1     :     0.000827
      f-1     :     0.003426
      f+2     :     0.000914
      f-2     :     0.001136
      f+3     :     0.001431
      f-3     :     0.000810
  1 C s       :     3.233460  s :     3.233460
      pz      :     0.987607  p :     2.874517
      px      :     0.917262
      py      :     0.969647
      dz2     :     0.017962  d :     0.100823
      dxz     :     0.022789
      dyz     :     0.039717
      dx2y2   :     0.008920
      dxy     :     0.011436
      f0      :     0.000836  f :     0.007483
      f+1     :     0.001535
      f-1     :     0.002245
      f+2     :     0.000767
      f-2     :     0.000432
      f+3     :     0.001033
      f-3     :     0.000635
  2 C s       :     3.260209  s :     3.260209
      pz      :     0.950183  p :     2.851102
      px      :     0.920186
      py      :     0.980733
      dz2     :     0.022875  d :     0.102113
      dxz     :     0.024330
      dyz     :     0.036481
      dx2y2   :     0.009251
      dxy     :     0.009175
      f0      :     0.000908  f :     0.007425
      f+1     :     0.001491
      f-1     :     0.002201
      f+2     :     0.000708
      f-2     :     0.000590
      f+3     :     0.000851
      f-3     :     0.000676
  3 H s       :     0.821694  s :     0.821694
      pz      :     0.007380  p :     0.022566
      px      :     0.004281
      py      :     0.010905
  4 H s       :     0.820826  s :     0.820826
      pz      :     0.006175  p :     0.022493
      px      :     0.004318
      py      :     0.012000
  5 C s       :     3.225715  s :     3.225715
      pz      :     0.916828  p :     2.906240
      px      :     1.030563
      py      :     0.958848
      dz2     :     0.018260  d :     0.082504
      dxz     :     0.016428
      dyz     :     0.030264
      dx2y2   :     0.009236
      dxy     :     0.008316
      f0      :     0.000873  f :     0.007165
      f+1     :     0.001438
      f-1     :     0.002059
      f+2     :     0.000776
      f-2     :     0.000437
      f+3     :     0.000888
      f-3     :     0.000693
  6 C s       :     3.248685  s :     3.248685
      pz      :     0.924892  p :     2.890803
      px      :     1.021642
      py      :     0.944269
      dz2     :     0.015924  d :     0.081604
      dxz     :     0.015851
      dyz     :     0.031485
      dx2y2   :     0.007953
      dxy     :     0.010391
      f0      :     0.000802  f :     0.007432
      f+1     :     0.001434
      f-1     :     0.002249
      f+2     :     0.000834
      f-2     :     0.000373
      f+3     :     0.001054
      f-3     :     0.000686
  7 H s       :     0.814139  s :     0.814139
      pz      :     0.005468  p :     0.022237
      px      :     0.004981
      py      :     0.011788
  8 H s       :     0.827803  s :     0.827803
      pz      :     0.006632  p :     0.022286
      px      :     0.004932
      py      :     0.010723
  9 C s       :     3.003779  s :     3.003779
      pz      :     0.720270  p :     2.513918
      px      :     0.885500
      py      :     0.908148
      dz2     :     0.035053  d :     0.183529
      dxz     :     0.048905
      dyz     :     0.058995
      dx2y2   :     0.015588
      dxy     :     0.024988
      f0      :     0.002640  f :     0.015936
      f+1     :     0.003445
      f-1     :     0.005480
      f+2     :     0.000760
      f-2     :     0.001085
      f+3     :     0.001696
      f-3     :     0.000830
 10 O s       :     3.751971  s :     3.751971
      pz      :     1.345167  p :     4.628036
      px      :     1.801855
      py      :     1.481014
      dz2     :     0.011780  d :     0.032773
      dxz     :     0.005889
      dyz     :     0.007383
      dx2y2   :     0.006454
      dxy     :     0.001267
      f0      :     0.000537  f :     0.001778
      f+1     :     0.000321
      f-1     :     0.000279
      f+2     :     0.000223
      f-2     :     0.000021
      f+3     :     0.000053
      f-3     :     0.000344
 11 H s       :     0.581970  s :     0.581970
      pz      :     0.010896  p :     0.045072
      px      :     0.014629
      py      :     0.019547
 12 C s       :     3.066822  s :     3.066822
      pz      :     0.809384  p :     2.281401
      px      :     0.759699
      py      :     0.712318
      dz2     :     0.066055  d :     0.263525
      dxz     :     0.037502
      dyz     :     0.059174
      dx2y2   :     0.035636
      dxy     :     0.065159
      f0      :     0.002289  f :     0.025031
      f+1     :     0.001248
      f-1     :     0.009041
      f+2     :     0.003078
      f-2     :     0.003499
      f+3     :     0.003700
      f-3     :     0.002177
 13 O s       :     3.809156  s :     3.809156
      pz      :     1.638986  p :     4.585941
      px      :     1.454236
      py      :     1.492719
      dz2     :     0.005293  d :     0.030562
      dxz     :     0.003748
      dyz     :     0.008919
      dx2y2   :     0.005439
      dxy     :     0.007162
      f0      :     0.000179  f :     0.001888
      f+1     :     0.000014
      f-1     :     0.000528
      f+2     :     0.000344
      f-2     :     0.000409
      f+3     :     0.000245
      f-3     :     0.000170
 14 O s       :     3.745212  s :     3.745212
      pz      :     1.307481  p :     4.443038
      px      :     1.703953
      py      :     1.431604
      dz2     :     0.012314  d :     0.041207
      dxz     :     0.005358
      dyz     :     0.010309
      dx2y2   :     0.007666
      dxy     :     0.005559
      f0      :     0.000488  f :     0.002136
      f+1     :     0.000242
      f-1     :     0.000406
      f+2     :     0.000303
      f-2     :     0.000125
      f+3     :     0.000273
      f-3     :     0.000298
 15 C s       :     3.258823  s :     3.258823
      pz      :     0.668237  p :     2.900486
      px      :     1.106222
      py      :     1.126027
      dz2     :     0.020644  d :     0.089234
      dxz     :     0.032837
      dyz     :     0.020879
      dx2y2   :     0.008651
      dxy     :     0.006223
      f0      :     0.002326  f :     0.007594
      f+1     :     0.002433
      f-1     :     0.001956
      f+2     :    -0.000004
      f-2     :     0.000067
      f+3     :     0.000005
      f-3     :     0.000812
 16 H s       :     0.829815  s :     0.829815
      pz      :     0.004338  p :     0.020432
      px      :     0.010116
      py      :     0.005978
 17 H s       :     0.829814  s :     0.829814
      pz      :     0.004338  p :     0.020432
      px      :     0.010116
      py      :     0.005977
 18 H s       :     0.820315  s :     0.820315
      pz      :     0.003191  p :     0.020803
      px      :     0.004484
      py      :     0.013128


                     *******************************
                     * LOEWDIN POPULATION ANALYSIS *
                     *******************************

----------------------
LOEWDIN ATOMIC CHARGES
----------------------
   0 C :   -0.151825
   1 C :   -0.085750
   2 C :   -0.091713
   3 H :    0.161844
   4 H :    0.161137
   5 C :   -0.131277
   6 C :   -0.123058
   7 H :    0.160846
   8 H :    0.159245
   9 C :   -0.277716
  10 O :    0.101653
  11 H :    0.212800
  12 C :   -0.458736
  13 O :    0.058508
  14 O :    0.257161
  15 C :   -0.310036
  16 H :    0.117868
  17 H :    0.117869
  18 H :    0.121183

-------------------------------
LOEWDIN REDUCED ORBITAL CHARGES
-------------------------------
  0 C s       :     2.700971  s :     2.700971
      pz      :     0.956869  p :     2.900536
      px      :     0.902271
      py      :     1.041396
      dz2     :     0.151695  d :     0.494233
      dxz     :     0.045933
      dyz     :     0.144110
      dx2y2   :     0.074774
      dxy     :     0.077722
      f0      :     0.008011  f :     0.056085
      f+1     :     0.003899
      f-1     :     0.020746
      f+2     :     0.006445
      f-2     :     0.007624
      f+3     :     0.003759
      f-3     :     0.005601
  1 C s       :     2.755194  s :     2.755194
      pz      :     1.041066  p :     2.889850
      px      :     0.841174
      py      :     1.007610
      dz2     :     0.093710  d :     0.396668
      dxz     :     0.070271
      dyz     :     0.154292
      dx2y2   :     0.043143
      dxy     :     0.035251
      f0      :     0.007385  f :     0.044037
      f+1     :     0.006686
      f-1     :     0.014953
      f+2     :     0.004547
      f-2     :     0.002740
      f+3     :     0.003844
      f-3     :     0.003883
  2 C s       :     2.756650  s :     2.756650
      pz      :     1.047817  p :     2.895210
      px      :     0.844749
      py      :     1.002644
      dz2     :     0.102857  d :     0.396042
      dxz     :     0.076910
      dyz     :     0.143488
      dx2y2   :     0.044583
      dxy     :     0.028204
      f0      :     0.007530  f :     0.043812
      f+1     :     0.006139
      f-1     :     0.014955
      f+2     :     0.004510
      f-2     :     0.004048
      f+3     :     0.003011
      f-3     :     0.003618
  3 H s       :     0.776861  s :     0.776861
      pz      :     0.019735  p :     0.061294
      px      :     0.012364
      py      :     0.029195
  4 H s       :     0.777507  s :     0.777507
      pz      :     0.016845  p :     0.061356
      px      :     0.012486
      py      :     0.032026
  5 C s       :     2.760073  s :     2.760073
      pz      :     1.043775  p :     2.961360
      px      :     0.926952
      py      :     0.990633
      dz2     :     0.095501  d :     0.367278
      dxz     :     0.057241
      dyz     :     0.147875
      dx2y2   :     0.042967
      dxy     :     0.023694
      f0      :     0.007747  f :     0.042566
      f+1     :     0.005660
      f-1     :     0.014513
      f+2     :     0.004890
      f-2     :     0.003345
      f+3     :     0.002739
      f-3     :     0.003673
  6 C s       :     2.759405  s :     2.759405
      pz      :     1.040785  p :     2.957056
      px      :     0.920180
      py      :     0.996092
      dz2     :     0.087902  d :     0.364150
      dxz     :     0.051979
      dyz     :     0.152816
      dx2y2   :     0.042731
      dxy     :     0.028723
      f0      :     0.007517  f :     0.042447
      f+1     :     0.005914
      f-1     :     0.014390
      f+2     :     0.004827
      f-2     :     0.002331
      f+3     :     0.003444
      f-3     :     0.004023
  7 H s       :     0.777952  s :     0.777952
      pz      :     0.015432  p :     0.061202
      px      :     0.014320
      py      :     0.031450
  8 H s       :     0.779487  s :     0.779487
      pz      :     0.018233  p :     0.061269
      px      :     0.014183
      py      :     0.028853
  9 C s       :     2.716274  s :     2.716274
      pz      :     0.845938  p :     2.755089
      px      :     0.822084
      py      :     1.087067
      dz2     :     0.206835  d :     0.705806
      dxz     :     0.148109
      dyz     :     0.199640
      dx2y2   :     0.069742
      dxy     :     0.081481
      f0      :     0.020136  f :     0.100547
      f+1     :     0.020181
      f-1     :     0.035259
      f+2     :     0.006219
      f-2     :     0.007620
      f+3     :     0.005438
      f-3     :     0.005694
 10 O s       :     3.313420  s :     3.313420
      pz      :     1.387461  p :     4.507206
      px      :     1.684516
      py      :     1.435228
      dz2     :     0.025431  d :     0.072758
      dxz     :     0.014306
      dyz     :     0.023081
      dx2y2   :     0.009443
      dxy     :     0.000495
      f0      :     0.001456  f :     0.004964
      f+1     :     0.001023
      f-1     :     0.001538
      f+2     :     0.000374
      f-2     :     0.000011
      f+3     :     0.000001
      f-3     :     0.000561
 11 H s       :     0.634849  s :     0.634849
      pz      :     0.029531  p :     0.152352
      px      :     0.040564
      py      :     0.082257
 12 C s       :     2.733847  s :     2.733847
      pz      :     0.980236  p :     2.618934
      px      :     0.734246
      py      :     0.904453
      dz2     :     0.239578  d :     0.949968
      dxz     :     0.100914
      dyz     :     0.251180
      dx2y2   :     0.175708
      dxy     :     0.182587
      f0      :     0.014430  f :     0.155987
      f+1     :     0.005892
      f-1     :     0.056581
      f+2     :     0.020658
      f-2     :     0.025542
      f+3     :     0.015688
      f-3     :     0.017196
 13 O s       :     3.394295  s :     3.394295
      pz      :     1.574581  p :     4.474748
      px      :     1.360591
      py      :     1.539576
      dz2     :     0.012291  d :     0.066344
      dxz     :     0.005024
      dyz     :     0.024360
      dx2y2   :     0.015101
      dxy     :     0.009568
      f0      :     0.000684  f :     0.006105
      f+1     :     0.000047
      f-1     :     0.001756
      f+2     :     0.001521
      f-2     :     0.000734
      f+3     :     0.000563
      f-3     :     0.000800
 14 O s       :     3.243862  s :     3.243862
      pz      :     1.342129  p :     4.379250
      px      :     1.566451
      py      :     1.470669
      dz2     :     0.033452  d :     0.112733
      dxz     :     0.016705
      dyz     :     0.034650
      dx2y2   :     0.017974
      dxy     :     0.009952
      f0      :     0.001289  f :     0.006994
      f+1     :     0.001031
      f-1     :     0.002101
      f+2     :     0.000887
      f-2     :     0.000192
      f+3     :     0.000634
      f-3     :     0.000860
 15 C s       :     2.863467  s :     2.863467
      pz      :     0.794215  p :     3.028522
      px      :     1.119517
      py      :     1.114791
      dz2     :     0.114698  d :     0.364377
      dxz     :     0.111247
      dyz     :     0.075397
      dx2y2   :     0.040061
      dxy     :     0.022973
      f0      :     0.017812  f :     0.053669
      f+1     :     0.014021
      f-1     :     0.014119
      f+2     :     0.001615
      f-2     :     0.003279
      f+3     :     0.000064
      f-3     :     0.002759
 16 H s       :     0.818697  s :     0.818697
      pz      :     0.012835  p :     0.063435
      px      :     0.031705
      py      :     0.018896
 17 H s       :     0.818696  s :     0.818696
      pz      :     0.012837  p :     0.063435
      px      :     0.031705
      py      :     0.018894
 18 H s       :     0.816105  s :     0.816105
      pz      :     0.009287  p :     0.062712
      px      :     0.013967
      py      :     0.039458


                      *****************************
[...]
     54      -0.000209   0.000005   0.000013  -0.000009   0.000001   0.000004
     55      -0.175020   0.056682   0.018604  -0.019190   0.001599   0.003596
     56       0.680528  -0.209294  -0.075060   0.055829  -0.007859  -0.035826
                 48         49         50         51         52         53    
      0      -0.000001   0.000000   0.000215  -0.000000  -0.000000   0.000000
      1       0.116653  -0.000271   0.000000   0.000077   0.000163  -0.000062
      2      -0.074268  -0.000275  -0.000000  -0.000064  -0.000425   0.000688
      3      -0.000003   0.000000   0.000001   0.000000   0.000000  -0.000000
      4      -0.061324   0.000029   0.000000   0.000216   0.018978  -0.003395
      5      -0.047362   0.000077  -0.000000  -0.000125  -0.008690   0.001797
      6      -0.000005   0.000000  -0.000007  -0.000000  -0.000000   0.000001
      7      -0.034424  -0.000188   0.000000  -0.000423  -0.001713   0.027876
      8      -0.040695  -0.000043   0.000000  -0.000214  -0.000415   0.010528
      9       0.000008  -0.000000  -0.000000  -0.000000  -0.000002   0.000000
     10      -0.009162   0.001023  -0.000001  -0.002419  -0.218211   0.036498
     11       0.061682  -0.000582   0.000000   0.001626   0.138557  -0.023468
     12       0.000001  -0.000000   0.000026   0.000000   0.000001  -0.000011
     13      -0.056064   0.001668  -0.000001   0.004664   0.018076  -0.321495
     14      -0.029302   0.001389  -0.000000   0.002438   0.008943  -0.159331
     15       0.000007  -0.000000  -0.000003  -0.000000  -0.000006  -0.000000
     16       0.016017  -0.000043   0.000000  -0.000321  -0.075079  -0.002179
     17       0.046781  -0.000106   0.000000  -0.000169  -0.037739  -0.001615
     18       0.000008  -0.000000  -0.000010  -0.000000   0.000000   0.000003
     19       0.053322   0.000019  -0.000000   0.000169   0.001052  -0.068083
     20       0.078739  -0.000069   0.000000  -0.000107  -0.000123   0.043612
     21       0.000006  -0.000000  -0.000032   0.000000   0.000068   0.000002
     22       0.031804   0.000526  -0.000000   0.003812   0.857467   0.026127
     23       0.013829   0.000138  -0.000000   0.001930   0.435662   0.013935
     24      -0.000009   0.000000   0.000003   0.000000   0.000000  -0.000033
     25      -0.049779  -0.000657   0.000000  -0.002052  -0.009594   0.775775
     26      -0.082887   0.000394  -0.000000   0.001321   0.005370  -0.509103
     27      -0.000008   0.000000   0.000007   0.000000  -0.000000   0.000000
     28      -0.049232  -0.000017  -0.000000   0.000010   0.002447   0.002803
     29      -0.059006   0.000083  -0.000000   0.000003  -0.003001   0.002112
     30       0.000001  -0.000000  -0.000003  -0.000000   0.000000  -0.000000
     31       0.005979   0.000012  -0.000000   0.000005  -0.000312  -0.000320
     32       0.014442  -0.000055   0.000000  -0.000016   0.000333  -0.000189
     33       0.000009  -0.000000   0.000003  -0.000000   0.000000  -0.000000
     34      -0.007980  -0.000228   0.000000  -0.000079   0.002456   0.000856
     35       0.053565  -0.000038   0.000000   0.000011   0.007786  -0.001533
     36      -0.000045  -0.000000  -0.000275  -0.000000  -0.000000  -0.000000
     37      -0.608960   0.003049  -0.000000  -0.000068   0.000188   0.000261
     38       0.485006   0.000767  -0.000000   0.001147   0.000038  -0.000067
     39       0.000031  -0.000000  -0.000119   0.000000  -0.000000  -0.000000
     40       0.388236  -0.000770   0.000000   0.000144  -0.000119  -0.000043
     41      -0.284042   0.000499  -0.000000  -0.000343  -0.000085   0.000011
     42      -0.000004   0.000000  -0.000261  -0.000000   0.000000   0.000000
     43       0.052424  -0.001202   0.000000   0.000230  -0.000028  -0.000112
     44      -0.021610  -0.002326   0.000000   0.000044  -0.000028   0.000177
     45       0.000003   0.000009   0.094950   0.000008  -0.000000   0.000000
     46      -0.008642   0.009385   0.000008  -0.094390   0.000471  -0.000413
     47       0.032405  -0.044244   0.000013   0.003517   0.000020  -0.000103
     48       0.038878   0.522991  -0.571197  -0.255443   0.001106  -0.000323
     49      -0.085527  -0.272612   0.316764   0.117993  -0.000492   0.000113
     50      -0.092405   0.233373  -0.262186  -0.110094   0.000426   0.000027
     51      -0.038844  -0.523080  -0.571223   0.255396  -0.001106   0.000323
     52      -0.085530  -0.272670  -0.316784   0.117970  -0.000492   0.000114
     53      -0.092438   0.233272   0.262041  -0.110002   0.000426   0.000027
     54       0.000032  -0.000022   0.017978  -0.000045   0.000000  -0.000000
     55       0.043645   0.431515  -0.000071   0.882888  -0.004506   0.004221
     56      -0.233603   0.083949  -0.000012   0.170252  -0.000891   0.000826
                 54         55         56    
      0      -0.000000   0.000000   0.000000
      1      -0.002557  -0.002301   0.000063
      2      -0.001701   0.002187   0.000467
      3      -0.000000  -0.000000  -0.000000
      4       0.070370  -0.003529  -0.000192
      5      -0.046717   0.001658  -0.000327
      6       0.000000   0.000003  -0.000000
      7       0.004370   0.072679  -0.000047
      8       0.002763   0.037703  -0.000274
      9      -0.000005   0.000000   0.000000
     10      -0.806131   0.034889  -0.000471
     11       0.523124  -0.021932   0.000819
     12      -0.000002  -0.000027   0.000000
     13      -0.054979  -0.828169   0.000706
     14      -0.028240  -0.418715   0.000235
     15       0.000002  -0.000000   0.000000
     16       0.019954  -0.002263   0.000577
     17       0.013657  -0.000979   0.001025
     18       0.000000  -0.000001   0.000000
     19      -0.002378   0.026138   0.000786
     20       0.001042  -0.020620   0.000771
     21      -0.000018   0.000001  -0.000000
     22      -0.224311   0.023416  -0.003736
     23      -0.117085   0.011905  -0.002671
     24      -0.000001   0.000013  -0.000000
     25       0.024825  -0.298297   0.000295
     26      -0.015968   0.198934   0.000039
     27       0.000000  -0.000000   0.000000
     28      -0.001167  -0.001534  -0.002162
     29       0.001429  -0.001544  -0.000786
     30      -0.000000   0.000000  -0.000004
     31       0.000196   0.000115  -0.058082
     32      -0.000252   0.000252  -0.022112
     33       0.000000  -0.000000   0.000070
     34      -0.001552   0.000743   0.936739
     35      -0.001994   0.001415   0.344421
     36       0.000000  -0.000000   0.000000
     37       0.001002   0.000816  -0.000002
     38      -0.000707   0.000389  -0.000497
     39      -0.000000   0.000000  -0.000000
     40      -0.000566   0.000001  -0.000093
     41       0.000021  -0.000214   0.000145
     42      -0.000000   0.000000   0.000000
     43       0.000008  -0.000375   0.000088
     44       0.000260   0.000273   0.000097
     45      -0.000000  -0.000000   0.000000
     46       0.000155  -0.000437  -0.000005
     47      -0.000115  -0.000115  -0.000051
     48       0.001008  -0.000157   0.000058
     49      -0.000478   0.000015  -0.000006
     50       0.000591   0.000075   0.000146
     51      -0.001008   0.000157  -0.000058
     52      -0.000478   0.000015  -0.000006
     53       0.000590   0.000075   0.000146
     54      -0.000000  -0.000000   0.000000
     55      -0.000575   0.004215   0.000153
     56       0.000134   0.000740   0.000100


-----------
IR SPECTRUM
-----------

 Mode   freq       eps      Int      T**2         TX        TY        TZ
       cm**-1   L/(mol*cm) km/mol    a.u.
----------------------------------------------------------------------------
  6:     52.96   0.001352    6.83  0.007969  (-0.089268  0.000029  0.000011)
  7:     87.53   0.000104    0.53  0.000372  (-0.019280  0.000010 -0.000001)
  8:    149.46   0.000911    4.61  0.001903  (-0.000046 -0.026742  0.034460)
  9:    152.32   0.000547    2.77  0.001121  ( 0.033488 -0.000049  0.000059)
 10:    170.37   0.000492    2.49  0.000901  ( 0.030013 -0.000019  0.000004)
 11:    308.64   0.000520    2.63  0.000526  (-0.022933 -0.000031 -0.000039)
 12:    315.50   0.005625   28.43  0.005564  ( 0.000014 -0.054557 -0.050864)
 13:    334.86   0.001635    8.26  0.001523  (-0.000005  0.023080  0.031475)
 14:    404.97   0.031832  160.87  0.024529  (-0.156619  0.000001  0.000022)
 15:    410.71   0.000279    1.41  0.000212  ( 0.000144  0.002079 -0.014397)
 16:    427.40   0.004047   20.45  0.002955  ( 0.054357 -0.000003 -0.000017)
 17:    499.69   0.002417   12.21  0.001509  ( 0.000008  0.006373 -0.038322)
 18:    520.27   0.003481   17.59  0.002088  ( 0.045693 -0.000009 -0.000015)
 19:    630.27   0.007772   39.28  0.003848  ( 0.000014  0.003859  0.061915)
 20:    648.77   0.000621    3.14  0.000299  ( 0.000002  0.013270 -0.011070)
 21:    716.96   0.005857   29.60  0.002549  (-0.050492  0.000002  0.000012)
 22:    795.40   0.013492   68.18  0.005293  (-0.072755  0.000008 -0.000014)
 23:    820.93   0.001031    5.21  0.000392  ( 0.000001  0.014644  0.013319)
 24:    833.93   0.000063    0.32  0.000024  ( 0.004868 -0.000008  0.000002)
 25:    869.41   0.005104   25.79  0.001832  ( 0.000021 -0.012363  0.040979)
 26:    873.55   0.009900   50.03  0.003537  (-0.059471 -0.000003  0.000028)
 27:    985.37   0.000037    0.18  0.000012  (-0.003403 -0.000001  0.000006)
 28:    987.23   0.000018    0.09  0.000006  ( 0.002407  0.000005  0.000001)
 29:   1010.99   0.002592   13.10  0.000800  (-0.000003 -0.021760  0.018069)
 30:   1033.21   0.003219   16.27  0.000972  ( 0.000003 -0.001602 -0.031139)
 31:   1126.24   0.007966   40.26  0.002207  (-0.000002 -0.037333 -0.028523)
 32:   1154.67   0.012527   63.31  0.003385  ( 0.000010 -0.042797 -0.039420)
 33:   1171.25   0.000199    1.00  0.000053  (-0.007277  0.000001 -0.000007)
 34:   1179.81   0.067673  341.99  0.017900  (-0.000001 -0.032955 -0.129668)
 35:   1200.97   0.052929  267.48  0.013753  ( 0.000008  0.000823  0.117272)
 36:   1218.21   0.020139  101.77  0.005159  ( 0.000006 -0.045626 -0.055472)
 37:   1310.73   0.176586  892.39  0.042042  (-0.000001 -0.072182 -0.191917)
 38:   1318.01   0.007314   36.96  0.001732  ( 0.000010 -0.032654  0.025795)
 39:   1341.81   0.036879  186.37  0.008577  (-0.000000  0.048350  0.078989)
 40:   1400.76   0.007489   37.85  0.001669  (-0.000002  0.004671 -0.040579)
 41:   1465.10   0.003255   16.45  0.000693  ( 0.026330  0.000003  0.000014)
 42:   1466.35   0.018655   94.28  0.003970  (-0.000006  0.016976  0.060679)
 43:   1476.25   0.002767   13.98  0.000585  (-0.000000 -0.023143  0.007016)
 44:   1478.55   0.017958   90.75  0.003790  (-0.000003 -0.007459 -0.061111)
 45:   1557.82   0.013267   67.05  0.002658  (-0.000008  0.016326 -0.048899)
 46:   1648.37   0.006058   30.62  0.001147  (-0.000002  0.015476 -0.030123)
 47:   1666.31   0.079532  401.92  0.014895  ( 0.000007 -0.003427  0.121996)
 48:   1750.19   0.123704  625.15  0.022057  ( 0.000001 -0.118040  0.090129)
 49:   3068.08   0.007685   38.84  0.000782  ( 0.000004 -0.005095 -0.027490)
 50:   3148.68   0.004622   23.36  0.000458  ( 0.021402  0.000000  0.000005)
 51:   3183.92   0.002860   14.45  0.000280  ( 0.000001 -0.016658 -0.001675)
 52:   3192.78   0.001202    6.08  0.000118  (-0.000001 -0.002442 -0.010563)
 53:   3208.64   0.000662    3.34  0.000064  ( 0.000001 -0.001878  0.007799)
 54:   3219.06   0.000353    1.78  0.000034  (-0.000000  0.004364  0.003897)
 55:   3228.23   0.000262    1.32  0.000025  ( 0.000001  0.003729 -0.003381)
 56:   3809.79   0.046309  234.03  0.003793  ( 0.000005  0.040036  0.046800)

* The epsilon (eps) is given for a Dirac delta lineshape.
** The dipole moment derivative (T) already includes vibrational overlap.

The first frequency considered to be a vibration is 6
The total number of vibrations considered is 51


--------------------------
THERMOCHEMISTRY AT 298.15K
--------------------------

Temperature         ... 298.15 K
Pressure            ... 1.00 atm
Total Mass          ... 152.15 AMU

Throughout the following assumptions are being made:
  (1) The electronic state is orbitally nondegenerate
  (2) There are no thermally accessible electronically excited states
  (3) Hindered rotations indicated by low frequency modes are not
      treated as such but are treated as vibrations and this may
      cause some error
  (4) All equations used are the standard statistical mechanics
      equations for an ideal gas
  (5) All vibrations are strictly harmonic

freq.      52.96  E(vib)   ...       0.52 
freq.      87.53  E(vib)   ...       0.48 
freq.     149.46  E(vib)   ...       0.40 
freq.     152.32  E(vib)   ...       0.40 
freq.     170.37  E(vib)   ...       0.38 
freq.     308.64  E(vib)   ...       0.26 
freq.     315.50  E(vib)   ...       0.25 
freq.     334.86  E(vib)   ...       0.24 
freq.     404.97  E(vib)   ...       0.19 
freq.     410.71  E(vib)   ...       0.19 
freq.     427.40  E(vib)   ...       0.18 
freq.     499.69  E(vib)   ...       0.14 
freq.     520.27  E(vib)   ...       0.13 
freq.     630.27  E(vib)   ...       0.09 
freq.     648.77  E(vib)   ...       0.08 
freq.     716.96  E(vib)   ...       0.07 
freq.     795.40  E(vib)   ...       0.05 
freq.     820.93  E(vib)   ...       0.05 
freq.     833.93  E(vib)   ...       0.04 
freq.     869.41  E(vib)   ...       0.04 
freq.     873.55  E(vib)   ...       0.04 
freq.     985.37  E(vib)   ...       0.02 
freq.     987.23  E(vib)   ...       0.02 
freq.    1010.99  E(vib)   ...       0.02 
freq.    1033.21  E(vib)   ...       0.02 
freq.    1126.24  E(vib)   ...       0.01 
freq.    1154.67  E(vib)   ...       0.01 
freq.    1171.25  E(vib)   ...       0.01 
freq.    1179.81  E(vib)   ...       0.01 
freq.    1200.97  E(vib)   ...       0.01 
freq.    1218.21  E(vib)   ...       0.01 
freq.    1310.73  E(vib)   ...       0.01 
freq.    1318.01  E(vib)   ...       0.01 
freq.    1341.81  E(vib)   ...       0.01 
freq.    1400.76  E(vib)   ...       0.00 
freq.    1465.10  E(vib)   ...       0.00 
freq.    1466.35  E(vib)   ...       0.00 
freq.    1476.25  E(vib)   ...       0.00 
freq.    1478.55  E(vib)   ...       0.00 
freq.    1557.82  E(vib)   ...       0.00 
freq.    1648.37  E(vib)   ...       0.00 
freq.    1666.31  E(vib)   ...       0.00 
freq.    1750.19  E(vib)   ...       0.00 
freq.    3068.08  E(vib)   ...       0.00 
freq.    3148.68  E(vib)   ...       0.00 
freq.    3183.92  E(vib)   ...       0.00 
freq.    3192.78  E(vib)   ...       0.00 
freq.    3208.64  E(vib)   ...       0.00 
freq.    3219.06  E(vib)   ...       0.00 
freq.    3228.23  E(vib)   ...       0.00 
freq.    3809.79  E(vib)   ...       0.00 

------------
INNER ENERGY
------------

The inner energy is: U= E(el) + E(ZPE) + E(vib) + E(rot) + E(trans)
    E(el)   - is the total energy from the electronic structure calculation
              = E(kin-el) + E(nuc-el) + E(el-el) + E(nuc-nuc)
    E(ZPE)  - the the zero temperature vibrational energy from the frequency calculation
    E(vib)  - the the finite temperature correction to E(ZPE) due to population
              of excited vibrational states
    E(rot)  - is the rotational thermal energy
    E(trans)- is the translational thermal energy

Summary of contributions to the inner energy U:
Electronic energy                ...   -534.98803048 Eh
Zero point energy                ...      0.14815215 Eh      92.97 kcal/mol
Thermal vibrational correction   ...      0.00704491 Eh       4.42 kcal/mol
Thermal rotational correction    ...      0.00141627 Eh       0.89 kcal/mol
Thermal translational correction ...      0.00141627 Eh       0.89 kcal/mol
-----------------------------------------------------------------------
Total thermal energy                   -534.83000087 Eh


Summary of corrections to the electronic energy:
(perhaps to be used in another calculation)
Total thermal correction                  0.00987745 Eh       6.20 kcal/mol
Non-thermal (ZPE) correction              0.14815215 Eh      92.97 kcal/mol
-----------------------------------------------------------------------
Total correction                          0.15802960 Eh      99.16 kcal/mol


--------
ENTHALPY
--------

The enthalpy is H = U + kB*T
                kB is Boltzmann's constant
Total free energy                 ...   -534.83000087 Eh 
Thermal Enthalpy correction       ...      0.00094421 Eh       0.59 kcal/mol
-----------------------------------------------------------------------
Total Enthalpy                    ...   -534.82905666 Eh


Note: Only C1 symmetry has been detected, increase convergence thresholds 
      if your molecule has a higher symmetry. Symmetry factor of 1.0 is   
      used for the rotational entropy correction. 
 

Note: Rotational entropy computed according to Herzberg 
Infrared and Raman Spectra, Chapter V,1, Van Nostrand Reinhold, 1945 
Point Group:  C1, Symmetry Number:   1  
Rotational constants in cm-1:     0.116406     0.019442     0.016712 

Vibrational entropy computed according to the QRRHO of S. Grimme
Chem.Eur.J. 2012 18 9955


-------
ENTROPY
-------

The entropy contributions are T*S = T*(S(el)+S(vib)+S(rot)+S(trans))
     S(el)   - electronic entropy
     S(vib)  - vibrational entropy
     S(rot)  - rotational entropy
     S(trans)- translational entropy
The entropies will be listed as multiplied by the temperature to get
units of energy

Electronic entropy                ...      0.00000000 Eh      0.00 kcal/mol
Vibrational entropy               ...      0.01199325 Eh      7.53 kcal/mol
Rotational entropy                ...      0.01431794 Eh      8.98 kcal/mol
Translational entropy             ...      0.01946564 Eh     12.21 kcal/mol
-----------------------------------------------------------------------
Final entropy term                ...      0.04577683 Eh     28.73 kcal/mol

In case the symmetry of your molecule has not been determined correctly
or in case you have a reason to use a different symmetry number we print 
out the resulting rotational entropy values for sn=1,12 :
 --------------------------------------------------------
|  sn= 1 | S(rot)=       0.01431794 Eh      8.98 kcal/mol|
|  sn= 2 | S(rot)=       0.01366349 Eh      8.57 kcal/mol|
|  sn= 3 | S(rot)=       0.01328065 Eh      8.33 kcal/mol|
|  sn= 4 | S(rot)=       0.01300903 Eh      8.16 kcal/mol|
|  sn= 5 | S(rot)=       0.01279834 Eh      8.03 kcal/mol|
|  sn= 6 | S(rot)=       0.01262620 Eh      7.92 kcal/mol|
|  sn= 7 | S(rot)=       0.01248065 Eh      7.83 kcal/mol|
|  sn= 8 | S(rot)=       0.01235457 Eh      7.75 kcal/mol|
|  sn= 9 | S(rot)=       0.01224337 Eh      7.68 kcal/mol|
|  sn=10 | S(rot)=       0.01214389 Eh      7.62 kcal/mol|
|  sn=11 | S(rot)=       0.01205390 Eh      7.56 kcal/mol|
|  sn=12 | S(rot)=       0.01197174 Eh      7.51 kcal/mol|
 --------------------------------------------------------


-------------------
GIBBS FREE ENERGY
-------------------

The Gibbs free energy is G = H - T*S

Total enthalpy                    ...   -534.82905666 Eh 
Total entropy correction          ...     -0.04577683 Eh    -28.73 kcal/mol
-----------------------------------------------------------------------
Final Gibbs free energy         ...   -534.87483350 Eh

For completeness - the Gibbs free energy minus the electronic energy
G-E(el)                           ...      0.11319698 Eh     71.03 kcal/mol


Timings for individual modules:

Sum of individual times         ...      405.531 sec (=   6.759 min)
GTO integral calculation        ...        6.672 sec (=   0.111 min)   1.6 %
SCF iterations                  ...      107.327 sec (=   1.789 min)  26.5 %
SCF Gradient evaluation         ...       27.853 sec (=   0.464 min)   6.9 %
Geometry relaxation             ...        0.322 sec (=   0.005 min)   0.1 %
Analytical frequency calculation...      263.357 sec (=   4.389 min)  64.9 %
                             ****ORCA TERMINATED NORMALLY****
TOTAL RUN TIME: 0 days 0 hours 6 minutes 58 seconds 295 msec
