
                                 *****************
                                 * O   R   C   A *
                                 *****************

                                            #,                                       
                                            ###                                      
                                            ####                                     
                                            #####                                    
                                            ######                                   
                                           ########,                                 
                                     ,,################,,,,,                         
                               ,,#################################,,                 
                          ,,##########################################,,             
                       ,#########################################, ''#####,          
                    ,#############################################,,   '####,        
                  ,##################################################,,,,####,       
                ,###########''''           ''''###############################       
              ,#####''   ,,,,##########,,,,          '''####'''          '####       
            ,##' ,,,,###########################,,,                        '##       
           ' ,,###''''                  '''############,,,                           
         ,,##''                                '''############,,,,        ,,,,,,###''
      ,#''                                            '''#######################'''  
     '                                                          ''''####''''         
             ,#######,   #######,   ,#######,      ##                                
            ,#'     '#,  ##    ##  ,#'     '#,    #''#        ######   ,####,        
            ##       ##  ##   ,#'  ##            #'  '#       #        #'  '#        
            ##       ##  #######   ##           ,######,      #####,   #    #        
            '#,     ,#'  ##    ##  '#,     ,#' ,#      #,         ##   #,  ,#        
             '#######'   ##     ##  '#######'  #'      '#     #####' # '####'        



                  #######################################################
                  #                        -***-                        #
                  #          Department of theory and spectroscopy      #
                  #    Directorship and core code : Frank Neese         #
                  #        Max Planck Institute fuer Kohlenforschung    #
                  #                Kaiser Wilhelm Platz 1               #
                  #                 D-45470 Muelheim/Ruhr               #
                  #                      Germany                        #
                  #                                                     #
                  #                  All rights reserved                #
                  #                        -***-                        #
                  #######################################################


                         Program Version 5.0.4 -  RELEASE  -


 With contributions from (in alphabetic order):
   Daniel Aravena         : Magnetic Suceptibility
   Michael Atanasov       : Ab Initio Ligand Field Theory (pilot matlab implementation)
   Alexander A. Auer      : GIAO ZORA, VPT2 properties, NMR spectrum
   Ute Becker             : Parallelization
   Giovanni Bistoni       : ED, misc. LED, open-shell LED, HFLD
   Martin Brehm           : Molecular dynamics
   Dmytro Bykov           : SCF Hessian
   Vijay G. Chilkuri      : MRCI spin determinant printing, contributions to CSF-ICE
   Dipayan Datta          : RHF DLPNO-CCSD density
   Achintya Kumar Dutta   : EOM-CC, STEOM-CC
   Dmitry Ganyushin       : Spin-Orbit,Spin-Spin,Magnetic field MRCI
   Miquel Garcia          : C-PCM and meta-GGA Hessian, CC/C-PCM, Gaussian charge scheme
   Yang Guo               : DLPNO-NEVPT2, F12-NEVPT2, CIM, IAO-localization
   Andreas Hansen         : Spin unrestricted coupled pair/coupled cluster methods
   Benjamin Helmich-Paris : MC-RPA, TRAH-SCF, COSX integrals
   Lee Huntington         : MR-EOM, pCC
   Robert Izsak           : Overlap fitted RIJCOSX, COSX-SCS-MP3, EOM
   Marcus Kettner         : VPT2
   Christian Kollmar      : KDIIS, OOCD, Brueckner-CCSD(T), CCSD density, CASPT2, CASPT2-K
   Simone Kossmann        : Meta GGA functionals, TD-DFT gradient, OOMP2, MP2 Hessian
   Martin Krupicka        : Initial AUTO-CI
   Lucas Lang             : DCDCAS
   Marvin Lechner         : AUTO-CI (C++ implementation), FIC-MRCC
   Dagmar Lenk            : GEPOL surface, SMD
   Dimitrios Liakos       : Extrapolation schemes; Compound Job, initial MDCI parallelization
   Dimitrios Manganas     : Further ROCIS development; embedding schemes
   Dimitrios Pantazis     : SARC Basis sets
   Anastasios Papadopoulos: AUTO-CI, single reference methods and gradients
   Taras Petrenko         : DFT Hessian,TD-DFT gradient, ASA, ECA, R-Raman, ABS, FL, XAS/XES, NRVS
   Peter Pinski           : DLPNO-MP2, DLPNO-MP2 Gradient
   Christoph Reimann      : Effective Core Potentials
   Marius Retegan         : Local ZFS, SOC
   Christoph Riplinger    : Optimizer, TS searches, QM/MM, DLPNO-CCSD(T), (RO)-DLPNO pert. Triples
   Tobias Risthaus        : Range-separated hybrids, TD-DFT gradient, RPA, STAB
   Michael Roemelt        : Original ROCIS implementation
   Masaaki Saitow         : Open-shell DLPNO-CCSD energy and density
   Barbara Sandhoefer     : DKH picture change effects
   Avijit Sen             : IP-ROCIS
   Kantharuban Sivalingam : CASSCF convergence, NEVPT2, FIC-MRCI
   Bernardo de Souza      : ESD, SOC TD-DFT
   Georgi Stoychev        : AutoAux, RI-MP2 NMR, DLPNO-MP2 response
   Willem Van den Heuvel  : Paramagnetic NMR
   Boris Wezisla          : Elementary symmetry handling
   Frank Wennmohs         : Technical directorship


 We gratefully acknowledge several colleagues who have allowed us to
 interface, adapt or use parts of their codes:
   Stefan Grimme, W. Hujo, H. Kruse, P. Pracht,  : VdW corrections, initial TS optimization,
                  C. Bannwarth, S. Ehlert          DFT functionals, gCP, sTDA/sTD-DF
   Ed Valeev, F. Pavosevic, A. Kumar             : LibInt (2-el integral package), F12 methods
   Garnet Chan, S. Sharma, J. Yang, R. Olivares  : DMRG
   Ulf Ekstrom                                   : XCFun DFT Library
   Mihaly Kallay                                 : mrcc  (arbitrary order and MRCC methods)
   Jiri Pittner, Ondrej Demel                    : Mk-CCSD
   Frank Weinhold                                : gennbo (NPA and NBO analysis)
   Christopher J. Cramer and Donald G. Truhlar   : smd solvation model
   Lars Goerigk                                  : TD-DFT with DH, B97 family of functionals
   V. Asgeirsson, H. Jonsson                     : NEB implementation
   FAccTs GmbH                                   : IRC, NEB, NEB-TS, DLPNO-Multilevel, CI-OPT
                                                   MM, QMMM, 2- and 3-layer-ONIOM, Crystal-QMMM,
                                                   LR-CPCM, SF, NACMEs, symmetry and pop. for TD-DFT,
                                                   nearIR, NL-DFT gradient (VV10), updates on ESD,
                                                   ML-optimized integration grids
   S Lehtola, MJT Oliveira, MAL Marques          : LibXC Library
   Liviu Ungur et al                             : ANISO software


 Your calculation uses the libint2 library for the computation of 2-el integrals
 For citations please refer to: http://libint.valeyev.net

 Your ORCA version has been built with support for libXC version: 5.1.0
 For citations please refer to: https://tddft.org/programs/libxc/

 This ORCA versions uses:
   CBLAS   interface :  Fast vector & matrix operations
   LAPACKE interface :  Fast linear algebra routines
   SCALAPACK package :  Parallel linear algebra routines
   Shared memory     :  Shared parallel matrices
   BLAS/LAPACK       :  OpenBLAS 0.3.15  USE64BITINT DYNAMIC_ARCH NO_AFFINITY Haswell SINGLE_THREADED
        Core in use  :  Haswell
   Copyright (c) 2011-2014, The OpenBLAS Project


Your calculation utilizes the atom-pairwise dispersion correction
with the Becke-Johnson damping scheme (D3BJ)
Cite in your paper:
S.Grimme, S.Ehrlich, L.Goerigk, J Comput Chem, (2011), 32, 1456–1465 
S.Grimme, J.Antony, S.Ehrlich and H.Krieg, J.Chem.Phys., 132, (2010), 154104 
   

================================================================================

----- Orbital basis set information -----
Your calculation utilizes the basis: def2-TZVP
   F. Weigend and R. Ahlrichs, Phys. Chem. Chem. Phys. 7, 3297 (2005).

----- AuxJ basis set information -----
Your calculation utilizes the auxiliary basis: def2/J
   F. Weigend, Phys. Chem. Chem. Phys. 8, 1057 (2006).

================================================================================
                                        WARNINGS
                       Please study these warnings very carefully!
================================================================================


WARNING: Geometry Optimization
  ===> : Switching off AutoStart
         For restart on a previous wavefunction, please use MOREAD

INFO   : the flag for use of the SHARK integral package has been found!

================================================================================
                                       INPUT FILE
================================================================================
NAME = CO2Me-PhenO/CO2Me-PhenO.inp
|  1> %pal nprocs 24 end
|  2> %maxcore 3500
|  3> ! PBE0 D3BJ def2-TZVP TightSCF OPT FREQ TightOpt
|  4> ! CPCM(dmso)
|  5> %scf
|  6> MaxIter 800
|  7> end
|  8> %geom
|  9> MaxIter 800
| 10> MaxStep 0.2
| 11> end
| 12> *xyz -1 1
| 13> 
| 14> C       0.00007000     -0.58617300     -1.60038500
| 15> C       0.00001900      0.64947700     -0.93129100
| 16> C       0.00005900     -1.75251400     -0.81519800
| 17> H       0.00002400      1.55856500     -1.52417500
| 18> H       0.00009500     -2.71928300     -1.30641300
| 19> C      -0.00003300      0.72574100      0.43762800
| 20> C       0.00000700     -1.69207700      0.55534200
| 21> H      -0.00006900      1.69282500      0.93215200
| 22> H       0.00000200     -2.60686600      1.14102900
| 23> C      -0.00004200     -0.44578700      1.26872600
| 24> O      -0.00009000     -0.38420300      2.53230400
| 25> C       0.00012800     -0.61007400     -3.05096500
| 26> O       0.00002700      0.37089000     -3.77822600
| 27> O       0.00004200     -1.85718700     -3.56238300
| 28> C      -0.00004300     -1.94963400     -4.98123200
| 29> H      -0.88890700     -1.47657700     -5.40210700
| 30> H       0.88881600     -1.47665700     -5.40220700
| 31> H      -0.00010400     -3.01341800     -5.20980300
| 32> *
| 33> 
| 34>                          ****END OF INPUT****
================================================================================

                       *****************************
                       * Geometry Optimization Run *
                       *****************************

Geometry optimization settings:
Update method            Update   .... BFGS
Choice of coordinates    CoordSys .... Z-matrix Internals
Initial Hessian          InHess   .... Almoef's Model

Convergence Tolerances:
Energy Change            TolE     ....  1.0000e-06 Eh
Max. Gradient            TolMAXG  ....  1.0000e-04 Eh/bohr
RMS Gradient             TolRMSG  ....  3.0000e-05 Eh/bohr
Max. Displacement        TolMAXD  ....  1.0000e-03 bohr
RMS Displacement         TolRMSD  ....  6.0000e-04 bohr
Strict Convergence                ....  False
------------------------------------------------------------------------------
                        ORCA OPTIMIZATION COORDINATE SETUP
------------------------------------------------------------------------------

The optimization will be done in new redundant internal coordinates
Making redundant internal coordinates   ...  (new redundants) done
Evaluating the initial hessian          ...  (Almloef) done
Evaluating the coordinates              ...  done
Calculating the B-matrix                .... done
Calculating the G-matrix                .... done
Diagonalizing the G-matrix              .... done
Small eigenvalue found = 1.411e-02
The first mode is                       ....   31
The number of degrees of freedom        ....   48

    -----------------------------------------------------------------
                    Redundant Internal Coordinates


    -----------------------------------------------------------------
         Definition                    Initial Value    Approx d2E/dq
    -----------------------------------------------------------------
      1. B(C   1,C   0)                  1.4052         0.590918   
      2. B(C   2,C   0)                  1.4060         0.589104   
      3. B(H   3,C   1)                  1.0853         0.366324   
      4. B(H   4,C   2)                  1.0844         0.367578   
      5. B(C   5,C   1)                  1.3710         0.669862   
      6. B(C   6,C   2)                  1.3719         0.667822   
      7. B(H   7,C   5)                  1.0862         0.365178   
      8. B(H   8,C   6)                  1.0862         0.365139   
      9. B(C   9,C   6)                  1.4360         0.527613   
     10. B(C   9,C   5)                  1.4364         0.526907   
     11. B(O  10,C   9)                  1.2651         0.885484   
     12. B(C  11,C   0)                  1.4508         0.499773   
     13. B(O  12,C  11)                  1.2211         1.040568   
     14. B(O  13,C  11)                  1.3479         0.653191   
     15. B(C  14,O  13)                  1.4219         0.497793   
     16. B(H  15,C  14)                  1.0913         0.358347   
     17. B(H  16,C  14)                  1.0913         0.358347   
     18. B(H  17,C  14)                  1.0881         0.362672   
     19. A(C   2,C   0,C  11)          123.0047         0.413854   
     20. A(C   1,C   0,C   2)          117.6162         0.426408   
     21. A(C   1,C   0,C  11)          119.3791         0.414080   
     22. A(H   3,C   1,C   5)          119.9226         0.358614   
     23. A(C   0,C   1,C   5)          121.6239         0.436363   
     24. A(C   0,C   1,H   3)          118.4535         0.351069   
     25. A(C   0,C   2,C   6)          121.4237         0.435882   
     26. A(H   4,C   2,C   6)          119.4601         0.358636   
     27. A(C   0,C   2,H   4)          119.1162         0.351090   
     28. A(H   7,C   5,C   9)          117.5644         0.344175   
     29. A(C   1,C   5,C   9)          122.1637         0.427465   
     30. A(C   1,C   5,H   7)          120.2719         0.358423   
     31. A(H   8,C   6,C   9)          117.5838         0.344246   
     32. A(C   2,C   6,C   9)          122.3120         0.427334   
     33. A(C   2,C   6,H   8)          120.1042         0.358230   
     34. A(C   5,C   9,O  10)          122.5621         0.446566   
     35. A(C   5,C   9,C   6)          114.8605         0.409663   
     36. A(C   6,C   9,O  10)          122.5773         0.446674   
     37. A(O  12,C  11,O  13)          121.1501         0.475145   
     38. A(C   0,C  11,O  13)          113.2416         0.418800   
     39. A(C   0,C  11,O  12)          125.6083         0.455457   
     40. A(C  11,O  13,C  14)          116.0255         0.415792   
     41. A(H  16,C  14,H  17)          110.0437         0.290942   
     42. A(H  15,C  14,H  17)          110.0437         0.290942   
     43. A(O  13,C  14,H  17)          105.8545         0.338451   
     44. A(H  15,C  14,H  16)          109.0713         0.290394   
     45. A(O  13,C  14,H  16)          110.8978         0.337775   
     46. A(O  13,C  14,H  15)          110.8979         0.337775   
     47. D(C   5,C   1,C   0,C  11)   -179.9998         0.024034   
     48. D(H   3,C   1,C   0,C  11)      0.0000         0.024034   
     49. D(H   3,C   1,C   0,C   2)   -179.9998         0.024034   
     50. D(C   5,C   1,C   0,C   2)      0.0003         0.024034   
     51. D(C   6,C   2,C   0,C   1)     -0.0003         0.023879   
     52. D(H   4,C   2,C   0,C   1)    179.9998         0.023879   
     53. D(C   6,C   2,C   0,C  11)    179.9998         0.023879   
     54. D(H   4,C   2,C   0,C  11)     -0.0000         0.023879   
     55. D(C   9,C   5,C   1,H   3)    180.0000         0.031381   
     56. D(C   9,C   5,C   1,C   0)     -0.0002         0.031381   
     57. D(H   7,C   5,C   1,H   3)     -0.0000         0.031381   
     58. D(H   7,C   5,C   1,C   0)    179.9998         0.031381   
     59. D(C   9,C   6,C   2,C   0)      0.0001         0.031175   
     60. D(H   8,C   6,C   2,H   4)     -0.0000         0.031175   
     61. D(H   8,C   6,C   2,C   0)   -179.9998         0.031175   
     62. D(C   9,C   6,C   2,H   4)    180.0000         0.031175   
     63. D(O  10,C   9,C   6,H   8)     -0.0000         0.018997   
     64. D(C   5,C   9,C   6,H   8)   -180.0000         0.018997   
     65. D(C   5,C   9,C   6,C   2)      0.0000         0.018997   
     66. D(O  10,C   9,C   5,H   7)      0.0000         0.018945   
     67. D(O  10,C   9,C   5,C   1)   -180.0000         0.018945   
     68. D(O  10,C   9,C   6,C   2)   -180.0000         0.018997   
     69. D(C   6,C   9,C   5,H   7)    180.0000         0.018945   
     70. D(C   6,C   9,C   5,C   1)     -0.0000         0.018945   
     71. D(O  13,C  11,C   0,C   2)      0.0059         0.017013   
     72. D(O  13,C  11,C   0,C   1)   -179.9939         0.017013   
     73. D(O  12,C  11,C   0,C   2)    179.9935         0.017013   
     74. D(O  12,C  11,C   0,C   1)     -0.0064         0.017013   
     75. D(C  14,O  13,C  11,O  12)      0.0057         0.031558   
     76. D(C  14,O  13,C  11,C   0)    179.9939         0.031558   
     77. D(H  15,C  14,O  13,C  11)    -60.6717         0.019585   
     78. D(H  17,C  14,O  13,C  11)    180.0000         0.019585   
     79. D(H  16,C  14,O  13,C  11)     60.6716         0.019585   
    -----------------------------------------------------------------

Number of atoms                         .... 18
Number of degrees of freedom            .... 79

         *************************************************************
         *                GEOMETRY OPTIMIZATION CYCLE   1            *
         *************************************************************
---------------------------------
CARTESIAN COORDINATES (ANGSTROEM)
---------------------------------
  C      0.000070   -0.586173   -1.600385
  C      0.000019    0.649477   -0.931291
  C      0.000059   -1.752514   -0.815198
  H      0.000024    1.558565   -1.524175
  H      0.000095   -2.719283   -1.306413
  C     -0.000033    0.725741    0.437628
  C      0.000007   -1.692077    0.555342
  H     -0.000069    1.692825    0.932152
  H      0.000002   -2.606866    1.141029
  C     -0.000042   -0.445787    1.268726
  O     -0.000090   -0.384203    2.532304
  C      0.000128   -0.610074   -3.050965
  O      0.000027    0.370890   -3.778226
  O      0.000042   -1.857187   -3.562383
  C     -0.000043   -1.949634   -4.981232
  H     -0.888907   -1.476577   -5.402107
  H      0.888816   -1.476657   -5.402207
  H     -0.000104   -3.013418   -5.209803

----------------------------
CARTESIAN COORDINATES (A.U.)
----------------------------
  NO LB      ZA    FRAG     MASS         X           Y           Z
   0 C     6.0000    0    12.011    0.000132   -1.107706   -3.024289
   1 C     6.0000    0    12.011    0.000036    1.227334   -1.759885
   2 C     6.0000    0    12.011    0.000111   -3.311772   -1.540501
   3 H     1.0000    0     1.008    0.000045    2.945261   -2.880273
   4 H     1.0000    0     1.008    0.000180   -5.138700   -2.468763
   5 C     6.0000    0    12.011   -0.000062    1.371452    0.826997
   6 C     6.0000    0    12.011    0.000013   -3.197562    1.049444
   7 H     1.0000    0     1.008   -0.000130    3.198976    1.761512
   8 H     1.0000    0     1.008    0.000004   -4.926263    2.156232
   9 C     6.0000    0    12.011   -0.000079   -0.842415    2.397545
  10 O     8.0000    0    15.999   -0.000170   -0.726038    4.785361
  11 C     6.0000    0    12.011    0.000242   -1.152873   -5.765488
  12 O     8.0000    0    15.999    0.000051    0.700881   -7.139812
  13 O     8.0000    0    15.999    0.000079   -3.509575   -6.731928
  14 C     6.0000    0    12.011   -0.000081   -3.684274   -9.413164
  15 H     1.0000    0     1.008   -1.679791   -2.790326  -10.208503
  16 H     1.0000    0     1.008    1.679619   -2.790477  -10.208692
  17 H     1.0000    0     1.008   -0.000197   -5.694535   -9.845101

--------------------------------
INTERNAL COORDINATES (ANGSTROEM)
--------------------------------
 C      0   0   0     0.000000000000     0.00000000     0.00000000
 C      1   0   0     1.405175329251     0.00000000     0.00000000
 C      1   2   0     1.406012074404   117.61617973     0.00000000
 H      2   1   3     1.085335169072   118.45346550   180.00016666
 H      3   1   2     1.084405125810   119.11624103   179.99984550
 C      2   1   3     1.371041731298   121.62388485     0.00000000
 C      3   1   2     1.371871905563   121.42370215     0.00000000
 H      6   2   1     1.086188496960   120.27190976   179.99982636
 H      7   3   1     1.086217370748   120.10415924   180.00015269
 C      7   3   1     1.436020716409   122.31203386     0.00000000
 O     10   7   3     1.265077844816   122.57734703   180.00000270
 C      1   2   3     1.450776894483   119.37913847   179.99986413
 O     12   1   2     1.221146568442   125.60829932     0.00000000
 O     12   1   2     1.347901781618   113.24159659   180.00605906
 C     14  12   1     1.421857566648   116.02554148   179.99391043
 H     15  14  12     1.091328502959   110.89785337   299.32830966
 H     15  14  12     1.091328325956   110.89778476    60.67163524
 H     15  14  12     1.088063005721   105.85445453   179.99997080

---------------------------
INTERNAL COORDINATES (A.U.)
---------------------------
 C      0   0   0     0.000000000000     0.00000000     0.00000000
 C      1   0   0     2.655396542428     0.00000000     0.00000000
 C      1   2   0     2.656977761611   117.61617973     0.00000000
 H      2   1   3     2.050986233060   118.45346550   180.00016666
 H      3   1   2     2.049228706000   119.11624103   179.99984550
 C      2   1   3     2.590893390331   121.62388485     0.00000000
 C      3   1   2     2.592462192335   121.42370215     0.00000000
 H      6   2   1     2.052598789070   120.27190976   179.99982636
 H      7   3   1     2.052653352622   120.10415924   180.00015269
 C      7   3   1     2.713685876651   122.31203386     0.00000000
 O     10   7   3     2.390650664793   122.57734703   180.00000270
 C      1   2   3     2.741571011993   119.37913847   179.99986413
 O     12   1   2     2.307632583733   125.60829932     0.00000000
 O     12   1   2     2.547165222683   113.24159659   180.00605906
 C     14  12   1     2.686921402409   116.02554148   179.99391043
 H     15  14  12     2.062311992734   110.89785337   299.32830966
 H     15  14  12     2.062311658249   110.89778476    60.67163524
 H     15  14  12     2.056141097263   105.85445453   179.99997080

---------------------
BASIS SET INFORMATION
---------------------
There are 3 groups of distinct atoms

 Group   1 Type C   : 11s6p2d1f contracted to 5s3p2d1f pattern {62111/411/11/1}
 Group   2 Type H   : 5s1p contracted to 3s1p pattern {311/1}
 Group   3 Type O   : 11s6p2d1f contracted to 5s3p2d1f pattern {62111/411/11/1}

Atom   0C    basis set group =>   1
Atom   1C    basis set group =>   1
Atom   2C    basis set group =>   1
Atom   3H    basis set group =>   2
Atom   4H    basis set group =>   2
Atom   5C    basis set group =>   1
Atom   6C    basis set group =>   1
Atom   7H    basis set group =>   2
Atom   8H    basis set group =>   2
Atom   9C    basis set group =>   1
Atom  10O    basis set group =>   3
Atom  11C    basis set group =>   1
Atom  12O    basis set group =>   3
Atom  13O    basis set group =>   3
Atom  14C    basis set group =>   1
Atom  15H    basis set group =>   2
Atom  16H    basis set group =>   2
Atom  17H    basis set group =>   2
---------------------------------
AUXILIARY/J BASIS SET INFORMATION
---------------------------------
There are 3 groups of distinct atoms

 Group   1 Type C   : 12s5p4d2f1g contracted to 6s4p3d1f1g pattern {711111/2111/211/2/1}
 Group   2 Type H   : 5s2p1d contracted to 3s1p1d pattern {311/2/1}
 Group   3 Type O   : 12s5p4d2f1g contracted to 6s4p3d1f1g pattern {711111/2111/211/2/1}

Atom   0C    basis set group =>   1
Atom   1C    basis set group =>   1
Atom   2C    basis set group =>   1
Atom   3H    basis set group =>   2
Atom   4H    basis set group =>   2
Atom   5C    basis set group =>   1
Atom   6C    basis set group =>   1
Atom   7H    basis set group =>   2
Atom   8H    basis set group =>   2
Atom   9C    basis set group =>   1
Atom  10O    basis set group =>   3
Atom  11C    basis set group =>   1
Atom  12O    basis set group =>   3
Atom  13O    basis set group =>   3
Atom  14C    basis set group =>   1
Atom  15H    basis set group =>   2
Atom  16H    basis set group =>   2
Atom  17H    basis set group =>   2


           ************************************************************
           *        Program running with 24 parallel MPI-processes    *
           *              working on a common directory               *
           ************************************************************
------------------------------------------------------------------------------
                           ORCA GTO INTEGRAL CALCULATION
                           -- RI-GTO INTEGRALS CHOSEN --
------------------------------------------------------------------------------
------------------------------------------------------------------------------
                   ___                                                        
                  /   \      - P O W E R E D   B Y -                         
                 /     \                                                     
                 |  |  |   _    _      __       _____    __    __             
                 |  |  |  | |  | |    /  \     |  _  \  |  |  /  |          
                  \  \/   | |  | |   /    \    | | | |  |  | /  /          
                 / \  \   | |__| |  /  /\  \   | |_| |  |  |/  /          
                |  |  |   |  __  | /  /__\  \  |    /   |      \           
                |  |  |   | |  | | |   __   |  |    \   |  |\   \          
                \     /   | |  | | |  |  |  |  | |\  \  |  | \   \       
                 \___/    |_|  |_| |__|  |__|  |_| \__\ |__|  \__/        
                                                                              
                      - O R C A' S   B I G   F R I E N D -                    
                                      &                                       
                       - I N T E G R A L  F E E D E R -                       
                                                                              
 v1 FN, 2020, v2 2021                                                         
------------------------------------------------------------------------------


Reading SHARK input file CO2Me-PhenO/CO2Me-PhenO.SHARKINP.tmp ... ok
----------------------
SHARK INTEGRAL PACKAGE
----------------------

Number of atoms                             ...     18
Number of basis functions                   ...    383
Number of shells                            ...    149
Maximum angular momentum                    ...      3
Integral batch strategy                     ... SHARK/LIBINT Hybrid
RI-J (if used) integral strategy            ... SPLIT-RIJ (Revised 2003 algorithm where possible)
Printlevel                                  ...      1
Contraction scheme used                     ... SEGMENTED contraction
Coulomb Range Separation                    ... NOT USED
Exchange Range Separation                   ... NOT USED
Finite Nucleus Model                        ... NOT USED
Auxiliary Coulomb fitting basis             ... AVAILABLE
   # of basis functions in Aux-J            ...    616
   # of shells in Aux-J                     ...    200
   Maximum angular momentum in Aux-J        ...      4
Auxiliary J/K fitting basis                 ... NOT available
Auxiliary Correlation fitting basis         ... NOT available
Auxiliary 'external' fitting basis          ... NOT available
Integral threshold                          ...     2.500000e-11
Primitive cut-off                           ...     2.500000e-12
Primitive pair pre-selection threshold      ...     2.500000e-12

Calculating pre-screening integrals         ... done (  0.1 sec) Dimension = 149
Organizing shell pair data                  ... done (  0.1 sec)
Shell pair information
Total number of shell pairs                 ...     11175
Shell pairs after pre-screening             ...      9380
Total number of primitive shell pairs       ...     34716
Primitive shell pairs kept                  ...     20986
          la=0 lb=0:   2330 shell pairs
          la=1 lb=0:   2607 shell pairs
          la=1 lb=1:    740 shell pairs
          la=2 lb=0:   1389 shell pairs
          la=2 lb=1:    778 shell pairs
          la=2 lb=2:    218 shell pairs
          la=3 lb=0:    670 shell pairs
          la=3 lb=1:    386 shell pairs
          la=3 lb=2:    207 shell pairs
          la=3 lb=3:     55 shell pairs

Calculating one electron integrals          ... done (  0.0 sec)
Calculating RI/J V-Matrix + Cholesky decomp.... done (  0.1 sec)
Calculating Nuclear repulsion               ... done (  0.0 sec) ENN=    564.460538036883 Eh

SHARK setup successfully completed in   0.6 seconds

Maximum memory used throughout the entire GTOINT-calculation: 22.6 MB


           ************************************************************
           *        Program running with 24 parallel MPI-processes    *
           *              working on a common directory               *
           ************************************************************
-------------------------------------------------------------------------------
                                 ORCA SCF
-------------------------------------------------------------------------------

------------
SCF SETTINGS
------------
Hamiltonian:
 Density Functional     Method          .... DFT(GTOs)
 Exchange Functional    Exchange        .... PBE
   PBE kappa parameter   XKappa         ....  0.804000
   PBE mue parameter    XMuePBE         ....  0.219520
 Correlation Functional Correlation     .... PBE
   PBE beta parameter  CBetaPBE         ....  0.066725
 LDA part of GGA corr.  LDAOpt          .... PW91-LDA
 Gradients option       PostSCFGGA      .... off
 Hybrid DFT is turned on
   Fraction HF Exchange ScalHFX         ....  0.250000
   Scaling of DF-GGA-X  ScalDFX         ....  0.750000
   Scaling of DF-GGA-C  ScalDFC         ....  1.000000
   Scaling of DF-LDA-C  ScalLDAC        ....  1.000000
   Perturbative correction              ....  0.000000
   Density functional embedding theory  .... OFF
   NL short-range parameter             ....  6.900000
 RI-approximation to the Coulomb term is turned on
   Number of AuxJ basis functions       .... 616
   RIJ-COSX (HFX calculated with COS-X)).... on


General Settings:
 Integral files         IntName         .... CO2Me-PhenO/CO2Me-PhenO
 Hartree-Fock type      HFTyp           .... RHF
 Total Charge           Charge          ....   -1
 Multiplicity           Mult            ....    1
 Number of Electrons    NEL             ....   80
 Basis Dimension        Dim             ....  383
 Nuclear Repulsion      ENuc            ....    564.4605380369 Eh

Convergence Acceleration:
 DIIS                   CNVDIIS         .... on
   Start iteration      DIISMaxIt       ....    12
   Startup error        DIISStart       ....  0.200000
   # of expansion vecs  DIISMaxEq       ....     5
   Bias factor          DIISBfac        ....   1.050
   Max. coefficient     DIISMaxC        ....  10.000
 Trust-Rad. Augm. Hess. CNVTRAH         .... auto
   Auto Start mean grad. ratio tolernc. ....  1.125000
   Auto Start start iteration           ....    20
   Auto Start num. interpolation iter.  ....    10
   Max. Number of Micro iterations      ....    16
   Max. Number of Macro iterations      .... Maxiter - #DIIS iter
   Number of Davidson start vectors     ....     2
   Converg. threshold I  (grad. norm)   ....   1.000e-05
   Converg. threshold II (energy diff.) ....   1.000e-08
   Grad. Scal. Fac. for Micro threshold ....   0.100
   Minimum threshold for Micro iter.    ....   0.010
   NR start threshold (gradient norm)   ....   0.001
   Initial trust radius                 ....   0.400
   Minimum AH scaling param. (alpha)    ....   1.000
   Maximum AH scaling param. (alpha)    .... 1000.000
   Orbital update algorithm             .... Taylor
   White noise on init. David. guess    .... on
   Maximum white noise                  ....   0.010
   Quad. conv. algorithm                .... NR
 SOSCF                  CNVSOSCF        .... on
   Start iteration      SOSCFMaxIt      ....   150
   Startup grad/error   SOSCFStart      ....  0.003300
 Level Shifting         CNVShift        .... on
   Level shift para.    LevelShift      ....    0.2500
   Turn off err/grad.   ShiftErr        ....    0.0010
 Zerner damping         CNVZerner       .... off
 Static damping         CNVDamp         .... on
   Fraction old density DampFac         ....    0.7000
   Max. Damping (<1)    DampMax         ....    0.9800
   Min. Damping (>=0)   DampMin         ....    0.0000
   Turn off err/grad.   DampErr         ....    0.1000
 Fernandez-Rico         CNVRico         .... off

SCF Procedure:
 Maximum # iterations   MaxIter         ....   800
 SCF integral mode      SCFMode         .... Direct
   Integral package                     .... SHARK and LIBINT hybrid scheme
 Reset frequency        DirectResetFreq ....    20
 Integral Threshold     Thresh          ....  2.500e-11 Eh
 Primitive CutOff       TCut            ....  2.500e-12 Eh

Convergence Tolerance:
 Convergence Check Mode ConvCheckMode   .... Total+1el-Energy
 Convergence forced     ConvForced      .... 0
 Energy Change          TolE            ....  1.000e-08 Eh
 1-El. energy change                    ....  1.000e-05 Eh
 Orbital Gradient       TolG            ....  1.000e-05
 Orbital Rotation angle TolX            ....  1.000e-05
 DIIS Error             TolErr          ....  5.000e-07


Diagonalization of the overlap matrix:
Smallest eigenvalue                        ... 1.084e-05
Time for diagonalization                   ...    0.036 sec
Threshold for overlap eigenvalues          ... 1.000e-08
Number of eigenvalues below threshold      ... 0
Time for construction of square roots      ...    0.027 sec
Total time needed                          ...    0.066 sec

Time for model grid setup =    0.120 sec

------------------------------
INITIAL GUESS: MODEL POTENTIAL
------------------------------
Loading Hartree-Fock densities                     ... done
Calculating cut-offs                               ... done
Initializing the effective Hamiltonian             ... done
Setting up the integral package (SHARK)            ... done
Starting the Coulomb interaction                   ... done (   0.1 sec)
Reading the grid                                   ... done
Mapping shells                                     ... done
Starting the XC term evaluation                    ... done (   0.0 sec)
  promolecular density results
     # of electrons  =     78.995714215
     EX              =    -67.409701022
     EC              =     -2.643766049
     EX+EC           =    -70.053467071
Transforming the Hamiltonian                       ... done (   0.0 sec)
Diagonalizing the Hamiltonian                      ... done (   0.0 sec)
Back transforming the eigenvectors                 ... done (   0.0 sec)
Now organizing SCF variables                       ... done
                      ------------------
                      INITIAL GUESS DONE (   0.4 sec)
                      ------------------
-------------------
DFT GRID GENERATION
-------------------

General Integration Accuracy     IntAcc      ... 4.388
Radial Grid Type                 RadialGrid  ... OptM3 with GC (2021)
Angular Grid (max. ang.)         AngularGrid ... 4 (Lebedev-302)
Angular grid pruning method      GridPruning ... 4 (adaptive)
Weight generation scheme         WeightScheme... Becke
Basis function cutoff            BFCut       ... 1.0000e-11
Integration weight cutoff        WCut        ... 1.0000e-14
Angular grids for H and He will be reduced by one unit
Partially contracted basis set               ... off
Rotationally invariant grid construction     ... off

Total number of grid points                  ...    88847
Total number of batches                      ...     1398
Average number of points per batch           ...       63
Average number of grid points per atom       ...     4936
Time for grid setup =    0.495 sec

--------------------
COSX GRID GENERATION
--------------------

GRIDX 1
-------
General Integration Accuracy     IntAcc      ... 3.816
Radial Grid Type                 RadialGrid  ... OptM3 with GC (2021)
Angular Grid (max. ang.)         AngularGrid ... 1 (Lebedev-50)
Angular grid pruning method      GridPruning ... 4 (adaptive)
Weight generation scheme         WeightScheme... Becke
Basis function cutoff            BFCut       ... 1.0000e-11
Integration weight cutoff        WCut        ... 1.0000e-14
Angular grids for H and He will be reduced by one unit
Partially contracted basis set               ... on
Rotationally invariant grid construction     ... off

Total number of grid points                  ...    11332
Total number of batches                      ...      185
Average number of points per batch           ...       61
Average number of grid points per atom       ...      630
UseSFitting                                  ... on

GRIDX 2
-------
General Integration Accuracy     IntAcc      ... 4.020
Radial Grid Type                 RadialGrid  ... OptM3 with GC (2021)
Angular Grid (max. ang.)         AngularGrid ... 2 (Lebedev-110)
Angular grid pruning method      GridPruning ... 4 (adaptive)
Weight generation scheme         WeightScheme... Becke
Basis function cutoff            BFCut       ... 1.0000e-11
Integration weight cutoff        WCut        ... 1.0000e-14
Angular grids for H and He will be reduced by one unit
Partially contracted basis set               ... on
Rotationally invariant grid construction     ... off

Total number of grid points                  ...    25130
Total number of batches                      ...      402
Average number of points per batch           ...       62
Average number of grid points per atom       ...     1396
UseSFitting                                  ... on

GRIDX 3
-------
General Integration Accuracy     IntAcc      ... 4.338
Radial Grid Type                 RadialGrid  ... OptM3 with GC (2021)
Angular Grid (max. ang.)         AngularGrid ... 3 (Lebedev-194)
Angular grid pruning method      GridPruning ... 4 (adaptive)
Weight generation scheme         WeightScheme... Becke
Basis function cutoff            BFCut       ... 1.0000e-11
Integration weight cutoff        WCut        ... 1.0000e-14
Angular grids for H and He will be reduced by one unit
Partially contracted basis set               ... on
Rotationally invariant grid construction     ... off

Total number of grid points                  ...    55361
Total number of batches                      ...      875
Average number of points per batch           ...       63
Average number of grid points per atom       ...     3076
UseSFitting                                  ... on

Time for X-Grid setup             =    0.721 sec


--------------------
CPCM SOLVATION MODEL
--------------------
CPCM parameters:
  Epsilon                                         ...      47.2000
  Refrac                                          ...       1.4790
  Rsolv                                           ...       1.3000
  Surface type                                    ... GAUSSIAN VDW
  Epsilon function type                           ...         CPCM
Radii:
 Radius for C  used is    3.8550 Bohr (=   2.0400 Ang.)
 Radius for H  used is    2.4944 Bohr (=   1.3200 Ang.)
 Radius for O  used is    3.4469 Bohr (=   1.8240 Ang.)
Calculating surface                               ...        done! (  0.0s)
GEPOL surface points                              ...         1024
GEPOL Volume                                      ...    1217.9588
GEPOL Surface-area                                ...     678.1491
Calculating surface distance matrix               ...        done! (  0.0s)
Performing Cholesky decomposition & store         ...        done! (  0.1s)
Overall time for CPCM initialization              ...                 0.1s
--------------
SCF ITERATIONS
--------------
ITER       Energy         Delta-E        Max-DP      RMS-DP      [F,P]     Damp
               ***  Starting incremental Fock matrix formation  ***
  0   -534.1407996365   0.000000000000 0.40811801  0.00381924  0.3227022 0.7000
  1   -534.3036226736  -0.162823037102 0.38250435  0.00350130  0.1383615 0.7000
                               ***Turning on DIIS***
  2   -534.3685533075  -0.064930633899 0.38300569  0.00407508  0.0425965 0.0000
  3   -534.4735213548  -0.104968047286 0.39029758  0.00339503  0.0800287 0.0000
  4   -534.4939596638  -0.020438309031 0.08065310  0.00073759  0.0153578 0.0000
  5   -534.4952927459  -0.001333082098 0.03364917  0.00031220  0.0056113 0.0000
                      *** Initiating the SOSCF procedure ***
                           *** Shutting down DIIS ***
                      *** Re-Reading the Fockian *** 
                      *** Removing any level shift *** 
ITER      Energy       Delta-E        Grad      Rot      Max-DP    RMS-DP
  6   -534.49538588  -0.0000931368  0.000277  0.000277  0.014610  0.000142
               *** Restarting incremental Fock matrix formation ***
  7   -534.49537596   0.0000099209  0.000215  0.001205  0.002109  0.000027
  8   -534.49537269   0.0000032739  0.000344  0.000689  0.001382  0.000015
  9   -534.49537828  -0.0000055882  0.000032  0.000109  0.000115  0.000002
 10   -534.49537824   0.0000000355  0.000049  0.000050  0.000202  0.000002
 11   -534.49537833  -0.0000000846  0.000006  0.000015  0.000091  0.000001
 12   -534.49537832   0.0000000004  0.000010  0.000009  0.000074  0.000001
                  ***Gradient check signals convergence***
              ***Rediagonalizing the Fockian in SOSCF/NRSCF***

               *****************************************************
               *                     SUCCESS                       *
               *           SCF CONVERGED AFTER  13 CYCLES          *
               *****************************************************

Old exchange energy                            =    -17.232988127 Eh
New exchange energy                            =    -17.232964731 Eh
Exchange energy change after final integration =      0.000023396 Eh
Total energy after final integration           =   -534.495354932 Eh
Final COS-X integration done in                =     2.400 sec

----------------
TOTAL SCF ENERGY
----------------

Total Energy       :         -534.49535493 Eh          -14544.35803 eV

Components:
Nuclear Repulsion  :          564.46053804 Eh           15359.75211 eV
Electronic Energy  :        -1098.95589297 Eh          -29904.11014 eV
One Electron Energy:        -1861.07080971 Eh          -50642.31134 eV
Two Electron Energy:          762.11491674 Eh           20738.20119 eV
Max COSX asymmetry :            0.00000174 Eh               0.00005 eV
CPCM Dielectric    :           -0.09465526 Eh              -2.57570 eV

Virial components:
Potential Energy   :        -1066.67683322 Eh          -29025.75227 eV
Kinetic Energy     :          532.18147828 Eh           14481.39424 eV
Virial Ratio       :            2.00434791


DFT components:
N(Alpha)           :       39.999988735546 electrons
N(Beta)            :       39.999988735546 electrons
N(Total)           :       79.999977471093 electrons
E(X)               :      -51.622145866605 Eh       
E(C)               :       -2.688620085180 Eh       
E(XC)              :      -54.310765951785 Eh       
DFET-embed. en.    :        0.000000000000 Eh       
CPCM Solvation Model Properties:
Surface-charge          :            0.97106413
Charge-correction       :           -0.00371364 Eh              -0.10105 eV
Free-energy (cav+disp)  :  This term is not implemented in the current solvation scheme

---------------
SCF CONVERGENCE
---------------

  Last Energy change         ...   -3.4061e-09  Tolerance :   1.0000e-08
  Last MAX-Density change    ...    1.5543e-15  Tolerance :   1.0000e-07
  Last RMS-Density change    ...    1.8386e-17  Tolerance :   5.0000e-09
  Last Orbital Gradient      ...    1.1630e-06  Tolerance :   1.0000e-05
  Last Orbital Rotation      ...    3.8617e-06  Tolerance :   1.0000e-05

             **** THE GBW FILE WAS UPDATED (CO2Me-PhenO/CO2Me-PhenO.gbw) ****
             **** DENSITY CO2Me-PhenO/CO2Me-PhenO.scfp WAS UPDATED ****
             **** ENERGY FILE WAS UPDATED (CO2Me-PhenO/CO2Me-PhenO.en.tmp) ****
             **** THE GBW FILE WAS UPDATED (CO2Me-PhenO/CO2Me-PhenO.gbw) ****
             **** DENSITY CO2Me-PhenO/CO2Me-PhenO.scfp WAS UPDATED ****
----------------
ORBITAL ENERGIES
----------------

  NO   OCC          E(Eh)            E(eV) 
   0   2.0000     -19.240075      -523.5491 
   1   2.0000     -19.174372      -521.7612 
   2   2.0000     -19.127452      -520.4844 
   3   2.0000     -10.333124      -281.1786 
   4   2.0000     -10.259987      -279.1884 
   5   2.0000     -10.256728      -279.0998 
   6   2.0000     -10.216313      -278.0000 
   7   2.0000     -10.215514      -277.9783 
   8   2.0000     -10.207000      -277.7466 
   9   2.0000     -10.194720      -277.4124 
  10   2.0000     -10.194591      -277.4089 
  11   2.0000      -1.125509       -30.6267 
  12   2.0000      -1.029326       -28.0094 
  13   2.0000      -0.996184       -27.1076 
  14   2.0000      -0.857899       -23.3446 
  15   2.0000      -0.766671       -20.8622 
  16   2.0000      -0.753830       -20.5127 
  17   2.0000      -0.713402       -19.4127 
  18   2.0000      -0.612887       -16.6775 
  19   2.0000      -0.607471       -16.5301 
  20   2.0000      -0.567091       -15.4313 
  21   2.0000      -0.537184       -14.6175 
  22   2.0000      -0.491454       -13.3732 
  23   2.0000      -0.490331       -13.3426 
  24   2.0000      -0.456693       -12.4272 
  25   2.0000      -0.450841       -12.2680 
  26   2.0000      -0.443762       -12.0754 
  27   2.0000      -0.415835       -11.3154 
  28   2.0000      -0.410369       -11.1667 
  29   2.0000      -0.408096       -11.1048 
  30   2.0000      -0.385687       -10.4951 
  31   2.0000      -0.370368       -10.0782 
  32   2.0000      -0.361991        -9.8503 
  33   2.0000      -0.339854        -9.2479 
  34   2.0000      -0.317705        -8.6452 
  35   2.0000      -0.311656        -8.4806 
  36   2.0000      -0.285455        -7.7676 
  37   2.0000      -0.258146        -7.0245 
  38   2.0000      -0.229734        -6.2514 
  39   2.0000      -0.192835        -5.2473 
  40   0.0000      -0.014159        -0.3853 
  41   0.0000       0.010442         0.2841 
  42   0.0000       0.068911         1.8752 
  43   0.0000       0.087724         2.3871 
  44   0.0000       0.090145         2.4530 
  45   0.0000       0.101903         2.7729 
  46   0.0000       0.106242         2.8910 
  47   0.0000       0.118736         3.2310 
  48   0.0000       0.128695         3.5020 
  49   0.0000       0.141370         3.8469 
  50   0.0000       0.144644         3.9360 
  51   0.0000       0.155182         4.2227 
  52   0.0000       0.179041         4.8719 
  53   0.0000       0.184413         5.0181 
  54   0.0000       0.194049         5.2803 
  55   0.0000       0.208479         5.6730 
  56   0.0000       0.215455         5.8628 
  57   0.0000       0.230514         6.2726 
  58   0.0000       0.239669         6.5217 
  59   0.0000       0.241674         6.5763 
  60   0.0000       0.249179         6.7805 
  61   0.0000       0.259462         7.0603 
  62   0.0000       0.274323         7.4647 
  63   0.0000       0.274672         7.4742 
  64   0.0000       0.292235         7.9521 
  65   0.0000       0.296966         8.0808 
  66   0.0000       0.326777         8.8920 
  67   0.0000       0.329832         8.9752 
  68   0.0000       0.334435         9.1004 
  69   0.0000       0.344160         9.3651 
  70   0.0000       0.345559         9.4031 
  71   0.0000       0.363453         9.8901 
  72   0.0000       0.368483        10.0269 
  73   0.0000       0.371076        10.0975 
  74   0.0000       0.383675        10.4403 
  75   0.0000       0.389183        10.5902 
  76   0.0000       0.411696        11.2028 
  77   0.0000       0.414262        11.2727 
  78   0.0000       0.425810        11.5869 
  79   0.0000       0.428975        11.6730 
  80   0.0000       0.439321        11.9545 
  81   0.0000       0.451235        12.2787 
  82   0.0000       0.454517        12.3680 
  83   0.0000       0.461071        12.5464 
  84   0.0000       0.470540        12.8040 
  85   0.0000       0.481822        13.1110 
  86   0.0000       0.490846        13.3566 
  87   0.0000       0.500067        13.6075 
  88   0.0000       0.509622        13.8675 
  89   0.0000       0.515487        14.0271 
  90   0.0000       0.525304        14.2942 
  91   0.0000       0.533530        14.5181 
  92   0.0000       0.543887        14.7999 
  93   0.0000       0.557525        15.1710 
  94   0.0000       0.567123        15.4322 
  95   0.0000       0.578699        15.7472 
  96   0.0000       0.598491        16.2858 
  97   0.0000       0.617125        16.7928 
  98   0.0000       0.625875        17.0309 
  99   0.0000       0.647091        17.6082 
 100   0.0000       0.664511        18.0823 
 101   0.0000       0.670605        18.2481 
 102   0.0000       0.678204        18.4549 
 103   0.0000       0.692113        18.8334 
 104   0.0000       0.696379        18.9494 
 105   0.0000       0.733607        19.9625 
 106   0.0000       0.739592        20.1253 
 107   0.0000       0.755469        20.5574 
 108   0.0000       0.759822        20.6758 
 109   0.0000       0.773113        21.0375 
 110   0.0000       0.779907        21.2223 
 111   0.0000       0.791622        21.5411 
 112   0.0000       0.807240        21.9661 
 113   0.0000       0.823151        22.3991 
 114   0.0000       0.835669        22.7397 
 115   0.0000       0.844885        22.9905 
 116   0.0000       0.853996        23.2384 
 117   0.0000       0.881497        23.9867 
 118   0.0000       0.886244        24.1159 
 119   0.0000       0.893913        24.3246 
 120   0.0000       0.902399        24.5555 
 121   0.0000       0.918079        24.9822 
 122   0.0000       0.925760        25.1912 
 123   0.0000       0.930425        25.3182 
 124   0.0000       0.952488        25.9185 
 125   0.0000       1.008913        27.4539 
 126   0.0000       1.009203        27.4618 
 127   0.0000       1.029817        28.0228 
 128   0.0000       1.034405        28.1476 
 129   0.0000       1.043162        28.3859 
 130   0.0000       1.084755        29.5177 
 131   0.0000       1.084976        29.5237 
 132   0.0000       1.102242        29.9935 
 133   0.0000       1.119953        30.4755 
 134   0.0000       1.170202        31.8428 
 135   0.0000       1.184032        32.2192 
 136   0.0000       1.208345        32.8807 
 137   0.0000       1.242701        33.8156 
 138   0.0000       1.244409        33.8621 
 139   0.0000       1.250671        34.0325 
 140   0.0000       1.251334        34.0505 
 141   0.0000       1.283436        34.9241 
 142   0.0000       1.296418        35.2773 
 143   0.0000       1.313371        35.7386 
 144   0.0000       1.327569        36.1250 
 145   0.0000       1.358996        36.9802 
 146   0.0000       1.373968        37.3876 
 147   0.0000       1.408908        38.3383 
 148   0.0000       1.435939        39.0739 
 149   0.0000       1.446834        39.3704 
 150   0.0000       1.476294        40.1720 
 151   0.0000       1.482011        40.3276 
 152   0.0000       1.501272        40.8517 
 153   0.0000       1.514832        41.2207 
 154   0.0000       1.517604        41.2961 
 155   0.0000       1.520955        41.3873 
 156   0.0000       1.546081        42.0710 
 157   0.0000       1.547111        42.0990 
 158   0.0000       1.563361        42.5412 
 159   0.0000       1.580388        43.0045 
 160   0.0000       1.584022        43.1034 
 161   0.0000       1.589001        43.2389 
 162   0.0000       1.603922        43.6449 
 163   0.0000       1.623029        44.1649 
 164   0.0000       1.651278        44.9336 
 165   0.0000       1.662157        45.2296 
 166   0.0000       1.670463        45.4556 
 167   0.0000       1.697937        46.2032 
 168   0.0000       1.704012        46.3685 
 169   0.0000       1.727214        46.9999 
 170   0.0000       1.755279        47.7636 
 171   0.0000       1.779528        48.4234 
 172   0.0000       1.788969        48.6803 
 173   0.0000       1.827378        49.7255 
 174   0.0000       1.844456        50.1902 
 175   0.0000       1.852609        50.4120 
 176   0.0000       1.864637        50.7394 
 177   0.0000       1.881353        51.1942 
 178   0.0000       1.902060        51.7577 
 179   0.0000       1.953462        53.1564 
 180   0.0000       1.963969        53.4423 
 181   0.0000       1.966778        53.5188 
 182   0.0000       1.967208        53.5305 
 183   0.0000       2.017841        54.9082 
 184   0.0000       2.020468        54.9797 
 185   0.0000       2.035606        55.3917 
 186   0.0000       2.059501        56.0419 
 187   0.0000       2.074127        56.4399 
 188   0.0000       2.081106        56.6298 
 189   0.0000       2.099091        57.1192 
 190   0.0000       2.138915        58.2028 
 191   0.0000       2.142397        58.2976 
 192   0.0000       2.152662        58.5769 
 193   0.0000       2.172424        59.1147 
 194   0.0000       2.185308        59.4653 
 195   0.0000       2.214047        60.2473 
 196   0.0000       2.240870        60.9772 
 197   0.0000       2.275654        61.9237 
 198   0.0000       2.278169        61.9921 
 199   0.0000       2.283704        62.1428 
 200   0.0000       2.316746        63.0419 
 201   0.0000       2.335966        63.5649 
 202   0.0000       2.340311        63.6831 
 203   0.0000       2.359942        64.2173 
 204   0.0000       2.378886        64.7328 
 205   0.0000       2.410017        65.5799 
 206   0.0000       2.432606        66.1946 
 207   0.0000       2.438935        66.3668 
 208   0.0000       2.461398        66.9781 
 209   0.0000       2.496121        67.9229 
 210   0.0000       2.539274        69.0972 
 211   0.0000       2.541746        69.1644 
 212   0.0000       2.554460        69.5104 
 213   0.0000       2.572696        70.0066 
 214   0.0000       2.592992        70.5589 
 215   0.0000       2.599098        70.7250 
 216   0.0000       2.637435        71.7683 
 217   0.0000       2.640661        71.8560 
 218   0.0000       2.667627        72.5898 
 219   0.0000       2.673515        72.7500 
 220   0.0000       2.678515        72.8861 
 221   0.0000       2.690975        73.2252 
 222   0.0000       2.718480        73.9736 
 223   0.0000       2.732593        74.3576 
 224   0.0000       2.735209        74.4288 
 225   0.0000       2.753740        74.9331 
 226   0.0000       2.784431        75.7682 
 227   0.0000       2.809160        76.4411 
 228   0.0000       2.817626        76.6715 
 229   0.0000       2.828135        76.9575 
 230   0.0000       2.834510        77.1309 
 231   0.0000       2.840193        77.2856 
 232   0.0000       2.847707        77.4900 
 233   0.0000       2.863741        77.9263 
 234   0.0000       2.875484        78.2459 
 235   0.0000       2.899490        78.8991 
 236   0.0000       2.926390        79.6311 
 237   0.0000       2.932451        79.7961 
 238   0.0000       2.937405        79.9308 
 239   0.0000       2.968739        80.7835 
 240   0.0000       2.975083        80.9561 
 241   0.0000       2.987646        81.2980 
 242   0.0000       3.001219        81.6673 
 243   0.0000       3.036187        82.6188 
 244   0.0000       3.051693        83.0408 
 245   0.0000       3.056543        83.1728 
 246   0.0000       3.067991        83.4843 
 247   0.0000       3.106228        84.5248 
 248   0.0000       3.118461        84.8576 
 249   0.0000       3.126477        85.0758 
 250   0.0000       3.154398        85.8355 
 251   0.0000       3.157539        85.9210 
 252   0.0000       3.177750        86.4710 
 253   0.0000       3.181983        86.5862 
 254   0.0000       3.186296        86.7035 
 255   0.0000       3.204722        87.2049 
 256   0.0000       3.223186        87.7073 
 257   0.0000       3.233741        87.9946 
 258   0.0000       3.248162        88.3870 
 259   0.0000       3.254448        88.5580 
 260   0.0000       3.278863        89.2224 
 261   0.0000       3.285765        89.4102 
 262   0.0000       3.297236        89.7223 
 263   0.0000       3.313460        90.1638 
 264   0.0000       3.315024        90.2064 
 265   0.0000       3.335669        90.7682 
 266   0.0000       3.356740        91.3415 
 267   0.0000       3.366773        91.6145 
 268   0.0000       3.383940        92.0817 
 269   0.0000       3.407669        92.7274 
 270   0.0000       3.418823        93.0309 
 271   0.0000       3.431146        93.3662 
 272   0.0000       3.431409        93.3734 
 273   0.0000       3.432825        93.4119 
 274   0.0000       3.444685        93.7346 
 275   0.0000       3.445355        93.7529 
 276   0.0000       3.451366        93.9165 
 277   0.0000       3.486270        94.8662 
 278   0.0000       3.504641        95.3661 
 279   0.0000       3.521365        95.8212 
 280   0.0000       3.522647        95.8561 
 281   0.0000       3.547234        96.5252 
 282   0.0000       3.547922        96.5439 
 283   0.0000       3.574837        97.2763 
 284   0.0000       3.589156        97.6659 
 285   0.0000       3.599606        97.9502 
 286   0.0000       3.624643        98.6315 
 287   0.0000       3.650023        99.3222 
 288   0.0000       3.658854        99.5625 
 289   0.0000       3.706607       100.8619 
 290   0.0000       3.714325       101.0719 
 291   0.0000       3.785869       103.0187 
 292   0.0000       3.840156       104.4960 
 293   0.0000       3.843528       104.5877 
 294   0.0000       3.848368       104.7194 
 295   0.0000       3.896982       106.0423 
 296   0.0000       3.935159       107.0811 
 297   0.0000       3.946883       107.4002 
 298   0.0000       3.996800       108.7584 
 299   0.0000       4.044617       110.0596 
 300   0.0000       4.059261       110.4581 
 301   0.0000       4.074107       110.8621 
 302   0.0000       4.147769       112.8665 
 303   0.0000       4.149899       112.9245 
 304   0.0000       4.173555       113.5682 
 305   0.0000       4.199936       114.2861 
 306   0.0000       4.217015       114.7508 
 307   0.0000       4.220976       114.8586 
 308   0.0000       4.242797       115.4524 
 309   0.0000       4.287293       116.6632 
 310   0.0000       4.297015       116.9277 
 311   0.0000       4.301508       117.0500 
 312   0.0000       4.317027       117.4723 
 313   0.0000       4.326632       117.7336 
 314   0.0000       4.383237       119.2740 
 315   0.0000       4.425933       120.4357 
 316   0.0000       4.471577       121.6778 
 317   0.0000       4.523258       123.0841 
 318   0.0000       4.562133       124.1419 
 319   0.0000       4.614937       125.5788 
 320   0.0000       4.621882       125.7678 
 321   0.0000       4.651128       126.5636 
 322   0.0000       4.666809       126.9903 
 323   0.0000       4.722116       128.4953 
 324   0.0000       4.748852       129.2228 
 325   0.0000       4.875942       132.6811 
 326   0.0000       4.886353       132.9644 
 327   0.0000       4.920725       133.8997 
 328   0.0000       4.947529       134.6291 
 329   0.0000       5.026730       136.7843 
 330   0.0000       5.144071       139.9773 
 331   0.0000       5.160553       140.4258 
 332   0.0000       5.189262       141.2070 
 333   0.0000       5.250484       142.8729 
 334   0.0000       5.268701       143.3686 
 335   0.0000       5.316155       144.6599 
 336   0.0000       5.320092       144.7671 
 337   0.0000       5.347996       145.5264 
 338   0.0000       5.379564       146.3854 
 339   0.0000       5.480777       149.1395 
 340   0.0000       5.533072       150.5625 
 341   0.0000       5.561396       151.3333 
 342   0.0000       5.591777       152.1600 
 343   0.0000       5.606406       152.5581 
 344   0.0000       5.699414       155.0889 
 345   0.0000       5.706428       155.2798 
 346   0.0000       5.800501       157.8397 
 347   0.0000       5.927681       161.3004 
 348   0.0000       5.985320       162.8688 
 349   0.0000       6.097279       165.9154 
 350   0.0000       6.150635       167.3673 
 351   0.0000       6.200936       168.7360 
 352   0.0000       6.330243       172.2547 
 353   0.0000       6.382330       173.6720 
 354   0.0000       6.404141       174.2655 
 355   0.0000       6.424485       174.8191 
 356   0.0000       6.451665       175.5587 
 357   0.0000       6.590562       179.3383 
 358   0.0000       6.665449       181.3761 
 359   0.0000       6.676938       181.6887 
 360   0.0000       6.685875       181.9319 
 361   0.0000       6.769038       184.1949 
 362   0.0000       6.802216       185.0977 
 363   0.0000       6.871299       186.9776 
 364   0.0000       6.915003       188.1668 
 365   0.0000       6.979612       189.9249 
 366   0.0000       7.087429       192.8588 
 367   0.0000       7.124749       193.8743 
 368   0.0000       7.127931       193.9609 
 369   0.0000       7.158472       194.7919 
 370   0.0000       7.353002       200.0854 
 371   0.0000       7.478301       203.4949 
 372   0.0000      22.284485       606.3917 
 373   0.0000      22.471472       611.4798 
 374   0.0000      22.728779       618.4815 
 375   0.0000      22.864378       622.1714 
 376   0.0000      22.883276       622.6856 
 377   0.0000      23.069771       627.7604 
 378   0.0000      23.474590       638.7761 
 379   0.0000      23.626015       642.8965 
 380   0.0000      44.030100      1198.1199 
 381   0.0000      44.071994      1199.2599 
 382   0.0000      44.249522      1204.0907 

                    ********************************
                    * MULLIKEN POPULATION ANALYSIS *
                    ********************************

-----------------------
MULLIKEN ATOMIC CHARGES
-----------------------
   0 C :    0.073203
   1 C :   -0.236835
   2 C :   -0.247967
   3 H :    0.131793
   4 H :    0.138052
   5 C :   -0.277686
   6 C :   -0.281347
   7 H :    0.108292
   8 H :    0.107387
   9 C :    0.275821
  10 O :   -0.611538
  11 C :    0.362281
  12 O :   -0.473258
  13 O :   -0.247922
  14 C :   -0.253521
  15 H :    0.140701
  16 H :    0.140703
  17 H :    0.151839
Sum of atomic charges:   -1.0000000

--------------------------------
MULLIKEN REDUCED ORBITAL CHARGES
--------------------------------
  0 C s       :     3.164627  s :     3.164627
      pz      :     0.736320  p :     2.628631
      px      :     1.102411
      py      :     0.789901
      dz2     :     0.034621  d :     0.123573
      dxz     :     0.015902
      dyz     :     0.030915
      dx2y2   :     0.019541
      dxy     :     0.022595
      f0      :     0.001433  f :     0.009965
      f+1     :     0.000913
      f-1     :     0.003407
      f+2     :     0.000941
      f-2     :     0.001162
      f+3     :     0.001273
      f-3     :     0.000836
  1 C s       :     3.230679  s :     3.230679
      pz      :     0.985604  p :     2.894155
      px      :     0.938544
      py      :     0.970007
      dz2     :     0.017773  d :     0.104673
      dxz     :     0.025384
      dyz     :     0.040825
      dx2y2   :     0.008770
      dxy     :     0.011920
      f0      :     0.000740  f :     0.007328
      f+1     :     0.001515
      f-1     :     0.002239
      f+2     :     0.000767
      f-2     :     0.000481
      f+3     :     0.000961
      f-3     :     0.000625
  2 C s       :     3.249345  s :     3.249345
      pz      :     0.961493  p :     2.885382
      px      :     0.940460
      py      :     0.983429
      dz2     :     0.022055  d :     0.105927
      dxz     :     0.027855
      dyz     :     0.037349
      dx2y2   :     0.009374
      dxy     :     0.009293
      f0      :     0.000853  f :     0.007313
      f+1     :     0.001481
      f-1     :     0.002162
      f+2     :     0.000724
      f-2     :     0.000640
      f+3     :     0.000793
      f-3     :     0.000660
  3 H s       :     0.845945  s :     0.845945
      pz      :     0.007231  p :     0.022262
      px      :     0.004439
      py      :     0.010593
  4 H s       :     0.839716  s :     0.839716
      pz      :     0.006198  p :     0.022232
      px      :     0.004470
      py      :     0.011563
  5 C s       :     3.240832  s :     3.240832
      pz      :     0.918905  p :     2.950569
      px      :     1.079839
      py      :     0.951825
      dz2     :     0.017723  d :     0.079289
      dxz     :     0.016306
      dyz     :     0.031041
      dx2y2   :     0.008220
      dxy     :     0.005999
      f0      :     0.001000  f :     0.006995
      f+1     :     0.001448
      f-1     :     0.002101
      f+2     :     0.000790
      f-2     :     0.000425
      f+3     :     0.000619
      f-3     :     0.000612
  6 C s       :     3.244015  s :     3.244015
      pz      :     0.922317  p :     2.951636
      px      :     1.081464
      py      :     0.947856
      dz2     :     0.016375  d :     0.078685
      dxz     :     0.015554
      dyz     :     0.031615
      dx2y2   :     0.008313
      dxy     :     0.006829
      f0      :     0.000874  f :     0.007010
      f+1     :     0.001431
      f-1     :     0.002191
      f+2     :     0.000824
      f-2     :     0.000348
      f+3     :     0.000724
      f-3     :     0.000617
  7 H s       :     0.869388  s :     0.869388
      pz      :     0.005438  p :     0.022320
      px      :     0.005500
      py      :     0.011381
  8 H s       :     0.870290  s :     0.870290
      pz      :     0.006248  p :     0.022324
      px      :     0.005512
      py      :     0.010563
  9 C s       :     2.946576  s :     2.946576
      pz      :     0.856653  p :     2.587360
      px      :     0.815423
      py      :     0.915284
      dz2     :     0.032862  d :     0.173279
      dxz     :     0.056851
      dyz     :     0.053551
      dx2y2   :     0.012484
      dxy     :     0.017530
      f0      :     0.002863  f :     0.016964
      f+1     :     0.003415
      f-1     :     0.007070
      f+2     :     0.000801
      f-2     :     0.001044
      f+3     :     0.001168
      f-3     :     0.000603
 10 O s       :     3.785004  s :     3.785004
      pz      :     1.370027  p :     4.797208
      px      :     1.575960
      py      :     1.851221
      dz2     :     0.011996  d :     0.027701
      dxz     :     0.008537
      dyz     :     0.006980
      dx2y2   :     0.000115
      dxy     :     0.000073
      f0      :     0.000650  f :     0.001625
      f+1     :     0.000500
      f-1     :     0.000452
      f+2     :     0.000009
      f-2     :     0.000008
      f+3     :     0.000002
      f-3     :     0.000003
 11 C s       :     3.059541  s :     3.059541
      pz      :     0.805078  p :     2.295496
      px      :     0.778806
      py      :     0.711612
      dz2     :     0.062360  d :     0.257942
      dxz     :     0.044290
      dyz     :     0.057282
      dx2y2   :     0.033955
      dxy     :     0.060057
      f0      :     0.002378  f :     0.024739
      f+1     :     0.001387
      f-1     :     0.008860
      f+2     :     0.003030
      f-2     :     0.003505
      f+3     :     0.003530
      f-3     :     0.002048
 12 O s       :     3.805629  s :     3.805629
      pz      :     1.635232  p :     4.635860
      px      :     1.491652
      py      :     1.508976
      dz2     :     0.005243  d :     0.029915
      dxz     :     0.003769
      dyz     :     0.009011
      dx2y2   :     0.005268
      dxy     :     0.006624
      f0      :     0.000182  f :     0.001854
      f+1     :     0.000021
      f-1     :     0.000517
      f+2     :     0.000350
      f-2     :     0.000399
      f+3     :     0.000222
      f-3     :     0.000164
 13 O s       :     3.743649  s :     3.743649
      pz      :     1.295840  p :     4.461476
      px      :     1.723528
      py      :     1.442108
      dz2     :     0.012407  d :     0.040696
      dxz     :     0.005463
      dyz     :     0.010199
      dx2y2   :     0.007465
      dxy     :     0.005163
      f0      :     0.000500  f :     0.002100
      f+1     :     0.000246
      f-1     :     0.000397
      f+2     :     0.000297
      f-2     :     0.000120
      f+3     :     0.000251
      f-3     :     0.000290
 14 C s       :     3.252958  s :     3.252958
      pz      :     0.679322  p :     2.900886
      px      :     1.100433
      py      :     1.121131
      dz2     :     0.020102  d :     0.091950
      dxz     :     0.035288
      dyz     :     0.021792
      dx2y2   :     0.008831
      dxy     :     0.005937
      f0      :     0.002346  f :     0.007726
      f+1     :     0.002522
      f-1     :     0.002007
      f+2     :    -0.000013
      f-2     :     0.000064
      f+3     :     0.000006
      f-3     :     0.000795
 15 H s       :     0.838932  s :     0.838932
      pz      :     0.004359  p :     0.020367
      px      :     0.009997
      py      :     0.006011
 16 H s       :     0.838930  s :     0.838930
      pz      :     0.004360  p :     0.020367
      px      :     0.009997
      py      :     0.006010
 17 H s       :     0.827483  s :     0.827483
      pz      :     0.003291  p :     0.020678
      px      :     0.004472
      py      :     0.012915


                     *******************************
                     * LOEWDIN POPULATION ANALYSIS *
                     *******************************

----------------------
LOEWDIN ATOMIC CHARGES
----------------------
   0 C :   -0.199292
   1 C :   -0.128445
   2 C :   -0.134182
   3 H :    0.151225
   4 H :    0.151095
   5 C :   -0.177399
   6 C :   -0.178372
   7 H :    0.139638
   8 H :    0.139599
   9 C :   -0.417183
  10 O :   -0.143728
  11 C :   -0.472404
  12 O :    0.016259
  13 O :    0.234950
  14 C :   -0.327449
  15 H :    0.113794
  16 H :    0.113795
  17 H :    0.118098

-------------------------------
LOEWDIN REDUCED ORBITAL CHARGES
-------------------------------
  0 C s       :     2.698821  s :     2.698821
      pz      :     0.961018  p :     2.949387
      px      :     0.957184
      py      :     1.031184
      dz2     :     0.149362  d :     0.495496
      dxz     :     0.051133
      dyz     :     0.145654
      dx2y2   :     0.072299
      dxy     :     0.077048
      f0      :     0.008229  f :     0.055588
      f+1     :     0.004061
      f-1     :     0.020452
      f+2     :     0.006292
      f-2     :     0.007594
      f+3     :     0.003626
      f-3     :     0.005336
  1 C s       :     2.758574  s :     2.758574
      pz      :     1.053953  p :     2.913652
      px      :     0.859599
      py      :     1.000100
      dz2     :     0.092790  d :     0.412532
      dxz     :     0.080612
      dyz     :     0.157178
      dx2y2   :     0.042756
      dxy     :     0.039196
      f0      :     0.007425  f :     0.043687
      f+1     :     0.006648
      f-1     :     0.014620
      f+2     :     0.004440
      f-2     :     0.002998
      f+3     :     0.003857
      f-3     :     0.003699
  2 C s       :     2.759825  s :     2.759825
      pz      :     1.059783  p :     2.918144
      px      :     0.862242
      py      :     0.996119
      dz2     :     0.101558  d :     0.412619
      dxz     :     0.089246
      dyz     :     0.146482
      dx2y2   :     0.044371
      dxy     :     0.030962
      f0      :     0.007587  f :     0.043593
      f+1     :     0.006129
      f-1     :     0.014588
      f+2     :     0.004395
      f-2     :     0.004363
      f+3     :     0.003046
      f-3     :     0.003484
  3 H s       :     0.788539  s :     0.788539
      pz      :     0.019324  p :     0.060235
      px      :     0.012753
      py      :     0.028159
  4 H s       :     0.788464  s :     0.788464
      pz      :     0.016873  p :     0.060441
      px      :     0.012873
      py      :     0.030695
  5 C s       :     2.774291  s :     2.774291
      pz      :     1.055367  p :     3.002675
      px      :     0.961732
      py      :     0.985575
      dz2     :     0.098130  d :     0.360835
      dxz     :     0.054908
      dyz     :     0.146092
      dx2y2   :     0.043052
      dxy     :     0.018653
      f0      :     0.007871  f :     0.039598
      f+1     :     0.005529
      f-1     :     0.013822
      f+2     :     0.004546
      f-2     :     0.002775
      f+3     :     0.001801
      f-3     :     0.003252
  6 C s       :     2.774499  s :     2.774499
      pz      :     1.050881  p :     3.003443
      px      :     0.962894
      py      :     0.989668
      dz2     :     0.090851  d :     0.360873
      dxz     :     0.051055
      dyz     :     0.153836
      dx2y2   :     0.042502
      dxy     :     0.022630
      f0      :     0.007481  f :     0.039557
      f+1     :     0.005662
      f-1     :     0.013969
      f+2     :     0.004492
      f-2     :     0.002128
      f+3     :     0.002309
      f-3     :     0.003516
  7 H s       :     0.799700  s :     0.799700
      pz      :     0.015222  p :     0.060662
      px      :     0.015438
      py      :     0.030002
  8 H s       :     0.799709  s :     0.799709
      pz      :     0.017197  p :     0.060692
      px      :     0.015486
      py      :     0.028010
  9 C s       :     2.733740  s :     2.733740
      pz      :     0.951744  p :     2.774641
      px      :     0.775622
      py      :     1.047275
      dz2     :     0.205384  d :     0.800774
      dxz     :     0.177261
      dyz     :     0.293827
      dx2y2   :     0.060260
      dxy     :     0.064043
      f0      :     0.020881  f :     0.108027
      f+1     :     0.020446
      f-1     :     0.044099
      f+2     :     0.005743
      f-2     :     0.006755
      f+3     :     0.005186
      f-3     :     0.004917
 10 O s       :     3.424072  s :     3.424072
      pz      :     1.473301  p :     4.652238
      px      :     1.480176
      py      :     1.698761
      dz2     :     0.027838  d :     0.062308
      dxz     :     0.013999
      dyz     :     0.020232
      dx2y2   :     0.000150
      dxy     :     0.000088
      f0      :     0.002187  f :     0.005110
      f+1     :     0.001109
      f-1     :     0.001771
      f+2     :     0.000019
      f-2     :     0.000019
      f+3     :     0.000002
      f-3     :     0.000003
 11 C s       :     2.735414  s :     2.735414
      pz      :     0.990318  p :     2.631247
      px      :     0.748509
      py      :     0.892420
      dz2     :     0.233170  d :     0.951020
      dxz     :     0.122193
      dyz     :     0.251318
      dx2y2   :     0.170682
      dxy     :     0.173657
      f0      :     0.015310  f :     0.154722
      f+1     :     0.006365
      f-1     :     0.054830
      f+2     :     0.020713
      f-2     :     0.025347
      f+3     :     0.015849
      f-3     :     0.016309
 12 O s       :     3.398017  s :     3.398017
      pz      :     1.574177  p :     4.514308
      px      :     1.395911
      py      :     1.544221
      dz2     :     0.012348  d :     0.065484
      dxz     :     0.005552
      dyz     :     0.023917
      dx2y2   :     0.014362
      dxy     :     0.009305
      f0      :     0.000674  f :     0.005932
      f+1     :     0.000065
      f-1     :     0.001698
      f+2     :     0.001480
      f-2     :     0.000760
      f+3     :     0.000516
      f-3     :     0.000738
 13 O s       :     3.248414  s :     3.248414
      pz      :     1.338419  p :     4.398127
      px      :     1.587109
      py      :     1.472599
      dz2     :     0.033677  d :     0.111643
      dxz     :     0.016814
      dyz     :     0.034183
      dx2y2   :     0.017240
      dxy     :     0.009729
      f0      :     0.001298  f :     0.006865
      f+1     :     0.001043
      f-1     :     0.002071
      f+2     :     0.000831
      f-2     :     0.000212
      f+3     :     0.000600
      f-3     :     0.000809
 14 C s       :     2.862175  s :     2.862175
      pz      :     0.805262  p :     3.034857
      px      :     1.117236
      py      :     1.112358
      dz2     :     0.114815  d :     0.375711
      dxz     :     0.117628
      dyz     :     0.079137
      dx2y2   :     0.040777
      dxy     :     0.023354
      f0      :     0.017791  f :     0.054706
      f+1     :     0.014656
      f-1     :     0.014487
      f+2     :     0.001678
      f-2     :     0.003276
      f+3     :     0.000062
      f-3     :     0.002755
 15 H s       :     0.823193  s :     0.823193
      pz      :     0.012872  p :     0.063013
      px      :     0.031265
      py      :     0.018875
 16 H s       :     0.823192  s :     0.823192
      pz      :     0.012875  p :     0.063013
      px      :     0.031265
      py      :     0.018873
 17 H s       :     0.819672  s :     0.819672
      pz      :     0.009522  p :     0.062230
      px      :     0.013957
      py      :     0.038751


                      *****************************
                      * MAYER POPULATION ANALYSIS *
                      *****************************

  NA   - Mulliken gross atomic population
  ZA   - Total nuclear charge
  QA   - Mulliken gross atomic charge
  VA   - Mayer's total valence
  BVA  - Mayer's bonded valence
  FA   - Mayer's free valence

  ATOM       NA         ZA         QA         VA         BVA        FA
  0 C      5.9268     6.0000     0.0732     3.4523     3.4523     0.0000
  1 C      6.2368     6.0000    -0.2368     3.9127     3.9127     0.0000
  2 C      6.2480     6.0000    -0.2480     3.9165     3.9165     0.0000
  3 H      0.8682     1.0000     0.1318     0.9946     0.9946    -0.0000
  4 H      0.8619     1.0000     0.1381     0.9895     0.9895     0.0000
  5 C      6.2777     6.0000    -0.2777     3.7267     3.7267    -0.0000
  6 C      6.2813     6.0000    -0.2813     3.7165     3.7165    -0.0000
  7 H      0.8917     1.0000     0.1083     0.9927     0.9927     0.0000
  8 H      0.8926     1.0000     0.1074     0.9933     0.9933     0.0000
  9 C      5.7242     6.0000     0.2758     4.1776     4.1776    -0.0000
 10 O      8.6115     8.0000    -0.6115     1.8793     1.8793    -0.0000
 11 C      5.6377     6.0000     0.3623     4.2168     4.2168    -0.0000
[...]
      9      -0.000001   0.000006   0.000006  -0.000008   0.000004  -0.000000
     10       0.303142  -0.048206  -0.156419   0.322478  -0.050966  -0.001724
     11       0.127200  -0.265719  -0.391623   0.305012  -0.098655   0.001063
     12      -0.000011  -0.000011   0.000005   0.000003   0.000005   0.000000
     13       0.293879  -0.092433   0.128952  -0.261916   0.110412  -0.002109
     14      -0.164215   0.486975  -0.207340   0.377435  -0.043025  -0.001608
     15      -0.000015   0.000004  -0.000006  -0.000014   0.000005   0.000000
     16      -0.039438  -0.140487  -0.110787  -0.014316  -0.003608   0.000075
     17       0.315426  -0.025604   0.123437   0.281731  -0.135829   0.000191
     18       0.000017   0.000005  -0.000004  -0.000013   0.000008  -0.000000
     19      -0.079697  -0.192809   0.017870   0.020076  -0.050294  -0.000063
     20      -0.321670  -0.048939   0.085413   0.259419  -0.162583   0.000173
     21       0.000010   0.000006   0.000036   0.000007  -0.000000  -0.000000
     22       0.287796  -0.101779   0.162129   0.220905  -0.093030  -0.001048
     23      -0.275599  -0.110821  -0.470433  -0.134124   0.042489  -0.000406
     24      -0.000025  -0.000027   0.000026   0.000010  -0.000012   0.000000
     25       0.354660   0.081655  -0.184721  -0.214597   0.129195   0.001542
     26       0.319983   0.417546  -0.272427  -0.071200   0.116279  -0.000941
     27      -0.000002  -0.000013   0.000026   0.000004  -0.000009  -0.000000
     28      -0.003804   0.265507   0.055788   0.007590   0.027690   0.000011
     29       0.031686   0.143099  -0.428640  -0.091910   0.150745  -0.000167
     30       0.000001   0.000006  -0.000015   0.000002   0.000004  -0.000000
     31       0.030313  -0.031284   0.002810  -0.001637  -0.004013   0.000006
     32      -0.015988  -0.073212   0.214660  -0.019375  -0.056709   0.000122
     33       0.000001  -0.000001   0.000002  -0.000003  -0.000001  -0.000000
     34       0.010691  -0.061578   0.111217   0.139064   0.531281  -0.003174
     35       0.052170   0.057648   0.039651  -0.102131  -0.496075  -0.000929
     36      -0.000000   0.000000  -0.000001  -0.000000  -0.000003  -0.000000
     37       0.021517   0.061489  -0.049288  -0.068637  -0.345600   0.000716
     38      -0.024078  -0.059427   0.024132   0.048398   0.268266  -0.000515
     39      -0.000000   0.000001  -0.000001   0.000000  -0.000000   0.000000
     40      -0.003731   0.009058  -0.015627  -0.031036  -0.040056   0.001267
     41      -0.003852   0.015015  -0.005422  -0.008066   0.031527   0.002634
     42      -0.000001  -0.000000   0.000001   0.000001  -0.000000   0.000005
     43       0.000900   0.000781  -0.003868   0.004557   0.011894  -0.009981
     44      -0.012370   0.000488  -0.020505  -0.000458  -0.030311   0.044386
     45      -0.037659   0.000003  -0.026856   0.005065  -0.032090  -0.523402
     46      -0.008118  -0.020996   0.034159   0.025839   0.080063   0.274144
     47       0.061062  -0.020765   0.073668   0.003919   0.074763  -0.234352
     48       0.037667  -0.000006   0.026867  -0.005064   0.032102   0.523351
     49      -0.008119  -0.020996   0.034160   0.025842   0.080068   0.274130
     50       0.061055  -0.020765   0.073661   0.003920   0.074755  -0.234411
     51       0.000003  -0.000003   0.000007   0.000004   0.000012  -0.000007
     52      -0.011342   0.009838  -0.030173  -0.011546  -0.040069  -0.426847
     53       0.037543  -0.048782   0.098091   0.085978   0.233731  -0.087625
                 48         49         50         51         52         53    
      0       0.000189   0.000000   0.000000   0.000000  -0.000000   0.000000
      1      -0.000000   0.000218  -0.000407  -0.000125   0.002277   0.001752
      2       0.000000  -0.000837  -0.000875   0.000018   0.001521  -0.002447
      3       0.000005  -0.000000  -0.000000  -0.000000  -0.000000   0.000000
      4      -0.000000   0.030750   0.007649   0.001222  -0.064579   0.008402
      5       0.000000  -0.016638  -0.003664  -0.000616   0.043878  -0.004880
      6       0.000006  -0.000000   0.000001   0.000000   0.000000   0.000002
      7      -0.000000   0.001832  -0.023654  -0.002051  -0.010280  -0.072724
      8      -0.000000   0.001261  -0.008392  -0.000637  -0.005907  -0.037961
      9      -0.000010  -0.000001  -0.000000  -0.000000   0.000002  -0.000000
     10       0.000000  -0.359317  -0.085153  -0.014013   0.746683  -0.092131
     11      -0.000000   0.228617   0.054084   0.008834  -0.482868   0.058470
     12       0.000033   0.000001  -0.000008  -0.000001  -0.000003  -0.000023
     13       0.000001  -0.025744   0.278886   0.024504   0.121954   0.834907
     14       0.000000  -0.013014   0.138201   0.011995   0.062796   0.424323
     15      -0.000001   0.000003   0.000000   0.000000   0.000002  -0.000000
     16      -0.000000  -0.068019  -0.008801  -0.002087  -0.033292   0.005958
     17      -0.000000  -0.034175  -0.004071  -0.000990  -0.020485   0.003103
     18      -0.000008  -0.000000   0.000001   0.000000  -0.000000  -0.000001
     19       0.000000  -0.010921   0.067270   0.007386  -0.000039  -0.022827
     20      -0.000000   0.007209  -0.042898  -0.004702   0.000928   0.018158
     21      -0.000067  -0.000037  -0.000005  -0.000001  -0.000018   0.000003
     22       0.000000   0.792244   0.104604   0.024367   0.380485  -0.066656
     23       0.000000   0.400526   0.051363   0.012152   0.194736  -0.033702
     24      -0.000027   0.000003  -0.000016  -0.000002  -0.000000   0.000005
     25      -0.000000   0.125388  -0.783365  -0.085831   0.001930   0.262678
     26       0.000000  -0.081048   0.496985   0.054456  -0.002066  -0.169148
     27       0.000010   0.000000   0.000000   0.000000   0.000000  -0.000000
     28       0.000000   0.001510  -0.001510  -0.000159   0.001373   0.001051
     29       0.000000  -0.002072  -0.002869  -0.000391  -0.001959   0.001911
     30      -0.000003  -0.000000  -0.000000  -0.000000  -0.000000   0.000000
     31      -0.000000  -0.000034   0.000090   0.000011  -0.000128  -0.000141
     32      -0.000000   0.000380   0.000584   0.000100   0.000596  -0.000649
     33      -0.000297   0.000000   0.000000  -0.000000   0.000000  -0.000000
     34       0.000000   0.000357  -0.000168   0.000151  -0.001040  -0.000752
     35       0.000000  -0.000083   0.000280  -0.001209   0.000825  -0.000640
     36      -0.000142   0.000000   0.000000   0.000000   0.000000   0.000000
     37      -0.000000  -0.000242   0.000047  -0.000158   0.000598  -0.000104
     38       0.000000  -0.000099  -0.000120   0.000401  -0.000058   0.000311
     39      -0.000230  -0.000000   0.000000  -0.000000  -0.000000  -0.000000
     40      -0.000000  -0.000037   0.000106  -0.000184  -0.000014   0.000434
     41      -0.000000   0.000038  -0.000183  -0.000107  -0.000337  -0.000241
     42       0.094632  -0.000000  -0.000000   0.000001  -0.000000  -0.000000
     43      -0.000001  -0.001425  -0.010077   0.093434  -0.000077   0.000718
     44      -0.000007   0.000045   0.000461  -0.002560   0.000198   0.000093
     45      -0.569627  -0.003762  -0.028447   0.251319  -0.001433   0.000870
     46       0.318610   0.001747   0.013170  -0.115628   0.000716  -0.000342
     47      -0.263337  -0.001625  -0.012559   0.108949  -0.000861   0.000253
     48      -0.569607   0.003762   0.028447  -0.251322   0.001434  -0.000869
     49      -0.318615   0.001747   0.013171  -0.115636   0.000717  -0.000342
     50       0.263418  -0.001625  -0.012563   0.108990  -0.000862   0.000253
     51       0.018804   0.000000   0.000001  -0.000014  -0.000000  -0.000000
     52       0.000022   0.013427   0.093748  -0.877521  -0.000769  -0.006660
     53       0.000003   0.002772   0.019153  -0.179505  -0.000454  -0.001208


-----------
IR SPECTRUM
-----------

 Mode   freq       eps      Int      T**2         TX        TY        TZ
       cm**-1   L/(mol*cm) km/mol    a.u.
----------------------------------------------------------------------------
  6:     68.93   0.000026    0.13  0.000119  ( 0.010924  0.000006 -0.000013)
  7:     84.61   0.000583    2.95  0.002150  (-0.046369  0.000006 -0.000041)
  8:    139.50   0.002602   13.15  0.005821  (-0.076296 -0.000007  0.000001)
  9:    151.49   0.000436    2.20  0.000899  (-0.000005  0.005834  0.029403)
 10:    167.89   0.000402    2.03  0.000748  (-0.027350 -0.000006  0.000004)
 11:    270.82   0.000010    0.05  0.000012  ( 0.003392 -0.000004 -0.000009)
 12:    321.77   0.004596   23.23  0.004457  ( 0.000001  0.064278  0.018050)
 13:    338.31   0.006340   32.04  0.005848  (-0.000001  0.032348  0.069293)
 14:    428.73   0.000007    0.04  0.000005  ( 0.002284 -0.000010  0.000001)
 15:    437.47   0.002051   10.36  0.001463  ( 0.000002 -0.032873  0.019548)
 16:    505.26   0.000107    0.54  0.000066  ( 0.000139 -0.002877 -0.007596)
 17:    505.70   0.004698   23.74  0.002899  (-0.053846 -0.000012 -0.000030)
 18:    629.44   0.016739   84.59  0.008299  (-0.000004  0.010519  0.090490)
 19:    639.77   0.002286   11.55  0.001115  (-0.000001 -0.012282  0.031054)
 20:    725.38   0.007243   36.60  0.003116  (-0.055822 -0.000002  0.000001)
 21:    799.00   0.007132   36.04  0.002786  (-0.052779 -0.000005 -0.000002)
 22:    809.78   0.000427    2.16  0.000164  (-0.012825 -0.000002 -0.000003)
 23:    816.44   0.004031   20.37  0.001541  (-0.000018  0.021159  0.033060)
 24:    848.35   0.002485   12.56  0.000914  ( 0.000004 -0.014706 -0.026420)
 25:    865.89   0.016239   82.06  0.005852  (-0.076501 -0.000006 -0.000021)
 26:    977.12   0.000066    0.33  0.000021  ( 0.004594  0.000001  0.000011)
 27:    985.98   0.000167    0.84  0.000053  ( 0.007260 -0.000004  0.000006)
 28:    994.02   0.003087   15.60  0.000969  (-0.000005 -0.017706  0.025604)
 29:   1017.22   0.002541   12.84  0.000779  (-0.000001  0.026775 -0.007909)
 30:   1107.79   0.010809   54.63  0.003045  ( 0.000000 -0.046135 -0.030275)
 31:   1147.83   0.008840   44.67  0.002403  (-0.000006 -0.045030 -0.019384)
 32:   1160.58   0.150157  758.83  0.040375  ( 0.000001 -0.045250 -0.195773)
 33:   1170.41   0.000205    1.04  0.000055  ( 0.007391  0.000005  0.000004)
 34:   1209.71   0.038801  196.09  0.010009  (-0.000001 -0.047686 -0.087951)
 35:   1278.33   0.000653    3.30  0.000159  (-0.000000  0.010786  0.006562)
 36:   1305.69   0.216950  1096.37  0.051852  ( 0.000002 -0.073456 -0.215536)
 37:   1335.30   0.033201  167.78  0.007759  ( 0.000001 -0.041729 -0.077574)
 38:   1424.43   0.086529  437.28  0.018957  (-0.000007  0.014655  0.136901)
 39:   1463.69   0.052022  262.90  0.011091  (-0.000017  0.016323  0.104043)
 40:   1464.13   0.002810   14.20  0.000599  ( 0.024473  0.000010  0.000060)
 41:   1479.49   0.002804   14.17  0.000592  ( 0.000000 -0.019661  0.014317)
 42:   1494.30   0.011820   59.73  0.002468  (-0.000001 -0.017215  0.046606)
 43:   1555.10   0.048421  244.70  0.009717  (-0.000005  0.032706  0.092989)
 44:   1569.87   0.129961  656.77  0.025834  ( 0.000012  0.037918 -0.156193)
 45:   1634.14   0.237121  1198.31  0.045282  ( 0.000007  0.034007 -0.210060)
 46:   1710.62   0.110983  560.86  0.020246  (-0.000002  0.109881 -0.090401)
 47:   3059.46   0.012163   61.47  0.001241  ( 0.000002  0.005535  0.034785)
 48:   3135.12   0.006705   33.88  0.000667  ( 0.025834  0.000001 -0.000003)
 49:   3168.39   0.004552   23.01  0.000448  ( 0.000001 -0.014465 -0.015464)
 50:   3169.77   0.006501   32.85  0.000640  ( 0.000001  0.009877 -0.023291)
 51:   3170.87   0.004586   23.17  0.000451  ( 0.000001  0.021183 -0.001616)
 52:   3190.86   0.005582   28.21  0.000546  (-0.000000 -0.023116 -0.003403)
 53:   3199.75   0.002453   12.40  0.000239  ( 0.000001 -0.015271  0.002465)

* The epsilon (eps) is given for a Dirac delta lineshape.
** The dipole moment derivative (T) already includes vibrational overlap.

The first frequency considered to be a vibration is 6
The total number of vibrations considered is 48


--------------------------
THERMOCHEMISTRY AT 298.15K
--------------------------

Temperature         ... 298.15 K
Pressure            ... 1.00 atm
Total Mass          ... 151.14 AMU

Throughout the following assumptions are being made:
  (1) The electronic state is orbitally nondegenerate
  (2) There are no thermally accessible electronically excited states
  (3) Hindered rotations indicated by low frequency modes are not
      treated as such but are treated as vibrations and this may
      cause some error
  (4) All equations used are the standard statistical mechanics
      equations for an ideal gas
  (5) All vibrations are strictly harmonic

freq.      68.93  E(vib)   ...       0.50 
freq.      84.61  E(vib)   ...       0.48 
freq.     139.50  E(vib)   ...       0.42 
freq.     151.49  E(vib)   ...       0.40 
freq.     167.89  E(vib)   ...       0.38 
freq.     270.82  E(vib)   ...       0.29 
freq.     321.77  E(vib)   ...       0.25 
freq.     338.31  E(vib)   ...       0.23 
freq.     428.73  E(vib)   ...       0.18 
freq.     437.47  E(vib)   ...       0.17 
freq.     505.26  E(vib)   ...       0.14 
freq.     505.70  E(vib)   ...       0.14 
freq.     629.44  E(vib)   ...       0.09 
freq.     639.77  E(vib)   ...       0.09 
freq.     725.38  E(vib)   ...       0.06 
freq.     799.00  E(vib)   ...       0.05 
freq.     809.78  E(vib)   ...       0.05 
freq.     816.44  E(vib)   ...       0.05 
freq.     848.35  E(vib)   ...       0.04 
freq.     865.89  E(vib)   ...       0.04 
freq.     977.12  E(vib)   ...       0.03 
freq.     985.98  E(vib)   ...       0.02 
freq.     994.02  E(vib)   ...       0.02 
freq.    1017.22  E(vib)   ...       0.02 
freq.    1107.79  E(vib)   ...       0.02 
freq.    1147.83  E(vib)   ...       0.01 
freq.    1160.58  E(vib)   ...       0.01 
freq.    1170.41  E(vib)   ...       0.01 
freq.    1209.71  E(vib)   ...       0.01 
freq.    1278.33  E(vib)   ...       0.01 
freq.    1305.69  E(vib)   ...       0.01 
freq.    1335.30  E(vib)   ...       0.01 
freq.    1424.43  E(vib)   ...       0.00 
freq.    1463.69  E(vib)   ...       0.00 
freq.    1464.13  E(vib)   ...       0.00 
freq.    1479.49  E(vib)   ...       0.00 
freq.    1494.30  E(vib)   ...       0.00 
freq.    1555.10  E(vib)   ...       0.00 
freq.    1569.87  E(vib)   ...       0.00 
freq.    1634.14  E(vib)   ...       0.00 
freq.    1710.62  E(vib)   ...       0.00 
freq.    3059.46  E(vib)   ...       0.00 
freq.    3135.12  E(vib)   ...       0.00 
freq.    3168.39  E(vib)   ...       0.00 
freq.    3169.77  E(vib)   ...       0.00 
freq.    3170.87  E(vib)   ...       0.00 
freq.    3190.86  E(vib)   ...       0.00 
freq.    3199.75  E(vib)   ...       0.00 

------------
INNER ENERGY
------------

The inner energy is: U= E(el) + E(ZPE) + E(vib) + E(rot) + E(trans)
    E(el)   - is the total energy from the electronic structure calculation
              = E(kin-el) + E(nuc-el) + E(el-el) + E(nuc-nuc)
    E(ZPE)  - the the zero temperature vibrational energy from the frequency calculation
    E(vib)  - the the finite temperature correction to E(ZPE) due to population
              of excited vibrational states
    E(rot)  - is the rotational thermal energy
    E(trans)- is the translational thermal energy

Summary of contributions to the inner energy U:
Electronic energy                ...   -534.51141852 Eh
Zero point energy                ...      0.13471830 Eh      84.54 kcal/mol
Thermal vibrational correction   ...      0.00676546 Eh       4.25 kcal/mol
Thermal rotational correction    ...      0.00141627 Eh       0.89 kcal/mol
Thermal translational correction ...      0.00141627 Eh       0.89 kcal/mol
-----------------------------------------------------------------------
Total thermal energy                   -534.36710221 Eh


Summary of corrections to the electronic energy:
(perhaps to be used in another calculation)
Total thermal correction                  0.00959800 Eh       6.02 kcal/mol
Non-thermal (ZPE) correction              0.13471830 Eh      84.54 kcal/mol
-----------------------------------------------------------------------
Total correction                          0.14431631 Eh      90.56 kcal/mol


--------
ENTHALPY
--------

The enthalpy is H = U + kB*T
                kB is Boltzmann's constant
Total free energy                 ...   -534.36710221 Eh 
Thermal Enthalpy correction       ...      0.00094421 Eh       0.59 kcal/mol
-----------------------------------------------------------------------
Total Enthalpy                    ...   -534.36615800 Eh


Note: Only C1 symmetry has been detected, increase convergence thresholds 
      if your molecule has a higher symmetry. Symmetry factor of 1.0 is   
      used for the rotational entropy correction. 
 

Note: Rotational entropy computed according to Herzberg 
Infrared and Raman Spectra, Chapter V,1, Van Nostrand Reinhold, 1945 
Point Group:  C1, Symmetry Number:   1  
Rotational constants in cm-1:     0.116843     0.019734     0.016936 

Vibrational entropy computed according to the QRRHO of S. Grimme
Chem.Eur.J. 2012 18 9955


-------
ENTROPY
-------

The entropy contributions are T*S = T*(S(el)+S(vib)+S(rot)+S(trans))
     S(el)   - electronic entropy
     S(vib)  - vibrational entropy
     S(rot)  - rotational entropy
     S(trans)- translational entropy
The entropies will be listed as multiplied by the temperature to get
units of energy

Electronic entropy                ...      0.00000000 Eh      0.00 kcal/mol
Vibrational entropy               ...      0.01160390 Eh      7.28 kcal/mol
Rotational entropy                ...      0.01430284 Eh      8.98 kcal/mol
Translational entropy             ...      0.01945622 Eh     12.21 kcal/mol
-----------------------------------------------------------------------
Final entropy term                ...      0.04536296 Eh     28.47 kcal/mol

In case the symmetry of your molecule has not been determined correctly
or in case you have a reason to use a different symmetry number we print 
out the resulting rotational entropy values for sn=1,12 :
 --------------------------------------------------------
|  sn= 1 | S(rot)=       0.01430284 Eh      8.98 kcal/mol|
|  sn= 2 | S(rot)=       0.01364838 Eh      8.56 kcal/mol|
|  sn= 3 | S(rot)=       0.01326555 Eh      8.32 kcal/mol|
|  sn= 4 | S(rot)=       0.01299393 Eh      8.15 kcal/mol|
|  sn= 5 | S(rot)=       0.01278324 Eh      8.02 kcal/mol|
|  sn= 6 | S(rot)=       0.01261109 Eh      7.91 kcal/mol|
|  sn= 7 | S(rot)=       0.01246555 Eh      7.82 kcal/mol|
|  sn= 8 | S(rot)=       0.01233947 Eh      7.74 kcal/mol|
|  sn= 9 | S(rot)=       0.01222826 Eh      7.67 kcal/mol|
|  sn=10 | S(rot)=       0.01212878 Eh      7.61 kcal/mol|
|  sn=11 | S(rot)=       0.01203879 Eh      7.55 kcal/mol|
|  sn=12 | S(rot)=       0.01195664 Eh      7.50 kcal/mol|
 --------------------------------------------------------


-------------------
GIBBS FREE ENERGY
-------------------

The Gibbs free energy is G = H - T*S

Total enthalpy                    ...   -534.36615800 Eh 
Total entropy correction          ...     -0.04536296 Eh    -28.47 kcal/mol
-----------------------------------------------------------------------
Final Gibbs free energy         ...   -534.41152096 Eh

For completeness - the Gibbs free energy minus the electronic energy
G-E(el)                           ...      0.09989755 Eh     62.69 kcal/mol


Timings for individual modules:

Sum of individual times         ...      363.040 sec (=   6.051 min)
GTO integral calculation        ...        5.308 sec (=   0.088 min)   1.5 %
SCF iterations                  ...       86.091 sec (=   1.435 min)  23.7 %
SCF Gradient evaluation         ...       20.361 sec (=   0.339 min)   5.6 %
Geometry relaxation             ...        0.249 sec (=   0.004 min)   0.1 %
Analytical frequency calculation...      251.031 sec (=   4.184 min)  69.1 %
                             ****ORCA TERMINATED NORMALLY****
TOTAL RUN TIME: 0 days 0 hours 6 minutes 12 seconds 738 msec
