
                                 *****************
                                 * O   R   C   A *
                                 *****************

                                            #,                                       
                                            ###                                      
                                            ####                                     
                                            #####                                    
                                            ######                                   
                                           ########,                                 
                                     ,,################,,,,,                         
                               ,,#################################,,                 
                          ,,##########################################,,             
                       ,#########################################, ''#####,          
                    ,#############################################,,   '####,        
                  ,##################################################,,,,####,       
                ,###########''''           ''''###############################       
              ,#####''   ,,,,##########,,,,          '''####'''          '####       
            ,##' ,,,,###########################,,,                        '##       
           ' ,,###''''                  '''############,,,                           
         ,,##''                                '''############,,,,        ,,,,,,###''
      ,#''                                            '''#######################'''  
     '                                                          ''''####''''         
             ,#######,   #######,   ,#######,      ##                                
            ,#'     '#,  ##    ##  ,#'     '#,    #''#        ######   ,####,        
            ##       ##  ##   ,#'  ##            #'  '#       #        #'  '#        
            ##       ##  #######   ##           ,######,      #####,   #    #        
            '#,     ,#'  ##    ##  '#,     ,#' ,#      #,         ##   #,  ,#        
             '#######'   ##     ##  '#######'  #'      '#     #####' # '####'        



                  #######################################################
                  #                        -***-                        #
                  #          Department of theory and spectroscopy      #
                  #    Directorship and core code : Frank Neese         #
                  #        Max Planck Institute fuer Kohlenforschung    #
                  #                Kaiser Wilhelm Platz 1               #
                  #                 D-45470 Muelheim/Ruhr               #
                  #                      Germany                        #
                  #                                                     #
                  #                  All rights reserved                #
                  #                        -***-                        #
                  #######################################################


                         Program Version 5.0.4 -  RELEASE  -


 With contributions from (in alphabetic order):
   Daniel Aravena         : Magnetic Suceptibility
   Michael Atanasov       : Ab Initio Ligand Field Theory (pilot matlab implementation)
   Alexander A. Auer      : GIAO ZORA, VPT2 properties, NMR spectrum
   Ute Becker             : Parallelization
   Giovanni Bistoni       : ED, misc. LED, open-shell LED, HFLD
   Martin Brehm           : Molecular dynamics
   Dmytro Bykov           : SCF Hessian
   Vijay G. Chilkuri      : MRCI spin determinant printing, contributions to CSF-ICE
   Dipayan Datta          : RHF DLPNO-CCSD density
   Achintya Kumar Dutta   : EOM-CC, STEOM-CC
   Dmitry Ganyushin       : Spin-Orbit,Spin-Spin,Magnetic field MRCI
   Miquel Garcia          : C-PCM and meta-GGA Hessian, CC/C-PCM, Gaussian charge scheme
   Yang Guo               : DLPNO-NEVPT2, F12-NEVPT2, CIM, IAO-localization
   Andreas Hansen         : Spin unrestricted coupled pair/coupled cluster methods
   Benjamin Helmich-Paris : MC-RPA, TRAH-SCF, COSX integrals
   Lee Huntington         : MR-EOM, pCC
   Robert Izsak           : Overlap fitted RIJCOSX, COSX-SCS-MP3, EOM
   Marcus Kettner         : VPT2
   Christian Kollmar      : KDIIS, OOCD, Brueckner-CCSD(T), CCSD density, CASPT2, CASPT2-K
   Simone Kossmann        : Meta GGA functionals, TD-DFT gradient, OOMP2, MP2 Hessian
   Martin Krupicka        : Initial AUTO-CI
   Lucas Lang             : DCDCAS
   Marvin Lechner         : AUTO-CI (C++ implementation), FIC-MRCC
   Dagmar Lenk            : GEPOL surface, SMD
   Dimitrios Liakos       : Extrapolation schemes; Compound Job, initial MDCI parallelization
   Dimitrios Manganas     : Further ROCIS development; embedding schemes
   Dimitrios Pantazis     : SARC Basis sets
   Anastasios Papadopoulos: AUTO-CI, single reference methods and gradients
   Taras Petrenko         : DFT Hessian,TD-DFT gradient, ASA, ECA, R-Raman, ABS, FL, XAS/XES, NRVS
   Peter Pinski           : DLPNO-MP2, DLPNO-MP2 Gradient
   Christoph Reimann      : Effective Core Potentials
   Marius Retegan         : Local ZFS, SOC
   Christoph Riplinger    : Optimizer, TS searches, QM/MM, DLPNO-CCSD(T), (RO)-DLPNO pert. Triples
   Tobias Risthaus        : Range-separated hybrids, TD-DFT gradient, RPA, STAB
   Michael Roemelt        : Original ROCIS implementation
   Masaaki Saitow         : Open-shell DLPNO-CCSD energy and density
   Barbara Sandhoefer     : DKH picture change effects
   Avijit Sen             : IP-ROCIS
   Kantharuban Sivalingam : CASSCF convergence, NEVPT2, FIC-MRCI
   Bernardo de Souza      : ESD, SOC TD-DFT
   Georgi Stoychev        : AutoAux, RI-MP2 NMR, DLPNO-MP2 response
   Willem Van den Heuvel  : Paramagnetic NMR
   Boris Wezisla          : Elementary symmetry handling
   Frank Wennmohs         : Technical directorship


 We gratefully acknowledge several colleagues who have allowed us to
 interface, adapt or use parts of their codes:
   Stefan Grimme, W. Hujo, H. Kruse, P. Pracht,  : VdW corrections, initial TS optimization,
                  C. Bannwarth, S. Ehlert          DFT functionals, gCP, sTDA/sTD-DF
   Ed Valeev, F. Pavosevic, A. Kumar             : LibInt (2-el integral package), F12 methods
   Garnet Chan, S. Sharma, J. Yang, R. Olivares  : DMRG
   Ulf Ekstrom                                   : XCFun DFT Library
   Mihaly Kallay                                 : mrcc  (arbitrary order and MRCC methods)
   Jiri Pittner, Ondrej Demel                    : Mk-CCSD
   Frank Weinhold                                : gennbo (NPA and NBO analysis)
   Christopher J. Cramer and Donald G. Truhlar   : smd solvation model
   Lars Goerigk                                  : TD-DFT with DH, B97 family of functionals
   V. Asgeirsson, H. Jonsson                     : NEB implementation
   FAccTs GmbH                                   : IRC, NEB, NEB-TS, DLPNO-Multilevel, CI-OPT
                                                   MM, QMMM, 2- and 3-layer-ONIOM, Crystal-QMMM,
                                                   LR-CPCM, SF, NACMEs, symmetry and pop. for TD-DFT,
                                                   nearIR, NL-DFT gradient (VV10), updates on ESD,
                                                   ML-optimized integration grids
   S Lehtola, MJT Oliveira, MAL Marques          : LibXC Library
   Liviu Ungur et al                             : ANISO software


 Your calculation uses the libint2 library for the computation of 2-el integrals
 For citations please refer to: http://libint.valeyev.net

 Your ORCA version has been built with support for libXC version: 5.1.0
 For citations please refer to: https://tddft.org/programs/libxc/

 This ORCA versions uses:
   CBLAS   interface :  Fast vector & matrix operations
   LAPACKE interface :  Fast linear algebra routines
   SCALAPACK package :  Parallel linear algebra routines
   Shared memory     :  Shared parallel matrices
   BLAS/LAPACK       :  OpenBLAS 0.3.15  USE64BITINT DYNAMIC_ARCH NO_AFFINITY Haswell SINGLE_THREADED
        Core in use  :  Haswell
   Copyright (c) 2011-2014, The OpenBLAS Project


Your calculation utilizes the atom-pairwise dispersion correction
with the Becke-Johnson damping scheme (D3BJ)
Cite in your paper:
S.Grimme, S.Ehrlich, L.Goerigk, J Comput Chem, (2011), 32, 1456–1465 
S.Grimme, J.Antony, S.Ehrlich and H.Krieg, J.Chem.Phys., 132, (2010), 154104 
   

================================================================================

----- Orbital basis set information -----
Your calculation utilizes the basis: def2-TZVP
   F. Weigend and R. Ahlrichs, Phys. Chem. Chem. Phys. 7, 3297 (2005).

----- AuxJ basis set information -----
Your calculation utilizes the auxiliary basis: def2/J
   F. Weigend, Phys. Chem. Chem. Phys. 8, 1057 (2006).

================================================================================
                                        WARNINGS
                       Please study these warnings very carefully!
================================================================================


WARNING: Geometry Optimization
  ===> : Switching off AutoStart
         For restart on a previous wavefunction, please use MOREAD

INFO   : the flag for use of the SHARK integral package has been found!

================================================================================
                                       INPUT FILE
================================================================================
NAME = F-PhenO/F-PhenO.inp
|  1> %pal nprocs 24 end
|  2> %maxcore 3500
|  3> ! PBE0 D3BJ def2-TZVP TightSCF OPT FREQ TightOpt
|  4> ! CPCM(dmso)
|  5> %scf
|  6> MaxIter 800
|  7> end
|  8> %geom
|  9> MaxIter 800
| 10> MaxStep 0.2
| 11> end
| 12> *xyz -1 1
| 13> 
| 14> C      -0.00000000     -0.54771100     -1.54061300
| 15> C       0.00000000      0.67787700     -0.90390400
| 16> C       0.00000000     -1.72648800     -0.82090000
| 17> H       0.00000100      1.58963200     -1.49311700
| 18> H       0.00000000     -2.67709500     -1.34511700
| 19> C       0.00000000      0.72473300      0.48167100
| 20> C       0.00000000     -1.67762400      0.56491100
| 21> H       0.00000000      1.68812300      0.98358300
| 22> H       0.00000000     -2.60471500      1.13116300
| 23> C      -0.00000000     -0.44982100      1.29425900
| 24> O      -0.00000100     -0.40502300      2.57402800
| 25> F      -0.00000100     -0.59373500     -2.90567800
| 26> *
| 27> 
| 28>                          ****END OF INPUT****
================================================================================

                       *****************************
                       * Geometry Optimization Run *
                       *****************************

Geometry optimization settings:
Update method            Update   .... BFGS
Choice of coordinates    CoordSys .... Z-matrix Internals
Initial Hessian          InHess   .... Almoef's Model

Convergence Tolerances:
Energy Change            TolE     ....  1.0000e-06 Eh
Max. Gradient            TolMAXG  ....  1.0000e-04 Eh/bohr
RMS Gradient             TolRMSG  ....  3.0000e-05 Eh/bohr
Max. Displacement        TolMAXD  ....  1.0000e-03 bohr
RMS Displacement         TolRMSD  ....  6.0000e-04 bohr
Strict Convergence                ....  False
------------------------------------------------------------------------------
                        ORCA OPTIMIZATION COORDINATE SETUP
------------------------------------------------------------------------------

The optimization will be done in new redundant internal coordinates
Making redundant internal coordinates   ...  (new redundants) done
Evaluating the initial hessian          ...  (Almloef) done
Evaluating the coordinates              ...  done
Calculating the B-matrix                .... done
Calculating the G-matrix                .... done
Diagonalizing the G-matrix              .... done
The first mode is                       ....   24
The number of degrees of freedom        ....   30

    -----------------------------------------------------------------
                    Redundant Internal Coordinates


    -----------------------------------------------------------------
         Definition                    Initial Value    Approx d2E/dq
    -----------------------------------------------------------------
      1. B(C   1,C   0)                  1.3811         0.645539   
      2. B(C   2,C   0)                  1.3811         0.645506   
      3. B(H   3,C   1)                  1.0856         0.366004   
      4. B(H   4,C   2)                  1.0856         0.366011   
      5. B(C   5,C   1)                  1.3864         0.633191   
      6. B(C   6,C   2)                  1.3867         0.632482   
      7. B(H   7,C   5)                  1.0863         0.365035   
      8. B(H   8,C   6)                  1.0863         0.364972   
      9. B(C   9,C   6)                  1.4281         0.543205   
     10. B(C   9,C   5)                  1.4282         0.542907   
     11. B(O  10,C   9)                  1.2806         0.836549   
     12. B(F  11,C   0)                  1.3658         0.568213   
     13. A(C   2,C   0,F  11)          119.4755         0.425722   
     14. A(C   1,C   0,C   2)          121.1410         0.440425   
     15. A(C   1,C   0,F  11)          119.3835         0.425725   
     16. A(H   3,C   1,C   5)          120.9353         0.355147   
     17. A(C   0,C   1,H   3)          119.6754         0.356313   
     18. A(C   0,C   1,C   5)          119.3893         0.438896   
     19. A(H   4,C   2,C   6)          120.8942         0.355081   
     20. A(C   0,C   2,C   6)          119.3871         0.438804   
     21. A(C   0,C   2,H   4)          119.7187         0.356311   
     22. A(H   7,C   5,C   9)          117.8046         0.345886   
     23. A(C   1,C   5,C   9)          122.7397         0.425449   
     24. A(C   1,C   5,H   7)          119.4557         0.354988   
     25. A(H   8,C   6,C   9)          117.8726         0.345908   
     26. A(C   2,C   6,C   9)          122.7309         0.425406   
     27. A(C   2,C   6,H   8)          119.3965         0.354910   
     28. A(C   5,C   9,O  10)          122.6717         0.444392   
     29. A(C   5,C   9,C   6)          114.6120         0.413977   
     30. A(C   6,C   9,O  10)          122.7163         0.444437   
     31. D(C   5,C   1,C   0,C   2)      0.0000         0.028987   
     32. D(C   5,C   1,C   0,F  11)    180.0000         0.028987   
     33. D(H   3,C   1,C   0,F  11)     -0.0001         0.028987   
     34. D(H   3,C   1,C   0,C   2)    179.9999         0.028987   
     35. D(C   6,C   2,C   0,C   1)      0.0000         0.028984   
     36. D(H   4,C   2,C   0,C   1)    180.0000         0.028984   
     37. D(H   4,C   2,C   0,F  11)      0.0000         0.028984   
     38. D(C   6,C   2,C   0,F  11)   -180.0000         0.028984   
     39. D(C   9,C   5,C   1,H   3)   -179.9999         0.027817   
     40. D(C   9,C   5,C   1,C   0)      0.0000         0.027817   
     41. D(H   7,C   5,C   1,H   3)      0.0001         0.027817   
     42. D(H   7,C   5,C   1,C   0)    180.0000         0.027817   
     43. D(C   9,C   6,C   2,C   0)      0.0000         0.027750   
     44. D(H   8,C   6,C   2,H   4)      0.0000         0.027750   
     45. D(H   8,C   6,C   2,C   0)    180.0000         0.027750   
     46. D(C   9,C   6,C   2,H   4)    180.0000         0.027750   
     47. D(O  10,C   9,C   6,H   8)     -0.0001         0.020169   
     48. D(C   5,C   9,C   6,H   8)    180.0000         0.020169   
     49. D(C   5,C   9,C   6,C   2)      0.0000         0.020169   
     50. D(O  10,C   9,C   5,H   7)      0.0001         0.020146   
     51. D(O  10,C   9,C   5,C   1)   -179.9999         0.020146   
     52. D(O  10,C   9,C   6,C   2)    179.9999         0.020169   
     53. D(C   6,C   9,C   5,H   7)    180.0000         0.020146   
     54. D(C   6,C   9,C   5,C   1)      0.0000         0.020146   
    -----------------------------------------------------------------

Number of atoms                         .... 12
Number of degrees of freedom            .... 54

         *************************************************************
         *                GEOMETRY OPTIMIZATION CYCLE   1            *
         *************************************************************
---------------------------------
CARTESIAN COORDINATES (ANGSTROEM)
---------------------------------
  C     -0.000000   -0.547711   -1.540613
  C      0.000000    0.677877   -0.903904
  C      0.000000   -1.726488   -0.820900
  H      0.000001    1.589632   -1.493117
  H      0.000000   -2.677095   -1.345117
  C      0.000000    0.724733    0.481671
  C      0.000000   -1.677624    0.564911
  H      0.000000    1.688123    0.983583
  H      0.000000   -2.604715    1.131163
  C     -0.000000   -0.449821    1.294259
  O     -0.000001   -0.405023    2.574028
  F     -0.000001   -0.593735   -2.905678

----------------------------
CARTESIAN COORDINATES (A.U.)
----------------------------
  NO LB      ZA    FRAG     MASS         X           Y           Z
   0 C     6.0000    0    12.011   -0.000000   -1.035024   -2.911337
   1 C     6.0000    0    12.011    0.000000    1.281002   -1.708131
   2 C     6.0000    0    12.011    0.000000   -3.262589   -1.551276
   3 H     1.0000    0     1.008    0.000002    3.003969   -2.821582
   4 H     1.0000    0     1.008    0.000000   -5.058976   -2.541903
   5 C     6.0000    0    12.011    0.000000    1.369547    0.910226
   6 C     6.0000    0    12.011    0.000000   -3.170250    1.067527
   7 H     1.0000    0     1.008    0.000000    3.190090    1.858702
   8 H     1.0000    0     1.008    0.000000   -4.922198    2.137588
   9 C     6.0000    0    12.011   -0.000000   -0.850038    2.445795
  10 O     8.0000    0    15.999   -0.000002   -0.765383    4.864208
  11 F     9.0000    0    18.998   -0.000002   -1.121997   -5.490936

--------------------------------
INTERNAL COORDINATES (ANGSTROEM)
--------------------------------
 C      0   0   0     0.000000000000     0.00000000     0.00000000
 C      1   0   0     1.381109806071     0.00000000     0.00000000
 C      1   2   0     1.381123462294   121.14100186     0.00000000
 H      2   1   3     1.085573184725   119.67535198   179.99993925
 H      3   1   2     1.085567654058   119.71870955   180.00000000
 C      2   1   3     1.386367038472   119.38930071     0.00000000
 C      3   1   2     1.386672210083   119.38710601     0.00000000
 H      6   2   1     1.086294595330   119.45568370   180.00000000
 H      7   3   1     1.086342050086   119.39647685   180.00000000
 C      7   3   1     1.428092683236   122.73087585     0.00000000
 O     10   7   3     1.280552831462   122.71625685   179.99994682
 F      1   2   3     1.365840643268   119.38349771   179.99995185

---------------------------
INTERNAL COORDINATES (A.U.)
---------------------------
 C      0   0   0     0.000000000000     0.00000000     0.00000000
 C      1   0   0     2.609919294347     0.00000000     0.00000000
 C      1   2   0     2.609945100868   121.14100186     0.00000000
 H      2   1   3     2.051436017460   119.67535198   179.99993925
 H      3   1   2     2.051425566014   119.71870955   180.00000000
 C      2   1   3     2.619854023807   119.38930071     0.00000000
 C      3   1   2     2.620430714577   119.38710601     0.00000000
 H      6   2   1     2.052799285933   119.45568370   180.00000000
 H      7   3   1     2.052888962425   119.39647685   180.00000000
 C      7   3   1     2.698704065173   122.73087585     0.00000000
 O     10   7   3     2.419894151481   122.71625685   179.99994682
 F      1   2   3     2.581064758355   119.38349771   179.99995185

---------------------
BASIS SET INFORMATION
---------------------
There are 4 groups of distinct atoms

 Group   1 Type C   : 11s6p2d1f contracted to 5s3p2d1f pattern {62111/411/11/1}
 Group   2 Type H   : 5s1p contracted to 3s1p pattern {311/1}
 Group   3 Type O   : 11s6p2d1f contracted to 5s3p2d1f pattern {62111/411/11/1}
 Group   4 Type F   : 11s6p2d1f contracted to 5s3p2d1f pattern {62111/411/11/1}

Atom   0C    basis set group =>   1
Atom   1C    basis set group =>   1
Atom   2C    basis set group =>   1
Atom   3H    basis set group =>   2
Atom   4H    basis set group =>   2
Atom   5C    basis set group =>   1
Atom   6C    basis set group =>   1
Atom   7H    basis set group =>   2
Atom   8H    basis set group =>   2
Atom   9C    basis set group =>   1
Atom  10O    basis set group =>   3
Atom  11F    basis set group =>   4
---------------------------------
AUXILIARY/J BASIS SET INFORMATION
---------------------------------
There are 4 groups of distinct atoms

 Group   1 Type C   : 12s5p4d2f1g contracted to 6s4p3d1f1g pattern {711111/2111/211/2/1}
 Group   2 Type H   : 5s2p1d contracted to 3s1p1d pattern {311/2/1}
 Group   3 Type O   : 12s5p4d2f1g contracted to 6s4p3d1f1g pattern {711111/2111/211/2/1}
 Group   4 Type F   : 12s5p4d2f1g contracted to 6s4p3d1f1g pattern {711111/2111/211/2/1}

Atom   0C    basis set group =>   1
Atom   1C    basis set group =>   1
Atom   2C    basis set group =>   1
Atom   3H    basis set group =>   2
Atom   4H    basis set group =>   2
Atom   5C    basis set group =>   1
Atom   6C    basis set group =>   1
Atom   7H    basis set group =>   2
Atom   8H    basis set group =>   2
Atom   9C    basis set group =>   1
Atom  10O    basis set group =>   3
Atom  11F    basis set group =>   4


           ************************************************************
           *        Program running with 24 parallel MPI-processes    *
           *              working on a common directory               *
           ************************************************************
------------------------------------------------------------------------------
                           ORCA GTO INTEGRAL CALCULATION
                           -- RI-GTO INTEGRALS CHOSEN --
------------------------------------------------------------------------------
------------------------------------------------------------------------------
                   ___                                                        
                  /   \      - P O W E R E D   B Y -                         
                 /     \                                                     
                 |  |  |   _    _      __       _____    __    __             
                 |  |  |  | |  | |    /  \     |  _  \  |  |  /  |          
                  \  \/   | |  | |   /    \    | | | |  |  | /  /          
                 / \  \   | |__| |  /  /\  \   | |_| |  |  |/  /          
                |  |  |   |  __  | /  /__\  \  |    /   |      \           
                |  |  |   | |  | | |   __   |  |    \   |  |\   \          
                \     /   | |  | | |  |  |  |  | |\  \  |  | \   \       
                 \___/    |_|  |_| |__|  |__|  |_| \__\ |__|  \__/        
                                                                              
                      - O R C A' S   B I G   F R I E N D -                    
                                      &                                       
                       - I N T E G R A L  F E E D E R -                       
                                                                              
 v1 FN, 2020, v2 2021                                                         
------------------------------------------------------------------------------


Reading SHARK input file F-PhenO/F-PhenO.SHARKINP.tmp ... ok
----------------------
SHARK INTEGRAL PACKAGE
----------------------

Number of atoms                             ...     12
Number of basis functions                   ...    272
Number of shells                            ...    104
Maximum angular momentum                    ...      3
Integral batch strategy                     ... SHARK/LIBINT Hybrid
RI-J (if used) integral strategy            ... SPLIT-RIJ (Revised 2003 algorithm where possible)
Printlevel                                  ...      1
Contraction scheme used                     ... SEGMENTED contraction
Coulomb Range Separation                    ... NOT USED
Exchange Range Separation                   ... NOT USED
Finite Nucleus Model                        ... NOT USED
Auxiliary Coulomb fitting basis             ... AVAILABLE
   # of basis functions in Aux-J            ...    436
   # of shells in Aux-J                     ...    140
   Maximum angular momentum in Aux-J        ...      4
Auxiliary J/K fitting basis                 ... NOT available
Auxiliary Correlation fitting basis         ... NOT available
Auxiliary 'external' fitting basis          ... NOT available
Integral threshold                          ...     2.500000e-11
Primitive cut-off                           ...     2.500000e-12
Primitive pair pre-selection threshold      ...     2.500000e-12

Calculating pre-screening integrals         ... done (  0.1 sec) Dimension = 104
Organizing shell pair data                  ... done (  0.1 sec)
Shell pair information
Total number of shell pairs                 ...      5460
Shell pairs after pre-screening             ...      5027
Total number of primitive shell pairs       ...     17208
Primitive shell pairs kept                  ...     11968
          la=0 lb=0:   1203 shell pairs
          la=1 lb=0:   1362 shell pairs
          la=1 lb=1:    394 shell pairs
          la=2 lb=0:    765 shell pairs
          la=2 lb=1:    430 shell pairs
          la=2 lb=2:    126 shell pairs
          la=3 lb=0:    377 shell pairs
          la=3 lb=1:    214 shell pairs
          la=3 lb=2:    121 shell pairs
          la=3 lb=3:     35 shell pairs

Calculating one electron integrals          ... done (  0.0 sec)
Calculating RI/J V-Matrix + Cholesky decomp.... done (  0.1 sec)
Calculating Nuclear repulsion               ... done (  0.0 sec) ENN=    331.219906860401 Eh

SHARK setup successfully completed in   0.5 seconds

Maximum memory used throughout the entire GTOINT-calculation: 18.7 MB


           ************************************************************
           *        Program running with 24 parallel MPI-processes    *
           *              working on a common directory               *
           ************************************************************
-------------------------------------------------------------------------------
                                 ORCA SCF
-------------------------------------------------------------------------------

------------
SCF SETTINGS
------------
Hamiltonian:
 Density Functional     Method          .... DFT(GTOs)
 Exchange Functional    Exchange        .... PBE
   PBE kappa parameter   XKappa         ....  0.804000
   PBE mue parameter    XMuePBE         ....  0.219520
 Correlation Functional Correlation     .... PBE
   PBE beta parameter  CBetaPBE         ....  0.066725
 LDA part of GGA corr.  LDAOpt          .... PW91-LDA
 Gradients option       PostSCFGGA      .... off
 Hybrid DFT is turned on
   Fraction HF Exchange ScalHFX         ....  0.250000
   Scaling of DF-GGA-X  ScalDFX         ....  0.750000
   Scaling of DF-GGA-C  ScalDFC         ....  1.000000
   Scaling of DF-LDA-C  ScalLDAC        ....  1.000000
   Perturbative correction              ....  0.000000
   Density functional embedding theory  .... OFF
   NL short-range parameter             ....  6.900000
 RI-approximation to the Coulomb term is turned on
   Number of AuxJ basis functions       .... 436
   RIJ-COSX (HFX calculated with COS-X)).... on


General Settings:
 Integral files         IntName         .... F-PhenO/F-PhenO
 Hartree-Fock type      HFTyp           .... RHF
 Total Charge           Charge          ....   -1
 Multiplicity           Mult            ....    1
 Number of Electrons    NEL             ....   58
 Basis Dimension        Dim             ....  272
 Nuclear Repulsion      ENuc            ....    331.2199068604 Eh

Convergence Acceleration:
 DIIS                   CNVDIIS         .... on
   Start iteration      DIISMaxIt       ....    12
   Startup error        DIISStart       ....  0.200000
   # of expansion vecs  DIISMaxEq       ....     5
   Bias factor          DIISBfac        ....   1.050
   Max. coefficient     DIISMaxC        ....  10.000
 Trust-Rad. Augm. Hess. CNVTRAH         .... auto
   Auto Start mean grad. ratio tolernc. ....  1.125000
   Auto Start start iteration           ....    20
   Auto Start num. interpolation iter.  ....    10
   Max. Number of Micro iterations      ....    16
   Max. Number of Macro iterations      .... Maxiter - #DIIS iter
   Number of Davidson start vectors     ....     2
   Converg. threshold I  (grad. norm)   ....   1.000e-05
   Converg. threshold II (energy diff.) ....   1.000e-08
   Grad. Scal. Fac. for Micro threshold ....   0.100
   Minimum threshold for Micro iter.    ....   0.010
   NR start threshold (gradient norm)   ....   0.001
   Initial trust radius                 ....   0.400
   Minimum AH scaling param. (alpha)    ....   1.000
   Maximum AH scaling param. (alpha)    .... 1000.000
   Orbital update algorithm             .... Taylor
   White noise on init. David. guess    .... on
   Maximum white noise                  ....   0.010
   Quad. conv. algorithm                .... NR
 SOSCF                  CNVSOSCF        .... on
   Start iteration      SOSCFMaxIt      ....   150
   Startup grad/error   SOSCFStart      ....  0.003300
 Level Shifting         CNVShift        .... on
   Level shift para.    LevelShift      ....    0.2500
   Turn off err/grad.   ShiftErr        ....    0.0010
 Zerner damping         CNVZerner       .... off
 Static damping         CNVDamp         .... on
   Fraction old density DampFac         ....    0.7000
   Max. Damping (<1)    DampMax         ....    0.9800
   Min. Damping (>=0)   DampMin         ....    0.0000
   Turn off err/grad.   DampErr         ....    0.1000
 Fernandez-Rico         CNVRico         .... off

SCF Procedure:
 Maximum # iterations   MaxIter         ....   800
 SCF integral mode      SCFMode         .... Direct
   Integral package                     .... SHARK and LIBINT hybrid scheme
 Reset frequency        DirectResetFreq ....    20
 Integral Threshold     Thresh          ....  2.500e-11 Eh
 Primitive CutOff       TCut            ....  2.500e-12 Eh

Convergence Tolerance:
 Convergence Check Mode ConvCheckMode   .... Total+1el-Energy
 Convergence forced     ConvForced      .... 0
 Energy Change          TolE            ....  1.000e-08 Eh
 1-El. energy change                    ....  1.000e-05 Eh
 Orbital Gradient       TolG            ....  1.000e-05
 Orbital Rotation angle TolX            ....  1.000e-05
 DIIS Error             TolErr          ....  5.000e-07


Diagonalization of the overlap matrix:
Smallest eigenvalue                        ... 1.515e-05
Time for diagonalization                   ...    0.030 sec
Threshold for overlap eigenvalues          ... 1.000e-08
Number of eigenvalues below threshold      ... 0
Time for construction of square roots      ...    0.020 sec
Total time needed                          ...    0.053 sec

Time for model grid setup =    0.117 sec

------------------------------
INITIAL GUESS: MODEL POTENTIAL
------------------------------
Loading Hartree-Fock densities                     ... done
Calculating cut-offs                               ... done
Initializing the effective Hamiltonian             ... done
Setting up the integral package (SHARK)            ... done
Starting the Coulomb interaction                   ... done (   0.1 sec)
Reading the grid                                   ... done
Mapping shells                                     ... done
Starting the XC term evaluation                    ... done (   0.0 sec)
  promolecular density results
     # of electrons  =     56.998411681
     EX              =    -49.970061850
     EC              =     -1.910137498
     EX+EC           =    -51.880199348
Transforming the Hamiltonian                       ... done (   0.0 sec)
Diagonalizing the Hamiltonian                      ... done (   0.0 sec)
Back transforming the eigenvectors                 ... done (   0.0 sec)
Now organizing SCF variables                       ... done
                      ------------------
                      INITIAL GUESS DONE (   0.3 sec)
                      ------------------
-------------------
DFT GRID GENERATION
-------------------

General Integration Accuracy     IntAcc      ... 4.388
Radial Grid Type                 RadialGrid  ... OptM3 with GC (2021)
Angular Grid (max. ang.)         AngularGrid ... 4 (Lebedev-302)
Angular grid pruning method      GridPruning ... 4 (adaptive)
Weight generation scheme         WeightScheme... Becke
Basis function cutoff            BFCut       ... 1.0000e-11
Integration weight cutoff        WCut        ... 1.0000e-14
Angular grids for H and He will be reduced by one unit
Partially contracted basis set               ... off
Rotationally invariant grid construction     ... off

Total number of grid points                  ...    61225
Total number of batches                      ...      963
Average number of points per batch           ...       63
Average number of grid points per atom       ...     5102
Time for grid setup =    0.430 sec

--------------------
COSX GRID GENERATION
--------------------

GRIDX 1
-------
General Integration Accuracy     IntAcc      ... 3.816
Radial Grid Type                 RadialGrid  ... OptM3 with GC (2021)
Angular Grid (max. ang.)         AngularGrid ... 1 (Lebedev-50)
Angular grid pruning method      GridPruning ... 4 (adaptive)
Weight generation scheme         WeightScheme... Becke
Basis function cutoff            BFCut       ... 1.0000e-11
Integration weight cutoff        WCut        ... 1.0000e-14
Angular grids for H and He will be reduced by one unit
Partially contracted basis set               ... on
Rotationally invariant grid construction     ... off

Total number of grid points                  ...     7789
Total number of batches                      ...      126
Average number of points per batch           ...       61
Average number of grid points per atom       ...      649
UseSFitting                                  ... on

GRIDX 2
-------
General Integration Accuracy     IntAcc      ... 4.020
Radial Grid Type                 RadialGrid  ... OptM3 with GC (2021)
Angular Grid (max. ang.)         AngularGrid ... 2 (Lebedev-110)
Angular grid pruning method      GridPruning ... 4 (adaptive)
Weight generation scheme         WeightScheme... Becke
Basis function cutoff            BFCut       ... 1.0000e-11
Integration weight cutoff        WCut        ... 1.0000e-14
Angular grids for H and He will be reduced by one unit
Partially contracted basis set               ... on
Rotationally invariant grid construction     ... off

Total number of grid points                  ...    17596
Total number of batches                      ...      281
Average number of points per batch           ...       62
Average number of grid points per atom       ...     1466
UseSFitting                                  ... on

GRIDX 3
-------
General Integration Accuracy     IntAcc      ... 4.338
Radial Grid Type                 RadialGrid  ... OptM3 with GC (2021)
Angular Grid (max. ang.)         AngularGrid ... 3 (Lebedev-194)
Angular grid pruning method      GridPruning ... 4 (adaptive)
Weight generation scheme         WeightScheme... Becke
Basis function cutoff            BFCut       ... 1.0000e-11
Integration weight cutoff        WCut        ... 1.0000e-14
Angular grids for H and He will be reduced by one unit
Partially contracted basis set               ... on
Rotationally invariant grid construction     ... off

Total number of grid points                  ...    38873
Total number of batches                      ...      613
Average number of points per batch           ...       63
Average number of grid points per atom       ...     3239
UseSFitting                                  ... on

Time for X-Grid setup             =    0.520 sec


--------------------
CPCM SOLVATION MODEL
--------------------
CPCM parameters:
  Epsilon                                         ...      47.2000
  Refrac                                          ...       1.4790
  Rsolv                                           ...       1.3000
  Surface type                                    ... GAUSSIAN VDW
  Epsilon function type                           ...         CPCM
Radii:
 Radius for C  used is    3.8550 Bohr (=   2.0400 Ang.)
 Radius for H  used is    2.4944 Bohr (=   1.3200 Ang.)
 Radius for O  used is    3.4469 Bohr (=   1.8240 Ang.)
 Radius for F  used is    3.3335 Bohr (=   1.7640 Ang.)
Calculating surface                               ...        done! (  0.0s)
GEPOL surface points                              ...          718
GEPOL Volume                                      ...     874.6802
GEPOL Surface-area                                ...     504.1513
Calculating surface distance matrix               ...        done! (  0.0s)
Performing Cholesky decomposition & store         ...        done! (  0.0s)
Overall time for CPCM initialization              ...                 0.0s
--------------
SCF ITERATIONS
--------------
ITER       Energy         Delta-E        Max-DP      RMS-DP      [F,P]     Damp
               ***  Starting incremental Fock matrix formation  ***
  0   -405.6775199830   0.000000000000 0.44638236  0.00579569  0.3451941 0.7000
  1   -405.7994781443  -0.121958161341 0.40783860  0.00519555  0.1454598 0.7000
                               ***Turning on DIIS***
  2   -405.8491417487  -0.049663604373 0.37946920  0.00559674  0.0410339 0.0000
  3   -405.9255954939  -0.076453745243 0.41569226  0.00501807  0.0874249 0.0000
  4   -405.9430477206  -0.017452226668 0.08110716  0.00099805  0.0154747 0.0000
  5   -405.9439731166  -0.000925395973 0.04183402  0.00052843  0.0101859 0.0000
                      *** Initiating the SOSCF procedure ***
                           *** Shutting down DIIS ***
                      *** Re-Reading the Fockian *** 
                      *** Removing any level shift *** 
ITER      Energy       Delta-E        Grad      Rot      Max-DP    RMS-DP
  6   -405.94409220  -0.0001190844  0.000461  0.000461  0.018712  0.000241
               *** Restarting incremental Fock matrix formation ***
  7   -405.94408643   0.0000057727  0.000461  0.002041  0.004544  0.000056
  8   -405.94408111   0.0000053159  0.000772  0.001282  0.003532  0.000044
  9   -405.94408967  -0.0000085570  0.000029  0.000087  0.000658  0.000009
 10   -405.94408963   0.0000000371  0.000060  0.000064  0.000492  0.000007
 11   -405.94408969  -0.0000000617  0.000004  0.000016  0.000042  0.000001
 12   -405.94408970  -0.0000000037  0.000007  0.000008  0.000125  0.000002
                  ***Gradient check signals convergence***
              ***Rediagonalizing the Fockian in SOSCF/NRSCF***

               *****************************************************
               *                     SUCCESS                       *
               *           SCF CONVERGED AFTER  13 CYCLES          *
               *****************************************************

Old exchange energy                            =    -12.766013167 Eh
New exchange energy                            =    -12.765994622 Eh
Exchange energy change after final integration =      0.000018545 Eh
Total energy after final integration           =   -405.944071154 Eh
Final COS-X integration done in                =     1.060 sec

----------------
TOTAL SCF ENERGY
----------------

Total Energy       :         -405.94407115 Eh          -11046.29976 eV

Components:
Nuclear Repulsion  :          331.21990686 Eh            9012.95188 eV
Electronic Energy  :         -737.16397801 Eh          -20059.25163 eV
One Electron Energy:        -1222.37847728 Eh          -33262.60941 eV
Two Electron Energy:          485.21449926 Eh           13203.35777 eV
Max COSX asymmetry :            0.00000288 Eh               0.00008 eV
CPCM Dielectric    :           -0.09763499 Eh              -2.65678 eV

Virial components:
Potential Energy   :         -810.19692899 Eh          -22046.57926 eV
Kinetic Energy     :          404.25285784 Eh           11000.27951 eV
Virial Ratio       :            2.00418355


DFT components:
N(Alpha)           :       29.000041155317 electrons
N(Beta)            :       29.000041155317 electrons
N(Total)           :       58.000082310633 electrons
E(X)               :      -38.244406976874 Eh       
E(C)               :       -1.953075387434 Eh       
E(XC)              :      -40.197482364308 Eh       
DFET-embed. en.    :        0.000000000000 Eh       
CPCM Solvation Model Properties:
Surface-charge          :            0.97434973
Charge-correction       :           -0.00374011 Eh              -0.10177 eV
Free-energy (cav+disp)  :  This term is not implemented in the current solvation scheme

---------------
SCF CONVERGENCE
---------------

  Last Energy change         ...   -1.1241e-09  Tolerance :   1.0000e-08
  Last MAX-Density change    ...    1.6653e-15  Tolerance :   1.0000e-07
  Last RMS-Density change    ...    1.8959e-17  Tolerance :   5.0000e-09
  Last Orbital Gradient      ...    7.4184e-07  Tolerance :   1.0000e-05
  Last Orbital Rotation      ...    7.3249e-07  Tolerance :   1.0000e-05

             **** THE GBW FILE WAS UPDATED (F-PhenO/F-PhenO.gbw) ****
             **** DENSITY F-PhenO/F-PhenO.scfp WAS UPDATED ****
             **** ENERGY FILE WAS UPDATED (F-PhenO/F-PhenO.en.tmp) ****
             **** THE GBW FILE WAS UPDATED (F-PhenO/F-PhenO.gbw) ****
             **** DENSITY F-PhenO/F-PhenO.scfp WAS UPDATED ****
----------------
ORBITAL ENERGIES
----------------

  NO   OCC          E(Eh)            E(eV) 
   0   2.0000     -24.760870      -673.7775 
   1   2.0000     -19.108057      -519.9567 
   2   2.0000     -10.270523      -279.4752 
   3   2.0000     -10.242696      -278.7179 
   4   2.0000     -10.210371      -277.8383 
   5   2.0000     -10.210324      -277.8370 
   6   2.0000     -10.192691      -277.3572 
   7   2.0000     -10.192656      -277.3563 
   8   2.0000      -1.233836       -33.5744 
   9   2.0000      -0.974071       -26.5058 
  10   2.0000      -0.850525       -23.1440 
  11   2.0000      -0.753234       -20.4965 
  12   2.0000      -0.714377       -19.4392 
  13   2.0000      -0.616258       -16.7692 
  14   2.0000      -0.588311       -16.0088 
  15   2.0000      -0.539391       -14.6776 
  16   2.0000      -0.486658       -13.2426 
  17   2.0000      -0.467623       -12.7247 
  18   2.0000      -0.455512       -12.3951 
  19   2.0000      -0.422212       -11.4890 
  20   2.0000      -0.416177       -11.3247 
  21   2.0000      -0.403197       -10.9716 
  22   2.0000      -0.378360       -10.2957 
  23   2.0000      -0.365860        -9.9555 
  24   2.0000      -0.335373        -9.1260 
  25   2.0000      -0.304798        -8.2940 
  26   2.0000      -0.254005        -6.9118 
  27   2.0000      -0.218721        -5.9517 
  28   2.0000      -0.175124        -4.7654 
  29   0.0000       0.007553         0.2055 
  30   0.0000       0.050585         1.3765 
  31   0.0000       0.081796         2.2258 
  32   0.0000       0.104828         2.8525 
  33   0.0000       0.107873         2.9354 
  34   0.0000       0.122409         3.3309 
  35   0.0000       0.147376         4.0103 
  36   0.0000       0.159648         4.3443 
  37   0.0000       0.183326         4.9885 
  38   0.0000       0.185968         5.0605 
  39   0.0000       0.217183         5.9099 
  40   0.0000       0.220683         6.0051 
  41   0.0000       0.240175         6.5355 
  42   0.0000       0.245099         6.6695 
  43   0.0000       0.261223         7.1082 
  44   0.0000       0.267049         7.2668 
  45   0.0000       0.287817         7.8319 
  46   0.0000       0.315627         8.5887 
  47   0.0000       0.321282         8.7425 
  48   0.0000       0.343069         9.3354 
  49   0.0000       0.344532         9.3752 
  50   0.0000       0.345407         9.3990 
  51   0.0000       0.365318         9.9408 
  52   0.0000       0.370818        10.0905 
  53   0.0000       0.382909        10.4195 
  54   0.0000       0.405796        11.0423 
  55   0.0000       0.424268        11.5449 
  56   0.0000       0.427869        11.6429 
  57   0.0000       0.447586        12.1794 
  58   0.0000       0.450648        12.2627 
  59   0.0000       0.461716        12.5639 
  60   0.0000       0.466892        12.7048 
  61   0.0000       0.492904        13.4126 
  62   0.0000       0.499161        13.5829 
  63   0.0000       0.514486        13.9999 
  64   0.0000       0.515346        14.0233 
  65   0.0000       0.519288        14.1306 
  66   0.0000       0.544722        14.8226 
  67   0.0000       0.552977        15.0473 
  68   0.0000       0.609584        16.5876 
  69   0.0000       0.658105        17.9079 
  70   0.0000       0.659252        17.9392 
  71   0.0000       0.671783        18.2801 
  72   0.0000       0.688556        18.7366 
  73   0.0000       0.694660        18.9026 
  74   0.0000       0.724804        19.7229 
  75   0.0000       0.746723        20.3194 
  76   0.0000       0.757641        20.6164 
  77   0.0000       0.764451        20.8018 
  78   0.0000       0.777705        21.1624 
  79   0.0000       0.838249        22.8099 
  80   0.0000       0.845551        23.0086 
  81   0.0000       0.849708        23.1217 
  82   0.0000       0.884648        24.0725 
  83   0.0000       0.891984        24.2721 
  84   0.0000       0.894446        24.3391 
  85   0.0000       0.909048        24.7365 
  86   0.0000       0.910812        24.7845 
  87   0.0000       0.932162        25.3654 
  88   0.0000       0.970488        26.4083 
  89   0.0000       1.044796        28.4303 
  90   0.0000       1.061994        28.8983 
  91   0.0000       1.064489        28.9662 
  92   0.0000       1.071731        29.1633 
  93   0.0000       1.074230        29.2313 
  94   0.0000       1.131331        30.7851 
  95   0.0000       1.190505        32.3953 
  96   0.0000       1.213324        33.0162 
  97   0.0000       1.227315        33.3969 
  98   0.0000       1.234279        33.5864 
  99   0.0000       1.253865        34.1194 
 100   0.0000       1.258234        34.2383 
 101   0.0000       1.273293        34.6481 
 102   0.0000       1.312894        35.7257 
 103   0.0000       1.325032        36.0559 
 104   0.0000       1.382599        37.6224 
 105   0.0000       1.425251        38.7830 
 106   0.0000       1.455817        39.6148 
 107   0.0000       1.474123        40.1129 
 108   0.0000       1.480764        40.2936 
 109   0.0000       1.512035        41.1446 
 110   0.0000       1.512239        41.1501 
 111   0.0000       1.519656        41.3520 
 112   0.0000       1.533937        41.7405 
 113   0.0000       1.566448        42.6252 
 114   0.0000       1.593455        43.3601 
 115   0.0000       1.662410        45.2365 
 116   0.0000       1.689550        45.9750 
 117   0.0000       1.690250        45.9940 
 118   0.0000       1.692726        46.0614 
 119   0.0000       1.748531        47.5800 
 120   0.0000       1.754420        47.7402 
 121   0.0000       1.756499        47.7968 
 122   0.0000       1.817183        49.4481 
 123   0.0000       1.856971        50.5307 
 124   0.0000       1.872174        50.9444 
 125   0.0000       1.878710        51.1223 
 126   0.0000       1.885201        51.2989 
 127   0.0000       1.956109        53.2284 
 128   0.0000       1.966711        53.5169 
 129   0.0000       2.021989        55.0211 
 130   0.0000       2.026829        55.1528 
 131   0.0000       2.049184        55.7611 
 132   0.0000       2.111274        57.4507 
 133   0.0000       2.150998        58.5316 
 134   0.0000       2.176753        59.2325 
 135   0.0000       2.181816        59.3702 
 136   0.0000       2.199858        59.8612 
 137   0.0000       2.218113        60.3579 
 138   0.0000       2.250130        61.2292 
 139   0.0000       2.267581        61.7040 
 140   0.0000       2.288606        62.2761 
 141   0.0000       2.337882        63.6170 
 142   0.0000       2.398821        65.2752 
 143   0.0000       2.443867        66.5010 
 144   0.0000       2.451369        66.7051 
 145   0.0000       2.452631        66.7395 
 146   0.0000       2.535631        68.9980 
 147   0.0000       2.538680        69.0810 
 148   0.0000       2.604014        70.8588 
 149   0.0000       2.607220        70.9461 
 150   0.0000       2.617668        71.2304 
 151   0.0000       2.621803        71.3429 
 152   0.0000       2.663180        72.4688 
 153   0.0000       2.697735        73.4091 
 154   0.0000       2.707924        73.6864 
 155   0.0000       2.711309        73.7785 
 156   0.0000       2.736350        74.4599 
 157   0.0000       2.750246        74.8380 
 158   0.0000       2.794814        76.0508 
 159   0.0000       2.799609        76.1812 
 160   0.0000       2.802240        76.2528 
 161   0.0000       2.818099        76.6844 
 162   0.0000       2.836288        77.1793 
 163   0.0000       2.850854        77.5757 
 164   0.0000       2.879161        78.3460 
 165   0.0000       2.896662        78.8222 
 166   0.0000       2.922305        79.5200 
 167   0.0000       2.932844        79.8067 
 168   0.0000       2.949602        80.2627 
 169   0.0000       2.951037        80.3018 
 170   0.0000       2.980276        81.0974 
 171   0.0000       2.986573        81.2688 
 172   0.0000       3.028916        82.4210 
 173   0.0000       3.079918        83.8088 
 174   0.0000       3.105609        84.5079 
 175   0.0000       3.124775        85.0295 
 176   0.0000       3.163655        86.0874 
 177   0.0000       3.165064        86.1258 
 178   0.0000       3.168176        86.2105 
 179   0.0000       3.179922        86.5301 
 180   0.0000       3.217299        87.5472 
 181   0.0000       3.222572        87.6907 
 182   0.0000       3.223740        87.7224 
 183   0.0000       3.230315        87.9013 
 184   0.0000       3.259707        88.7011 
 185   0.0000       3.263344        88.8001 
 186   0.0000       3.288805        89.4929 
 187   0.0000       3.319999        90.3418 
 188   0.0000       3.374846        91.8342 
 189   0.0000       3.410389        92.8014 
 190   0.0000       3.410505        92.8046 
 191   0.0000       3.416227        92.9603 
 192   0.0000       3.439546        93.5948 
 193   0.0000       3.441061        93.6360 
 194   0.0000       3.492749        95.0425 
 195   0.0000       3.516638        95.6926 
 196   0.0000       3.518865        95.7532 
 197   0.0000       3.522483        95.8516 
 198   0.0000       3.534219        96.1710 
 199   0.0000       3.589086        97.6640 
 200   0.0000       3.593493        97.7839 
 201   0.0000       3.624013        98.6144 
 202   0.0000       3.683843       100.2425 
 203   0.0000       3.750502       102.0563 
 204   0.0000       3.787517       103.0636 
 205   0.0000       3.815380       103.8218 
 206   0.0000       3.856348       104.9366 
 207   0.0000       3.878281       105.5334 
 208   0.0000       3.974445       108.1501 
 209   0.0000       3.985206       108.4430 
 210   0.0000       4.027324       109.5891 
 211   0.0000       4.037895       109.8767 
 212   0.0000       4.068504       110.7096 
 213   0.0000       4.107484       111.7703 
 214   0.0000       4.129796       112.3775 
 215   0.0000       4.160799       113.2211 
 216   0.0000       4.168462       113.4296 
 217   0.0000       4.194533       114.1390 
 218   0.0000       4.253511       115.7439 
 219   0.0000       4.273227       116.2804 
 220   0.0000       4.274196       116.3068 
 221   0.0000       4.275938       116.3542 
 222   0.0000       4.333977       117.9335 
 223   0.0000       4.432278       120.6084 
 224   0.0000       4.526439       123.1707 
 225   0.0000       4.587908       124.8433 
 226   0.0000       4.619734       125.7093 
 227   0.0000       4.642139       126.3190 
 228   0.0000       4.689218       127.6001 
 229   0.0000       4.733949       128.8173 
 230   0.0000       4.871864       132.5701 
 231   0.0000       4.875239       132.6620 
 232   0.0000       4.918891       133.8498 
 233   0.0000       4.928016       134.0981 
 234   0.0000       5.136909       139.7824 
 235   0.0000       5.140964       139.8927 
 236   0.0000       5.282599       143.7468 
 237   0.0000       5.318331       144.7191 
 238   0.0000       5.338421       145.2658 
 239   0.0000       5.380603       146.4136 
 240   0.0000       5.533748       150.5809 
 241   0.0000       5.602620       152.4551 
 242   0.0000       5.609350       152.6382 
 243   0.0000       5.783719       157.3830 
 244   0.0000       6.082389       165.5102 
 245   0.0000       6.389643       173.8710 
 246   0.0000       6.464983       175.9211 
 247   0.0000       6.625351       180.2850 
 248   0.0000       6.666925       181.4163 
 249   0.0000       6.883187       187.3011 
 250   0.0000       6.900987       187.7854 
 251   0.0000       6.910766       188.0515 
 252   0.0000       7.002102       190.5369 
 253   0.0000       7.083964       192.7645 
 254   0.0000       7.124085       193.8562 
 255   0.0000       7.124521       193.8681 
 256   0.0000       7.246890       197.1979 
 257   0.0000       7.435299       202.3248 
 258   0.0000       7.567285       205.9163 
 259   0.0000       8.384391       228.1509 
 260   0.0000       8.547837       232.5985 
 261   0.0000       8.777033       238.8352 
 262   0.0000       8.982556       244.4278 
 263   0.0000       9.046769       246.1751 
 264   0.0000      22.122843       601.9932 
 265   0.0000      22.712698       618.0439 
 266   0.0000      22.779996       619.8752 
 267   0.0000      22.789327       620.1291 
 268   0.0000      23.032088       626.7350 
 269   0.0000      23.471934       638.7038 
 270   0.0000      44.081060      1199.5066 
 271   0.0000      57.420662      1562.4956 

                    ********************************
                    * MULLIKEN POPULATION ANALYSIS *
                    ********************************

-----------------------
MULLIKEN ATOMIC CHARGES
-----------------------
   0 C :    0.254153
   1 C :   -0.241618
   2 C :   -0.241583
   3 H :    0.140549
   4 H :    0.140604
   5 C :   -0.285347
   6 C :   -0.285641
   7 H :    0.106189
   8 H :    0.106130
   9 C :    0.236197
  10 O :   -0.680373
  11 F :   -0.249259
Sum of atomic charges:   -1.0000000

--------------------------------
MULLIKEN REDUCED ORBITAL CHARGES
--------------------------------
  0 C s       :     2.997572  s :     2.997572
      pz      :     0.604343  p :     2.560506
      px      :     1.066932
      py      :     0.889230
      dz2     :     0.035817  d :     0.170227
      dxz     :     0.036495
      dyz     :     0.056239
      dx2y2   :     0.015454
      dxy     :     0.026221
      f0      :     0.002791  f :     0.017542
      f+1     :     0.003646
      f-1     :     0.006596
      f+2     :     0.000746
      f-2     :     0.001142
      f+3     :     0.001754
      f-3     :     0.000867
  1 C s       :     3.214840  s :     3.214840
      pz      :     0.955866  p :     2.930207
      px      :     1.014218
      py      :     0.960124
      dz2     :     0.012091  d :     0.089238
      dxz     :     0.022492
      dyz     :     0.033733
      dx2y2   :     0.008189
      dxy     :     0.012733
      f0      :     0.000761  f :     0.007333
      f+1     :     0.001511
      f-1     :     0.001960
      f+2     :     0.000806
      f-2     :     0.000420
      f+3     :     0.001190
      f-3     :     0.000686
  2 C s       :     3.214526  s :     3.214526
      pz      :     0.953590  p :     2.930540
      px      :     1.014241
      py      :     0.962710
      dz2     :     0.012470  d :     0.089189
      dxz     :     0.024037
      dyz     :     0.033351
      dx2y2   :     0.008147
      dxy     :     0.011185
      f0      :     0.000827  f :     0.007328
      f+1     :     0.001485
      f-1     :     0.001918
      f+2     :     0.000763
      f-2     :     0.000565
      f+3     :     0.001071
      f-3     :     0.000699
  3 H s       :     0.837459  s :     0.837459
      pz      :     0.006466  p :     0.021992
      px      :     0.004911
      py      :     0.010615
  4 H s       :     0.837398  s :     0.837398
      pz      :     0.005856  p :     0.021999
      px      :     0.004913
      py      :     0.011230
  5 C s       :     3.234726  s :     3.234726
      pz      :     0.916025  p :     2.964614
      px      :     1.088590
      py      :     0.959999
      dz2     :     0.018103  d :     0.078933
      dxz     :     0.018185
      dyz     :     0.027999
      dx2y2   :     0.008218
      dxy     :     0.006428
      f0      :     0.001035  f :     0.007075
      f+1     :     0.001474
      f-1     :     0.002042
      f+2     :     0.000765
      f-2     :     0.000438
      f+3     :     0.000702
      f-3     :     0.000620
  6 C s       :     3.235003  s :     3.235003
      pz      :     0.916875  p :     2.964623
      px      :     1.088900
      py      :     0.958848
      dz2     :     0.017567  d :     0.078941
      dxz     :     0.017443
      dyz     :     0.028587
      dx2y2   :     0.008191
      dxy     :     0.007153
      f0      :     0.000950  f :     0.007074
      f+1     :     0.001459
      f-1     :     0.002094
      f+2     :     0.000797
      f-2     :     0.000369
      f+3     :     0.000783
      f-3     :     0.000621
  7 H s       :     0.871426  s :     0.871426
      pz      :     0.005547  p :     0.022386
      px      :     0.005609
      py      :     0.011230
  8 H s       :     0.871487  s :     0.871487
      pz      :     0.006109  p :     0.022384
      px      :     0.005611
      py      :     0.010664
  9 C s       :     2.949993  s :     2.949993
      pz      :     0.859351  p :     2.632153
      px      :     0.857992
      py      :     0.914809
      dz2     :     0.032327  d :     0.164950
      dxz     :     0.057335
      dyz     :     0.046184
      dx2y2   :     0.012423
      dxy     :     0.016681
      f0      :     0.002713  f :     0.016707
      f+1     :     0.003387
      f-1     :     0.006919
      f+2     :     0.000775
      f-2     :     0.001010
      f+3     :     0.001309
      f-3     :     0.000595
 10 O s       :     3.781281  s :     3.781281
      pz      :     1.370504  p :     4.870628
      px      :     1.646015
      py      :     1.854109
      dz2     :     0.012386  d :     0.026888
      dxz     :     0.007877
      dyz     :     0.006476
      dx2y2   :     0.000093
      dxy     :     0.000055
      f0      :     0.000674  f :     0.001576
      f+1     :     0.000467
      f-1     :     0.000419
      f+2     :     0.000007
      f-2     :     0.000006
      f+3     :     0.000002
      f-3     :     0.000002
 11 F s       :     3.909213  s :     3.909213
      pz      :     1.485204  p :     5.324908
      px      :     1.909526
      py      :     1.930177
      dz2     :     0.007542  d :     0.014537
      dxz     :     0.003846
      dyz     :     0.003049
      dx2y2   :     0.000056
      dxy     :     0.000044
      f0      :     0.000325  f :     0.000602
      f+1     :     0.000141
      f-1     :     0.000132
      f+2     :     0.000002
      f-2     :     0.000002
      f+3     :     0.000000
      f-3     :     0.000000


                     *******************************
                     * LOEWDIN POPULATION ANALYSIS *
                     *******************************

----------------------
LOEWDIN ATOMIC CHARGES
----------------------
   0 C :   -0.321619
   1 C :   -0.173511
   2 C :   -0.173431
   3 H :    0.151145
   4 H :    0.151151
   5 C :   -0.183928
   6 C :   -0.184067
   7 H :    0.137122
   8 H :    0.137105
   9 C :   -0.444102
  10 O :   -0.213722
  11 F :    0.117857

-------------------------------
LOEWDIN REDUCED ORBITAL CHARGES
-------------------------------
  0 C s       :     2.724139  s :     2.724139
      pz      :     0.733337  p :     2.800206
      px      :     0.969603
      py      :     1.097266
      dz2     :     0.219181  d :     0.687852
      dxz     :     0.110939
      dyz     :     0.202158
      dx2y2   :     0.067418
      dxy     :     0.088156
      f0      :     0.026227  f :     0.109421
      f+1     :     0.019556
      f-1     :     0.038195
      f+2     :     0.006525
      f-2     :     0.007983
      f+3     :     0.004856
      f-3     :     0.006080
  1 C s       :     2.765289  s :     2.765289
      pz      :     1.050882  p :     2.968925
      px      :     0.916441
      py      :     1.001602
      dz2     :     0.084819  d :     0.395244
      dxz     :     0.080028
      dyz     :     0.148258
      dx2y2   :     0.042931
      dxy     :     0.039209
      f0      :     0.007268  f :     0.044053
      f+1     :     0.006997
      f-1     :     0.013165
      f+2     :     0.004941
      f-2     :     0.003158
      f+3     :     0.004589
      f-3     :     0.003935
  2 C s       :     2.765355  s :     2.765355
      pz      :     1.054301  p :     2.968918
      px      :     0.916502
      py      :     0.998115
      dz2     :     0.088501  d :     0.395130
      dxz     :     0.085747
      dyz     :     0.144412
      dx2y2   :     0.042987
      dxy     :     0.033481
      f0      :     0.007329  f :     0.044028
      f+1     :     0.006550
      f-1     :     0.013300
      f+2     :     0.004954
      f-2     :     0.004255
      f+3     :     0.003934
      f-3     :     0.003706
  3 H s       :     0.788621  s :     0.788621
      pz      :     0.017922  p :     0.060234
      px      :     0.014145
      py      :     0.028167
  4 H s       :     0.788608  s :     0.788608
      pz      :     0.016429  p :     0.060241
      px      :     0.014146
      py      :     0.029666
  5 C s       :     2.775293  s :     2.775293
      pz      :     1.044950  p :     3.002506
      px      :     0.966597
      py      :     0.990959
      dz2     :     0.098326  d :     0.366347
      dxz     :     0.063542
      dyz     :     0.140210
      dx2y2   :     0.044003
      dxy     :     0.020267
      f0      :     0.007455  f :     0.039782
      f+1     :     0.006165
      f-1     :     0.013445
      f+2     :     0.004489
      f-2     :     0.002891
      f+3     :     0.002037
      f-3     :     0.003301
  6 C s       :     2.775335  s :     2.775335
      pz      :     1.041402  p :     3.002687
      px      :     0.966830
      py      :     0.994455
      dz2     :     0.092743  d :     0.366276
      dxz     :     0.060241
      dyz     :     0.146326
      dx2y2   :     0.043420
      dxy     :     0.023546
      f0      :     0.007192  f :     0.039770
      f+1     :     0.006327
      f-1     :     0.013517
      f+2     :     0.004486
      f-2     :     0.002333
      f+3     :     0.002429
      f-3     :     0.003485
  7 H s       :     0.802044  s :     0.802044
      pz      :     0.015430  p :     0.060834
      px      :     0.015834
      py      :     0.029570
  8 H s       :     0.802061  s :     0.802061
      pz      :     0.016788  p :     0.060834
      px      :     0.015840
      py      :     0.028206
  9 C s       :     2.731372  s :     2.731372
      pz      :     0.947202  p :     2.806734
      px      :     0.811462
      py      :     1.048070
      dz2     :     0.202796  d :     0.799648
      dxz     :     0.184995
      dyz     :     0.289162
      dx2y2   :     0.060412
      dxy     :     0.062284
      f0      :     0.020248  f :     0.106348
      f+1     :     0.020762
      f-1     :     0.042421
      f+2     :     0.005813
      f-2     :     0.006650
      f+3     :     0.005462
      f-3     :     0.004992
 10 O s       :     3.432384  s :     3.432384
      pz      :     1.462813  p :     4.715664
      px      :     1.547888
      py      :     1.704964
      dz2     :     0.027232  d :     0.060800
      dxz     :     0.014729
      dyz     :     0.018663
      dx2y2   :     0.000112
      dxy     :     0.000065
      f0      :     0.002110  f :     0.004874
      f+1     :     0.001140
      f-1     :     0.001594
      f+2     :     0.000012
      f-2     :     0.000014
      f+3     :     0.000001
      f-3     :     0.000002
 11 F s       :     3.606033  s :     3.606033
      pz      :     1.544808  p :     5.245479
      px      :     1.849704
      py      :     1.850967
      dz2     :     0.012905  d :     0.029318
      dxz     :     0.009232
      dyz     :     0.007090
      dx2y2   :     0.000048
      dxy     :     0.000042
      f0      :     0.000527  f :     0.001313
      f+1     :     0.000411
      f-1     :     0.000368
      f+2     :     0.000002
      f-2     :     0.000004
      f+3     :     0.000000
      f-3     :     0.000000


                      *****************************
                      * MAYER POPULATION ANALYSIS *
                      *****************************

  NA   - Mulliken gross atomic population
  ZA   - Total nuclear charge
  QA   - Mulliken gross atomic charge
  VA   - Mayer's total valence
  BVA  - Mayer's bonded valence
  FA   - Mayer's free valence

  ATOM       NA         ZA         QA         VA         BVA        FA
  0 C      5.7458     6.0000     0.2542     3.9052     3.9052     0.0000
  1 C      6.2416     6.0000    -0.2416     3.8027     3.8027     0.0000
  2 C      6.2416     6.0000    -0.2416     3.8028     3.8028     0.0000
  3 H      0.8595     1.0000     0.1405     0.9713     0.9713     0.0000
  4 H      0.8594     1.0000     0.1406     0.9713     0.9713    -0.0000
  5 C      6.2853     6.0000    -0.2853     3.6669     3.6669    -0.0000
  6 C      6.2856     6.0000    -0.2856     3.6677     3.6677     0.0000
  7 H      0.8938     1.0000     0.1062     0.9939     0.9939    -0.0000
  8 H      0.8939     1.0000     0.1061     0.9939     0.9939     0.0000
  9 C      5.7638     6.0000     0.2362     4.2150     4.2150     0.0000
 10 O      8.6804     8.0000    -0.6804     1.7969     1.7969     0.0000
 11 F      9.2493     9.0000    -0.2493     1.0040     1.0040    -0.0000

  Mayer bond orders larger than 0.100000
B(  0-C ,  1-C ) :   1.3970 B(  0-C ,  2-C ) :   1.3975 B(  0-C , 11-F ) :   0.9727 
B(  1-C ,  3-H ) :   0.9657 B(  1-C ,  5-C ) :   1.3436 B(  2-C ,  4-H ) :   0.9657 
B(  2-C ,  6-C ) :   1.3432 B(  5-C ,  7-H ) :   0.9747 B(  5-C ,  9-C ) :   1.2282 
B(  6-C ,  8-H ) :   0.9747 B(  6-C ,  9-C ) :   1.2287 B(  9-C , 10-O ) :   1.6628 


-------
TIMINGS
-------

Total SCF time: 0 days 0 hours 0 min 20 sec 

Total time                  ....      20.177 sec
Sum of individual times     ....      19.103 sec  ( 94.7%)

Fock matrix formation       ....      17.057 sec  ( 84.5%)
  Split-RI-J                ....       1.942 sec  ( 11.4% of F)
  Chain of spheres X        ....       7.214 sec  ( 42.3% of F)
  XC integration            ....       3.420 sec  ( 20.1% of F)
    Basis function eval.    ....       0.302 sec  (  8.8% of XC)
    Density eval.           ....       0.277 sec  (  8.1% of XC)
    XC-Functional eval.     ....       0.061 sec  (  1.8% of XC)
    XC-Potential eval.      ....       0.323 sec  (  9.4% of XC)
Diagonalization             ....       0.277 sec  (  1.4%)
Density matrix formation    ....       0.024 sec  (  0.1%)
Population analysis         ....       0.075 sec  (  0.4%)
Initial guess               ....       0.197 sec  (  1.0%)
Orbital Transformation      ....       0.000 sec  (  0.0%)
Orbital Orthonormalization  ....       0.000 sec  (  0.0%)
DIIS solution               ....       0.185 sec  (  0.9%)
SOSCF solution              ....       0.222 sec  (  1.1%)
Grid generation             ....       1.067 sec  (  5.3%)

Maximum memory used throughout the entire SCF-calculation: 72.7 MB


-------------------------------------------------------------------------------
                          DFT DISPERSION CORRECTION                            
                                                                               
                              DFTD3 V3.1  Rev 1                                
                          USING Becke-Johnson damping                          
-------------------------------------------------------------------------------
The PBE0 functional is recognized
Active option DFTDOPT                   ...         4   

molecular C6(AA) [au] = 1866.275185 


            DFT-D V3
 parameters
 s6 scaling factor         :     1.0000 
 a1 scaling factor         :     0.4145 
 s8 scaling factor         :     1.2177 
 a2 scaling factor         :     4.8593 
 ad hoc parameters k1-k3   :    16.0000     1.3333    -4.0000 

 Edisp/kcal,au: -6.305517077871  -0.010048480008 
 E6   /kcal   :  -3.887678979 
 E8   /kcal   :  -2.417838099 
 % E8         :  38.344802961 

-------------------------   ----------------
Dispersion correction           -0.010048480
-------------------------   ----------------


-------------------------   --------------------
FINAL SINGLE POINT ENERGY      -405.954119633841
-------------------------   --------------------



           ************************************************************
           *        Program running with 24 parallel MPI-processes    *
           *              working on a common directory               *
           ************************************************************
------------------------------------------------------------------------------
                         ORCA SCF GRADIENT CALCULATION
------------------------------------------------------------------------------

 ... reading COSX grid (gridx3)
Gradient of the Kohn-Sham DFT energy:
Kohn-Sham wavefunction type      ... RKS
Hartree-Fock exchange scaling    ...    0.250
Number of operators              ...    1
Number of atoms                  ...   12
Basis set dimensions             ...  272
Integral neglect threshold       ... 2.5e-11
Integral primitive cutoff        ... 2.5e-12
SHARK Integral package           ... ON

Nuc. rep. gradient       (SHARK) ... done (  0.0 sec)
HCore & Overlap gradient (SHARK) ... done (  0.0 sec)
RI-J gradient            (SHARK) ... done (  0.4 sec)
COSX-gradient                    ... done (  1.3 sec)
Exchange-correlation gradient    ... done
Dispersion correction            ... done

------------------
CARTESIAN GRADIENT
------------------

   1   C   :    0.000000094   -0.000063577    0.000295651
   2   C   :   -0.000000075   -0.000113622    0.000035524
   3   C   :   -0.000000032    0.000143731   -0.000058752
   4   H   :    0.000000040    0.000019377   -0.000029482
   5   H   :    0.000000013   -0.000062387    0.000020857
   6   C   :   -0.000000040   -0.000028987   -0.000208686
   7   C   :   -0.000000035    0.000132205    0.000061206
   8   H   :    0.000000004    0.000011349    0.000057873
   9   H   :   -0.000000004   -0.000087136   -0.000046211
  10   C   :    0.000000129   -0.000054155    0.000054634
  11   O   :   -0.000000047    0.000024860   -0.000160094
  12   F   :   -0.000000006   -0.000008128    0.000033293

Difference to translation invariance:
           :    0.0000000393   -0.0000864709    0.0000558140

Difference to rotation invariance:
           :   -0.0005347193   -0.0000001973    0.0000000100

Norm of the cartesian gradient     ...    0.0004974603
RMS gradient                       ...    0.0000829101
MAX gradient                       ...    0.0002956512

-------
TIMINGS
-------

Total SCF gradient time            ...        3.426 sec

One electron gradient       ....       0.032 sec  (  0.9%)
RI-J Coulomb gradient       ....       0.395 sec  ( 11.5%)
COSX gradient               ....       1.312 sec  ( 38.3%)
XC gradient                 ....       0.601 sec  ( 17.6%)
CPCM gradient               ....       0.158 sec  (  4.6%)
   A-Matrix (El+Nuc)        ....       0.047 sec  (  1.4%)
   Potential                ....       0.111 sec  (  3.2%)

Maximum memory used throughout the entire SCFGRAD-calculation: 46.4 MB
------------------------------------------------------------------------------
                         ORCA GEOMETRY RELAXATION STEP
------------------------------------------------------------------------------

Reading the OPT-File                    .... done
Getting information on internals        .... done
Copying old internal coords+grads       .... done
Making the new internal coordinates     .... (new redundants).... done
Validating the new internal coordinates .... (new redundants).... done
Calculating the B-matrix                .... done
Calculating the G,G- and P matrices     .... done
Transforming gradient to internals      .... done
Projecting the internal gradient        .... done
Number of atoms                         ....  12
Number of internal coordinates          ....  54
Current Energy                          ....  -405.954119634 Eh
Current gradient norm                   ....     0.000497460 Eh/bohr
Maximum allowed component of the step   ....  0.200
Current trust radius                    ....  0.300
Evaluating the initial hessian          ....  (Almloef) done
Projecting the Hessian                  .... done
Forming the augmented Hessian           .... done
Diagonalizing the augmented Hessian     .... done
Last element of RFO vector              ....  0.999999643
Lowest eigenvalues of augmented Hessian:
 -0.000000352  0.020157725  0.021995415  0.023710479  0.024402444
Length of the computed step             ....  0.000844768
The final length of the internal step   ....  0.000844768
Converting the step to cartesian space:
 Initial RMS(Int)=    0.0001149583
Transforming coordinates:
 Iter   0:  RMS(Cart)=    0.0001900458 RMS(Int)=    1.9119122860
 Iter   1:  RMS(Cart)=    0.0000000191 RMS(Int)=    0.0000000128
done
Storing new coordinates                 .... done

                                .--------------------.
          ----------------------|Geometry convergence|-------------------------
          Item                value                   Tolerance       Converged
          ---------------------------------------------------------------------
          RMS gradient        0.0000591502            0.0000300000      NO
          MAX gradient        0.0001864885            0.0001000000      NO
          RMS step            0.0001149583            0.0006000000      YES
          MAX step            0.0003312435            0.0010000000      YES
          ........................................................
          Max(Bonds)      0.0002      Max(Angles)    0.02
          Max(Dihed)        0.00      Max(Improp)    0.00
          ---------------------------------------------------------------------

       The step convergence is overachieved with 
       reasonable convergence on the gradient
       Convergence will therefore be signaled now


                    ***********************HURRAY********************
                    ***        THE OPTIMIZATION HAS CONVERGED     ***
                    *************************************************


    ---------------------------------------------------------------------------
                         Redundant Internal Coordinates

                          --- Optimized Parameters ---  
                            (Angstroem and degrees)

        Definition                    OldVal   dE/dq     Step     FinalVal
    ----------------------------------------------------------------------------
     1. B(C   1,C   0)                1.3811 -0.000139  0.0001    1.3812   
     2. B(C   2,C   0)                1.3811 -0.000186  0.0002    1.3813   
     3. B(H   3,C   1)                1.0856  0.000041 -0.0001    1.0855   
     4. B(H   4,C   2)                1.0856  0.000041 -0.0001    1.0855   
     5. B(C   5,C   1)                1.3864 -0.000163  0.0001    1.3865   
     6. B(C   6,C   2)                1.3867 -0.000105  0.0001    1.3868   
     7. B(H   7,C   5)                1.0863  0.000041 -0.0001    1.0862   
     8. B(H   8,C   6)                1.0863  0.000042 -0.0001    1.0863   
     9. B(C   9,C   6)                1.4281 -0.000082  0.0001    1.4282   
    10. B(C   9,C   5)                1.4282 -0.000014  0.0000    1.4283   
    11. B(O  10,C   9)                1.2806 -0.000164  0.0001    1.2807   
    12. B(F  11,C   0)                1.3658 -0.000029  0.0000    1.3659   
    13. A(C   2,C   0,F  11)          119.48 -0.000041    0.00    119.48   
    14. A(C   1,C   0,C   2)          121.14  0.000111   -0.01    121.13   
    15. A(C   1,C   0,F  11)          119.38 -0.000070    0.01    119.39   
    16. A(H   3,C   1,C   5)          120.94  0.000029   -0.00    120.93   
    17. A(C   0,C   1,H   3)          119.68  0.000023   -0.00    119.67   
    18. A(C   0,C   1,C   5)          119.39 -0.000052    0.01    119.40   
    19. A(H   4,C   2,C   6)          120.89 -0.000018    0.00    120.90   
    20. A(C   0,C   2,C   6)          119.39 -0.000023    0.00    119.39   
    21. A(C   0,C   2,H   4)          119.72  0.000042   -0.01    119.71   
    22. A(H   7,C   5,C   9)          117.80 -0.000044    0.01    117.81   
    23. A(C   1,C   5,C   9)          122.74 -0.000015    0.00    122.74   
    24. A(C   1,C   5,H   7)          119.46  0.000059   -0.01    119.45   
    25. A(H   8,C   6,C   9)          117.87  0.000121   -0.02    117.85   
    26. A(C   2,C   6,C   9)          122.73 -0.000043    0.01    122.74   
    27. A(C   2,C   6,H   8)          119.40 -0.000078    0.01    119.41   
    28. A(C   5,C   9,O  10)          122.67 -0.000042    0.01    122.68   
    29. A(C   5,C   9,C   6)          114.61  0.000023   -0.00    114.61   
    30. A(C   6,C   9,O  10)          122.72  0.000019   -0.00    122.71   
    31. D(C   5,C   1,C   0,C   2)      0.00  0.000000   -0.00     -0.00   
    32. D(C   5,C   1,C   0,F  11)    180.00 -0.000000    0.00    180.00   
    33. D(H   3,C   1,C   0,F  11)     -0.00 -0.000000    0.00     -0.00   
    34. D(H   3,C   1,C   0,C   2)    180.00  0.000000   -0.00    180.00   
    35. D(C   6,C   2,C   0,C   1)      0.00 -0.000000    0.00      0.00   
    36. D(H   4,C   2,C   0,C   1)    180.00 -0.000000    0.00    180.00   
    37. D(H   4,C   2,C   0,F  11)      0.00  0.000000   -0.00      0.00   
    38. D(C   6,C   2,C   0,F  11)   -180.00  0.000000   -0.00   -180.00   
    39. D(C   9,C   5,C   1,H   3)   -180.00  0.000000   -0.00   -180.00   
    40. D(C   9,C   5,C   1,C   0)      0.00  0.000000   -0.00     -0.00   
    41. D(H   7,C   5,C   1,H   3)      0.00  0.000000   -0.00      0.00   
    42. D(H   7,C   5,C   1,C   0)    180.00 -0.000000    0.00    180.00   
    43. D(C   9,C   6,C   2,C   0)      0.00 -0.000000    0.00      0.00   
    44. D(H   8,C   6,C   2,H   4)      0.00 -0.000000    0.00      0.00   
    45. D(H   8,C   6,C   2,C   0)    180.00  0.000000    0.00    180.00   
    46. D(C   9,C   6,C   2,H   4)    180.00 -0.000000    0.00    180.00   
    47. D(O  10,C   9,C   6,H   8)     -0.00 -0.000000    0.00      0.00   
    48. D(C   5,C   9,C   6,H   8)    180.00  0.000000   -0.00    180.00   
    49. D(C   5,C   9,C   6,C   2)      0.00  0.000000   -0.00     -0.00   
    50. D(O  10,C   9,C   5,H   7)      0.00  0.000000   -0.00     -0.00   
    51. D(O  10,C   9,C   5,C   1)   -180.00  0.000000   -0.00   -180.00   
[...]
     17      -0.000001   0.308134  -0.000001   0.199751   0.000001   0.000000
     18      -0.029288   0.000000  -0.063614  -0.000000  -0.072968  -0.136879
     19      -0.000002   0.129042   0.000000  -0.131379  -0.000001   0.000004
     20      -0.000001  -0.315134  -0.000002   0.211089   0.000000  -0.000000
     21       0.413179   0.000000  -0.642658  -0.000000  -0.536528   0.476068
     22      -0.000001   0.166155   0.000001   0.010525   0.000000  -0.000003
     23       0.000001   0.273467  -0.000002   0.445231   0.000001   0.000000
     24       0.412361  -0.000001  -0.646113  -0.000015   0.537267   0.468855
     25      -0.000001   0.147670  -0.000001   0.015328   0.000000   0.000004
     26       0.000001  -0.280585  -0.000003   0.442249   0.000001  -0.000001
     27      -0.186675  -0.000000   0.198879   0.000003   0.001351   0.274213
     28      -0.000000   0.087524  -0.000000  -0.004979  -0.000000  -0.000001
     29      -0.000001  -0.002796   0.000002  -0.129857   0.000000  -0.000001
     30       0.066566   0.000000  -0.034226  -0.000001  -0.000371  -0.068587
     31       0.000000   0.151558   0.000000  -0.008460  -0.000000  -0.000000
     32      -0.000003  -0.005619   0.000000  -0.249239  -0.000001  -0.000002
     33       0.012221   0.000000   0.010975  -0.000000  -0.000056  -0.013197
     34      -0.000000  -0.110862   0.000000  -0.010107  -0.000000   0.000000
     35       0.000003   0.001502   0.000003  -0.319449  -0.000001   0.000001
                 18         19         20         21         22         23    
      0      -0.000003  -0.050221  -0.001164   0.000000   0.000000   0.000000
      1      -0.002380  -0.000000  -0.000000   0.001450  -0.032009  -0.000665
      2      -0.072572  -0.000000  -0.000000   0.049241   0.000417  -0.021872
      3       0.000003   0.091851   0.088861  -0.000000  -0.000000  -0.000000
      4      -0.239897   0.000001  -0.000000   0.208021   0.025416   0.035942
      5       0.129775  -0.000000  -0.000000  -0.050465  -0.048646   0.024126
      6       0.000002   0.096199  -0.084328  -0.000001  -0.000000  -0.000000
      7       0.248675  -0.000001   0.000000  -0.210921   0.030238  -0.033579
      8       0.113391   0.000000   0.000000  -0.036068   0.045846   0.027111
      9      -0.000015  -0.562574  -0.539620   0.000003   0.000001   0.000000
     10      -0.056709   0.000002   0.000000   0.359227  -0.228728   0.306396
     11       0.436678  -0.000001  -0.000001   0.182755  -0.458950   0.447459
     12      -0.000009  -0.588584   0.511382   0.000004   0.000001   0.000000
     13       0.087245  -0.000001   0.000001  -0.346716  -0.191415  -0.279128
     14       0.432263   0.000001  -0.000001   0.209154   0.466448   0.477844
     15       0.000004  -0.067662  -0.078804   0.000000   0.000000  -0.000000
     16      -0.309978   0.000000   0.000000  -0.157130   0.041038   0.021774
     17       0.009191   0.000000  -0.000000  -0.012514   0.051022  -0.033602
     18       0.000003  -0.071689   0.075353   0.000000   0.000000   0.000000
     19       0.308955   0.000001  -0.000000   0.156388   0.036956  -0.023664
     20      -0.012024  -0.000000   0.000000  -0.023264  -0.053328  -0.033475
     21      -0.000015   0.379133   0.467983  -0.000001  -0.000001   0.000000
     22      -0.319759  -0.000001   0.000000  -0.356479  -0.164695   0.206587
     23      -0.000081   0.000002  -0.000000   0.372911   0.457311  -0.389402
     24      -0.000013   0.402897  -0.448768  -0.000003  -0.000001  -0.000000
     25       0.318258   0.000001  -0.000001   0.379216  -0.191557  -0.233573
     26      -0.021554   0.000000  -0.000001   0.343561  -0.436983  -0.377835
     27      -0.000007   0.029160   0.000692  -0.000000  -0.000000  -0.000000
     28      -0.004136  -0.000001  -0.000000  -0.000787  -0.056939  -0.000330
     29      -0.105963   0.000001  -0.000000  -0.016013   0.002028   0.011579
     30       0.000002  -0.010521  -0.000229   0.000000   0.000000   0.000000
     31      -0.006633   0.000000   0.000000   0.001045   0.010926  -0.000235
     32      -0.205587  -0.000000   0.000000   0.028178   0.000033  -0.010408
     33       0.000000   0.010973   0.000286  -0.000000  -0.000000  -0.000000
     34       0.003262   0.000000   0.000000  -0.000868   0.003733   0.000513
     35       0.089107   0.000000  -0.000000  -0.026219   0.000179   0.016900
                 24         25         26         27         28         29    
      0      -0.000000   0.000000  -0.000000   0.000002   0.000000   0.000001
      1       0.013194   0.022639  -0.239913  -0.005896   0.081809   0.006376
      2       0.378895   0.000196   0.009416  -0.135384  -0.001613   0.168426
      3       0.000000  -0.000000  -0.000000  -0.000001   0.000000  -0.000001
      4       0.021221  -0.057943   0.041365   0.112531   0.022104  -0.109851
      5       0.066991  -0.073305   0.019151  -0.066244   0.259809  -0.095390
      6      -0.000000   0.000000  -0.000000  -0.000001   0.000000  -0.000001
      7      -0.015910  -0.052598   0.040859  -0.116213   0.005221   0.102392
      8       0.068651   0.077628  -0.021260  -0.057334  -0.261667  -0.100592
      9      -0.000001  -0.000001   0.000002   0.000002  -0.000002   0.000000
     10      -0.215367   0.173635   0.315356  -0.064860  -0.355705   0.163532
     11      -0.270413   0.299347   0.441108  -0.389891  -0.296389   0.360117
     12      -0.000000  -0.000001   0.000000   0.000000  -0.000000  -0.000000
     13       0.191255   0.151376   0.282629   0.041312  -0.335287  -0.136281
     14      -0.274044  -0.307731  -0.456463  -0.397683   0.323872   0.368561
     15      -0.000000  -0.000000   0.000000  -0.000000  -0.000000  -0.000000
     16      -0.103577  -0.063185   0.119334  -0.086943  -0.025937   0.078850
     17      -0.067525   0.013619  -0.104821   0.175092  -0.250276  -0.105592
     18      -0.000000  -0.000000   0.000000   0.000001  -0.000001   0.000001
     19       0.098930  -0.063708   0.125556   0.099169  -0.009192  -0.086270
     20      -0.076483  -0.010718   0.094661   0.168614   0.251069  -0.102173
     21       0.000000   0.000000  -0.000001   0.000003   0.000000   0.000002
     22       0.117813  -0.310550  -0.113239   0.219936  -0.298505  -0.182033
     23      -0.516470   0.481874   0.360585  -0.380233   0.227718   0.438802
     24       0.000001   0.000001  -0.000000  -0.000003   0.000001  -0.000001
     25      -0.150807  -0.344662  -0.139090  -0.248156  -0.313488   0.215985
     26      -0.506329  -0.464473  -0.355019  -0.369706  -0.206068   0.430543
     27       0.000000   0.000000  -0.000001  -0.000000   0.000001  -0.000000
     28      -0.000171   0.268786  -0.132421   0.010095   0.122508   0.010341
     29       0.028547  -0.008914   0.004458   0.310038  -0.002280   0.325304
     30      -0.000000  -0.000000   0.000000   0.000000  -0.000000   0.000000
     31      -0.000432  -0.026657  -0.002232  -0.008474  -0.038375  -0.004399
     32      -0.019644   0.001060   0.000318  -0.255861   0.000024  -0.139675
     33       0.000000   0.000000  -0.000000  -0.000000   0.000000  -0.000000
     34      -0.005259   0.005835   0.012129   0.001827  -0.022789  -0.000705
     35      -0.152607  -0.000427  -0.000763   0.047458   0.000507  -0.024051
                 30         31         32         33         34         35    
      0       0.000000  -0.000001   0.000000  -0.000000  -0.000000   0.000000
      1       0.485270   0.011205  -0.000084  -0.000028   0.004494  -0.000000
      2      -0.018513   0.238524  -0.001470   0.000809   0.000037   0.005065
      3      -0.000000   0.000001   0.000000   0.000000  -0.000000  -0.000000
      4      -0.279306  -0.135046   0.029761   0.005524  -0.050124  -0.045169
      5      -0.083092  -0.324043  -0.015483  -0.003319   0.032652   0.028443
      6       0.000000   0.000000  -0.000000   0.000000  -0.000000  -0.000000
      7      -0.274795   0.108859  -0.011322   0.028968  -0.048595   0.050951
      8       0.107266  -0.330449  -0.004540   0.012805  -0.027103   0.027414
      9      -0.000000  -0.000001  -0.000000   0.000000   0.000001   0.000000
     10      -0.058745   0.266929  -0.343527  -0.066746   0.570954   0.510970
     11       0.317441   0.324410   0.214096   0.041544  -0.362940  -0.323751
     12       0.000000   0.000000  -0.000000   0.000000  -0.000000   0.000000
     13      -0.076774  -0.243804   0.129246  -0.338114   0.553164  -0.576826
     14      -0.318679   0.337592   0.068614  -0.179374   0.299966  -0.311702
     15       0.000000   0.000000  -0.000000   0.000000   0.000000  -0.000000
     16       0.178471  -0.024300  -0.066042  -0.020465  -0.021281  -0.023660
     17      -0.118126   0.290784  -0.033488  -0.010760  -0.013678  -0.013929
     18      -0.000000  -0.000000   0.000000   0.000000   0.000000  -0.000000
     19       0.185929   0.046703   0.017035  -0.064462  -0.018329   0.024028
     20       0.101812   0.289594  -0.009838   0.038682   0.013762  -0.016557
     21       0.000000  -0.000002   0.000000   0.000000   0.000000   0.000000
     22      -0.047731   0.210798   0.771010   0.234959   0.244342   0.269529
     23       0.324581  -0.144759   0.397245   0.122608   0.128283   0.140237
     24       0.000000   0.000002   0.000000  -0.000000  -0.000000   0.000000
     25      -0.068482  -0.221643  -0.201815   0.750242   0.212468  -0.275251
     26      -0.322215  -0.135562   0.120803  -0.454955  -0.130962   0.168214
     27       0.000000   0.000000  -0.000000  -0.000000  -0.000000  -0.000000
     28      -0.269774  -0.008687   0.000900   0.001881   0.001821  -0.000171
     29       0.010374  -0.205228  -0.003083   0.001636  -0.000187  -0.002958
     30      -0.000000  -0.000000  -0.000000  -0.000000   0.000000   0.000000
     31       0.020033   0.001432  -0.000005  -0.000047  -0.000183   0.000041
     32      -0.000953   0.040906   0.000440  -0.000251   0.000042   0.000918
     33      -0.000000   0.000000  -0.000000  -0.000000  -0.000000  -0.000000
     34      -0.019822  -0.001057  -0.000017  -0.000037  -0.000265  -0.000016
     35       0.000919  -0.028893   0.000072  -0.000038  -0.000019  -0.000795


-----------
IR SPECTRUM
-----------

 Mode   freq       eps      Int      T**2         TX        TY        TZ
       cm**-1   L/(mol*cm) km/mol    a.u.
----------------------------------------------------------------------------
  6:    141.43   0.001474    7.45  0.003252  (-0.057029  0.000004  0.000003)
  7:    343.01   0.000247    1.25  0.000224  (-0.014979  0.000002  0.000004)
  8:    356.36   0.001571    7.94  0.001376  (-0.000000 -0.037085  0.000588)
  9:    437.29   0.000000    0.00  0.000000  ( 0.000282  0.000003 -0.000001)
 10:    464.54   0.000083    0.42  0.000055  (-0.000001  0.000207  0.007442)
 11:    465.83   0.000139    0.70  0.000093  (-0.000000 -0.009639 -0.000377)
 12:    507.65   0.008415   42.53  0.005173  ( 0.071925 -0.000003 -0.000002)
 13:    644.98   0.000020    0.10  0.000010  (-0.000000  0.003065  0.000332)
 14:    716.91   0.001520    7.68  0.000662  (-0.025720  0.000002 -0.000005)
 15:    764.20   0.035717  180.50  0.014585  ( 0.000000  0.003826  0.120708)
 16:    792.26   0.000000    0.00  0.000000  ( 0.000413  0.000001 -0.000003)
 17:    847.38   0.024392  123.27  0.008983  ( 0.094778  0.000002  0.000000)
 18:    853.79   0.002499   12.63  0.000913  (-0.000002 -0.001129 -0.030201)
 19:    927.30   0.000445    2.25  0.000150  (-0.012239  0.000003 -0.000003)
 20:    941.05   0.000000    0.00  0.000000  (-0.000394  0.000000  0.000001)
 21:   1002.28   0.000334    1.69  0.000104  ( 0.000000 -0.000089 -0.010193)
 22:   1089.36   0.009890   49.98  0.002833  ( 0.000000 -0.053209  0.001353)
 23:   1144.47   0.002979   15.05  0.000812  ( 0.000000  0.000407  0.028498)
 24:   1215.48   0.041561  210.03  0.010670  ( 0.000000  0.002931  0.103256)
 25:   1265.38   0.002338   11.81  0.000576  ( 0.000000 -0.023954  0.001641)
 26:   1305.56   0.004950   25.02  0.001183  (-0.000000  0.034393 -0.000588)
 27:   1392.95   0.035201  177.89  0.007886  (-0.000000  0.002680  0.088764)
 28:   1446.18   0.009004   45.50  0.001943  ( 0.000000  0.044080  0.000062)
 29:   1528.17   0.203687  1029.35  0.041594  (-0.000000  0.006915  0.203830)
 30:   1605.71   0.002862   14.46  0.000556  (-0.000000 -0.023556  0.001121)
 31:   1647.52   0.015415   77.90  0.002920  ( 0.000000 -0.002121 -0.053993)
 32:   3166.43   0.008813   44.54  0.000869  ( 0.000000 -0.010643 -0.027482)
 33:   3166.49   0.005661   28.61  0.000558  (-0.000000 -0.017303  0.016077)
 34:   3188.70   0.005687   28.74  0.000557  (-0.000000 -0.023568  0.001078)
 35:   3190.57   0.000513    2.59  0.000050  (-0.000000  0.001139  0.006990)

* The epsilon (eps) is given for a Dirac delta lineshape.
** The dipole moment derivative (T) already includes vibrational overlap.

The first frequency considered to be a vibration is 6
The total number of vibrations considered is 30


--------------------------
THERMOCHEMISTRY AT 298.15K
--------------------------

Temperature         ... 298.15 K
Pressure            ... 1.00 atm
Total Mass          ... 111.09 AMU

Throughout the following assumptions are being made:
  (1) The electronic state is orbitally nondegenerate
  (2) There are no thermally accessible electronically excited states
  (3) Hindered rotations indicated by low frequency modes are not
      treated as such but are treated as vibrations and this may
      cause some error
  (4) All equations used are the standard statistical mechanics
      equations for an ideal gas
  (5) All vibrations are strictly harmonic

freq.     141.43  E(vib)   ...       0.41 
freq.     343.01  E(vib)   ...       0.23 
freq.     356.36  E(vib)   ...       0.22 
freq.     437.29  E(vib)   ...       0.17 
freq.     464.54  E(vib)   ...       0.16 
freq.     465.83  E(vib)   ...       0.16 
freq.     507.65  E(vib)   ...       0.14 
freq.     644.98  E(vib)   ...       0.09 
freq.     716.91  E(vib)   ...       0.07 
freq.     764.20  E(vib)   ...       0.06 
freq.     792.26  E(vib)   ...       0.05 
freq.     847.38  E(vib)   ...       0.04 
freq.     853.79  E(vib)   ...       0.04 
freq.     927.30  E(vib)   ...       0.03 
freq.     941.05  E(vib)   ...       0.03 
freq.    1002.28  E(vib)   ...       0.02 
freq.    1089.36  E(vib)   ...       0.02 
freq.    1144.47  E(vib)   ...       0.01 
freq.    1215.48  E(vib)   ...       0.01 
freq.    1265.38  E(vib)   ...       0.01 
freq.    1305.56  E(vib)   ...       0.01 
freq.    1392.95  E(vib)   ...       0.00 
freq.    1446.18  E(vib)   ...       0.00 
freq.    1528.17  E(vib)   ...       0.00 
freq.    1605.71  E(vib)   ...       0.00 
freq.    1647.52  E(vib)   ...       0.00 
freq.    3166.43  E(vib)   ...       0.00 
freq.    3166.49  E(vib)   ...       0.00 
freq.    3188.70  E(vib)   ...       0.00 
freq.    3190.57  E(vib)   ...       0.00 

------------
INNER ENERGY
------------

The inner energy is: U= E(el) + E(ZPE) + E(vib) + E(rot) + E(trans)
    E(el)   - is the total energy from the electronic structure calculation
              = E(kin-el) + E(nuc-el) + E(el-el) + E(nuc-nuc)
    E(ZPE)  - the the zero temperature vibrational energy from the frequency calculation
    E(vib)  - the the finite temperature correction to E(ZPE) due to population
              of excited vibrational states
    E(rot)  - is the rotational thermal energy
    E(trans)- is the translational thermal energy

Summary of contributions to the inner energy U:
Electronic energy                ...   -405.95411980 Eh
Zero point energy                ...      0.08328805 Eh      52.26 kcal/mol
Thermal vibrational correction   ...      0.00316242 Eh       1.98 kcal/mol
Thermal rotational correction    ...      0.00141627 Eh       0.89 kcal/mol
Thermal translational correction ...      0.00141627 Eh       0.89 kcal/mol
-----------------------------------------------------------------------
Total thermal energy                   -405.86483678 Eh


Summary of corrections to the electronic energy:
(perhaps to be used in another calculation)
Total thermal correction                  0.00599496 Eh       3.76 kcal/mol
Non-thermal (ZPE) correction              0.08328805 Eh      52.26 kcal/mol
-----------------------------------------------------------------------
Total correction                          0.08928301 Eh      56.03 kcal/mol


--------
ENTHALPY
--------

The enthalpy is H = U + kB*T
                kB is Boltzmann's constant
Total free energy                 ...   -405.86483678 Eh 
Thermal Enthalpy correction       ...      0.00094421 Eh       0.59 kcal/mol
-----------------------------------------------------------------------
Total Enthalpy                    ...   -405.86389257 Eh


Note: Rotational entropy computed according to Herzberg 
Infrared and Raman Spectra, Chapter V,1, Van Nostrand Reinhold, 1945 
Point Group:  Cs, Symmetry Number:   1  
Rotational constants in cm-1:     0.191679     0.049546     0.039370 

Vibrational entropy computed according to the QRRHO of S. Grimme
Chem.Eur.J. 2012 18 9955


-------
ENTROPY
-------

The entropy contributions are T*S = T*(S(el)+S(vib)+S(rot)+S(trans))
     S(el)   - electronic entropy
     S(vib)  - vibrational entropy
     S(rot)  - rotational entropy
     S(trans)- translational entropy
The entropies will be listed as multiplied by the temperature to get
units of energy

Electronic entropy                ...      0.00000000 Eh      0.00 kcal/mol
Vibrational entropy               ...      0.00480846 Eh      3.02 kcal/mol
Rotational entropy                ...      0.01323634 Eh      8.31 kcal/mol
Translational entropy             ...      0.01902026 Eh     11.94 kcal/mol
-----------------------------------------------------------------------
Final entropy term                ...      0.03706505 Eh     23.26 kcal/mol

In case the symmetry of your molecule has not been determined correctly
or in case you have a reason to use a different symmetry number we print 
out the resulting rotational entropy values for sn=1,12 :
 --------------------------------------------------------
|  sn= 1 | S(rot)=       0.01323634 Eh      8.31 kcal/mol|
|  sn= 2 | S(rot)=       0.01258188 Eh      7.90 kcal/mol|
|  sn= 3 | S(rot)=       0.01219905 Eh      7.66 kcal/mol|
|  sn= 4 | S(rot)=       0.01192742 Eh      7.48 kcal/mol|
|  sn= 5 | S(rot)=       0.01171674 Eh      7.35 kcal/mol|
|  sn= 6 | S(rot)=       0.01154459 Eh      7.24 kcal/mol|
|  sn= 7 | S(rot)=       0.01139904 Eh      7.15 kcal/mol|
|  sn= 8 | S(rot)=       0.01127297 Eh      7.07 kcal/mol|
|  sn= 9 | S(rot)=       0.01116176 Eh      7.00 kcal/mol|
|  sn=10 | S(rot)=       0.01106228 Eh      6.94 kcal/mol|
|  sn=11 | S(rot)=       0.01097229 Eh      6.89 kcal/mol|
|  sn=12 | S(rot)=       0.01089013 Eh      6.83 kcal/mol|
 --------------------------------------------------------


-------------------
GIBBS FREE ENERGY
-------------------

The Gibbs free energy is G = H - T*S

Total enthalpy                    ...   -405.86389257 Eh 
Total entropy correction          ...     -0.03706505 Eh    -23.26 kcal/mol
-----------------------------------------------------------------------
Final Gibbs free energy         ...   -405.90095762 Eh

For completeness - the Gibbs free energy minus the electronic energy
G-E(el)                           ...      0.05316217 Eh     33.36 kcal/mol


Timings for individual modules:

Sum of individual times         ...      153.133 sec (=   2.552 min)
GTO integral calculation        ...        3.070 sec (=   0.051 min)   2.0 %
SCF iterations                  ...       29.764 sec (=   0.496 min)  19.4 %
SCF Gradient evaluation         ...        4.184 sec (=   0.070 min)   2.7 %
Geometry relaxation             ...        0.137 sec (=   0.002 min)   0.1 %
Analytical frequency calculation...      115.978 sec (=   1.933 min)  75.7 %
                             ****ORCA TERMINATED NORMALLY****
TOTAL RUN TIME: 0 days 0 hours 2 minutes 36 seconds 668 msec
