
                                 *****************
                                 * O   R   C   A *
                                 *****************

                                            #,                                       
                                            ###                                      
                                            ####                                     
                                            #####                                    
                                            ######                                   
                                           ########,                                 
                                     ,,################,,,,,                         
                               ,,#################################,,                 
                          ,,##########################################,,             
                       ,#########################################, ''#####,          
                    ,#############################################,,   '####,        
                  ,##################################################,,,,####,       
                ,###########''''           ''''###############################       
              ,#####''   ,,,,##########,,,,          '''####'''          '####       
            ,##' ,,,,###########################,,,                        '##       
           ' ,,###''''                  '''############,,,                           
         ,,##''                                '''############,,,,        ,,,,,,###''
      ,#''                                            '''#######################'''  
     '                                                          ''''####''''         
             ,#######,   #######,   ,#######,      ##                                
            ,#'     '#,  ##    ##  ,#'     '#,    #''#        ######   ,####,        
            ##       ##  ##   ,#'  ##            #'  '#       #        #'  '#        
            ##       ##  #######   ##           ,######,      #####,   #    #        
            '#,     ,#'  ##    ##  '#,     ,#' ,#      #,         ##   #,  ,#        
             '#######'   ##     ##  '#######'  #'      '#     #####' # '####'        



                  #######################################################
                  #                        -***-                        #
                  #          Department of theory and spectroscopy      #
                  #    Directorship and core code : Frank Neese         #
                  #        Max Planck Institute fuer Kohlenforschung    #
                  #                Kaiser Wilhelm Platz 1               #
                  #                 D-45470 Muelheim/Ruhr               #
                  #                      Germany                        #
                  #                                                     #
                  #                  All rights reserved                #
                  #                        -***-                        #
                  #######################################################


                         Program Version 5.0.4 -  RELEASE  -


 With contributions from (in alphabetic order):
   Daniel Aravena         : Magnetic Suceptibility
   Michael Atanasov       : Ab Initio Ligand Field Theory (pilot matlab implementation)
   Alexander A. Auer      : GIAO ZORA, VPT2 properties, NMR spectrum
   Ute Becker             : Parallelization
   Giovanni Bistoni       : ED, misc. LED, open-shell LED, HFLD
   Martin Brehm           : Molecular dynamics
   Dmytro Bykov           : SCF Hessian
   Vijay G. Chilkuri      : MRCI spin determinant printing, contributions to CSF-ICE
   Dipayan Datta          : RHF DLPNO-CCSD density
   Achintya Kumar Dutta   : EOM-CC, STEOM-CC
   Dmitry Ganyushin       : Spin-Orbit,Spin-Spin,Magnetic field MRCI
   Miquel Garcia          : C-PCM and meta-GGA Hessian, CC/C-PCM, Gaussian charge scheme
   Yang Guo               : DLPNO-NEVPT2, F12-NEVPT2, CIM, IAO-localization
   Andreas Hansen         : Spin unrestricted coupled pair/coupled cluster methods
   Benjamin Helmich-Paris : MC-RPA, TRAH-SCF, COSX integrals
   Lee Huntington         : MR-EOM, pCC
   Robert Izsak           : Overlap fitted RIJCOSX, COSX-SCS-MP3, EOM
   Marcus Kettner         : VPT2
   Christian Kollmar      : KDIIS, OOCD, Brueckner-CCSD(T), CCSD density, CASPT2, CASPT2-K
   Simone Kossmann        : Meta GGA functionals, TD-DFT gradient, OOMP2, MP2 Hessian
   Martin Krupicka        : Initial AUTO-CI
   Lucas Lang             : DCDCAS
   Marvin Lechner         : AUTO-CI (C++ implementation), FIC-MRCC
   Dagmar Lenk            : GEPOL surface, SMD
   Dimitrios Liakos       : Extrapolation schemes; Compound Job, initial MDCI parallelization
   Dimitrios Manganas     : Further ROCIS development; embedding schemes
   Dimitrios Pantazis     : SARC Basis sets
   Anastasios Papadopoulos: AUTO-CI, single reference methods and gradients
   Taras Petrenko         : DFT Hessian,TD-DFT gradient, ASA, ECA, R-Raman, ABS, FL, XAS/XES, NRVS
   Peter Pinski           : DLPNO-MP2, DLPNO-MP2 Gradient
   Christoph Reimann      : Effective Core Potentials
   Marius Retegan         : Local ZFS, SOC
   Christoph Riplinger    : Optimizer, TS searches, QM/MM, DLPNO-CCSD(T), (RO)-DLPNO pert. Triples
   Tobias Risthaus        : Range-separated hybrids, TD-DFT gradient, RPA, STAB
   Michael Roemelt        : Original ROCIS implementation
   Masaaki Saitow         : Open-shell DLPNO-CCSD energy and density
   Barbara Sandhoefer     : DKH picture change effects
   Avijit Sen             : IP-ROCIS
   Kantharuban Sivalingam : CASSCF convergence, NEVPT2, FIC-MRCI
   Bernardo de Souza      : ESD, SOC TD-DFT
   Georgi Stoychev        : AutoAux, RI-MP2 NMR, DLPNO-MP2 response
   Willem Van den Heuvel  : Paramagnetic NMR
   Boris Wezisla          : Elementary symmetry handling
   Frank Wennmohs         : Technical directorship


 We gratefully acknowledge several colleagues who have allowed us to
 interface, adapt or use parts of their codes:
   Stefan Grimme, W. Hujo, H. Kruse, P. Pracht,  : VdW corrections, initial TS optimization,
                  C. Bannwarth, S. Ehlert          DFT functionals, gCP, sTDA/sTD-DF
   Ed Valeev, F. Pavosevic, A. Kumar             : LibInt (2-el integral package), F12 methods
   Garnet Chan, S. Sharma, J. Yang, R. Olivares  : DMRG
   Ulf Ekstrom                                   : XCFun DFT Library
   Mihaly Kallay                                 : mrcc  (arbitrary order and MRCC methods)
   Jiri Pittner, Ondrej Demel                    : Mk-CCSD
   Frank Weinhold                                : gennbo (NPA and NBO analysis)
   Christopher J. Cramer and Donald G. Truhlar   : smd solvation model
   Lars Goerigk                                  : TD-DFT with DH, B97 family of functionals
   V. Asgeirsson, H. Jonsson                     : NEB implementation
   FAccTs GmbH                                   : IRC, NEB, NEB-TS, DLPNO-Multilevel, CI-OPT
                                                   MM, QMMM, 2- and 3-layer-ONIOM, Crystal-QMMM,
                                                   LR-CPCM, SF, NACMEs, symmetry and pop. for TD-DFT,
                                                   nearIR, NL-DFT gradient (VV10), updates on ESD,
                                                   ML-optimized integration grids
   S Lehtola, MJT Oliveira, MAL Marques          : LibXC Library
   Liviu Ungur et al                             : ANISO software


 Your calculation uses the libint2 library for the computation of 2-el integrals
 For citations please refer to: http://libint.valeyev.net

 Your ORCA version has been built with support for libXC version: 5.1.0
 For citations please refer to: https://tddft.org/programs/libxc/

 This ORCA versions uses:
   CBLAS   interface :  Fast vector & matrix operations
   LAPACKE interface :  Fast linear algebra routines
   SCALAPACK package :  Parallel linear algebra routines
   Shared memory     :  Shared parallel matrices
   BLAS/LAPACK       :  OpenBLAS 0.3.15  USE64BITINT DYNAMIC_ARCH NO_AFFINITY Haswell SINGLE_THREADED
        Core in use  :  Haswell
   Copyright (c) 2011-2014, The OpenBLAS Project


Your calculation utilizes the atom-pairwise dispersion correction
with the Becke-Johnson damping scheme (D3BJ)
Cite in your paper:
S.Grimme, S.Ehrlich, L.Goerigk, J Comput Chem, (2011), 32, 1456–1465 
S.Grimme, J.Antony, S.Ehrlich and H.Krieg, J.Chem.Phys., 132, (2010), 154104 
   

================================================================================

----- Orbital basis set information -----
Your calculation utilizes the basis: def2-TZVP
   F. Weigend and R. Ahlrichs, Phys. Chem. Chem. Phys. 7, 3297 (2005).

----- AuxJ basis set information -----
Your calculation utilizes the auxiliary basis: def2/J
   F. Weigend, Phys. Chem. Chem. Phys. 8, 1057 (2006).

================================================================================
                                        WARNINGS
                       Please study these warnings very carefully!
================================================================================


WARNING: Geometry Optimization
  ===> : Switching off AutoStart
         For restart on a previous wavefunction, please use MOREAD

INFO   : the flag for use of the SHARK integral package has been found!

================================================================================
                                       INPUT FILE
================================================================================
NAME = F-PhenOH/F-PhenOH.inp
|  1> %pal nprocs 24 end
|  2> %maxcore 3500
|  3> ! PBE0 D3BJ def2-TZVP TightSCF OPT FREQ TightOpt
|  4> ! CPCM(dmso)
|  5> %scf
|  6> MaxIter 800
|  7> end
|  8> %geom
|  9> MaxIter 800
| 10> MaxStep 0.2
| 11> end
| 12> *xyz 0 1
| 13> 
| 14> C      -0.00000000     -0.54506500     -1.52726800
| 15> C      -0.00000000      0.68688900     -0.90706100
| 16> C      -0.00000000     -1.72460700     -0.80971400
| 17> H       0.00000000      1.59457700     -1.49849500
| 18> H       0.00000000     -2.67616200     -1.32777000
| 19> C       0.00000000      0.73840400      0.47933400
| 20> C      -0.00000000     -1.66768700      0.57544100
| 21> H       0.00000000      1.69770400      0.98657800
| 22> H      -0.00000000     -2.57937400      1.16124100
| 23> C       0.00000000     -0.43672200      1.22340300
| 24> O       0.00000000     -0.43693500      2.58014300
| 25> H      -0.00000000      0.47075100      2.90506700
| 26> F       0.00000000     -0.59813100     -2.87601300
| 27> *
| 28> 
| 29>                          ****END OF INPUT****
================================================================================

                       *****************************
                       * Geometry Optimization Run *
                       *****************************

Geometry optimization settings:
Update method            Update   .... BFGS
Choice of coordinates    CoordSys .... Z-matrix Internals
Initial Hessian          InHess   .... Almoef's Model

Convergence Tolerances:
Energy Change            TolE     ....  1.0000e-06 Eh
Max. Gradient            TolMAXG  ....  1.0000e-04 Eh/bohr
RMS Gradient             TolRMSG  ....  3.0000e-05 Eh/bohr
Max. Displacement        TolMAXD  ....  1.0000e-03 bohr
RMS Displacement         TolRMSD  ....  6.0000e-04 bohr
Strict Convergence                ....  False
------------------------------------------------------------------------------
                        ORCA OPTIMIZATION COORDINATE SETUP
------------------------------------------------------------------------------

The optimization will be done in new redundant internal coordinates
Making redundant internal coordinates   ...  (new redundants) done
Evaluating the initial hessian          ...  (Almloef) done
Evaluating the coordinates              ...  done
Calculating the B-matrix                .... done
Calculating the G-matrix                .... done
Diagonalizing the G-matrix              .... done
The first mode is                       ....   25
The number of degrees of freedom        ....   33

    -----------------------------------------------------------------
                    Redundant Internal Coordinates


    -----------------------------------------------------------------
         Definition                    Initial Value    Approx d2E/dq
    -----------------------------------------------------------------
      1. B(C   1,C   0)                  1.3793         0.649932   
      2. B(C   2,C   0)                  1.3807         0.646623   
      3. B(H   3,C   1)                  1.0834         0.368978   
      4. B(H   4,C   2)                  1.0834         0.368886   
      5. B(C   5,C   1)                  1.3874         0.630905   
      6. B(C   6,C   2)                  1.3863         0.633291   
      7. B(H   7,C   5)                  1.0852         0.366572   
      8. B(H   8,C   6)                  1.0837         0.368576   
      9. B(C   9,C   6)                  1.3911         0.622301   
     10. B(C   9,C   5)                  1.3909         0.622769   
     11. B(O  10,C   9)                  1.3567         0.632324   
     12. B(H  11,O  10)                  0.9641         0.512202   
     13. B(F  12,C   0)                  1.3498         0.602728   
     14. A(C   1,C   0,F  12)          118.9753         0.430774   
     15. A(C   2,C   0,F  12)          119.0604         0.430379   
     16. A(C   1,C   0,C   2)          121.9643         0.441103   
     17. A(H   3,C   1,C   5)          120.9596         0.355417   
     18. A(C   0,C   1,C   5)          118.8502         0.439147   
     19. A(C   0,C   1,H   3)          120.1902         0.357215   
     20. A(H   4,C   2,C   6)          120.9184         0.355630   
     21. A(C   0,C   2,C   6)          118.9604         0.439042   
     22. A(C   0,C   2,H   4)          120.1212         0.356890   
     23. A(H   7,C   5,C   9)          119.7904         0.354243   
     24. A(C   1,C   5,C   9)          120.2133         0.435780   
     25. A(C   1,C   5,H   7)          119.9963         0.355023   
     26. A(H   8,C   6,C   9)          119.5158         0.354525   
     27. A(C   2,C   6,C   9)          120.1148         0.436017   
     28. A(C   2,C   6,H   8)          120.3694         0.355579   
     29. A(C   5,C   9,O  10)          122.3503         0.433102   
     30. A(C   5,C   9,C   6)          119.8971         0.434704   
     31. A(C   6,C   9,O  10)          117.7527         0.433043   
     32. A(C   9,O  10,H  11)          109.6868         0.370413   
     33. D(C   5,C   1,C   0,C   2)      0.0000         0.029411   
     34. D(C   5,C   1,C   0,F  12)    180.0000         0.029411   
     35. D(H   3,C   1,C   0,F  12)      0.0000         0.029411   
     36. D(H   3,C   1,C   0,C   2)    180.0000         0.029411   
     37. D(C   6,C   2,C   0,C   1)      0.0000         0.029091   
     38. D(H   4,C   2,C   0,C   1)    180.0000         0.029091   
     39. D(H   4,C   2,C   0,F  12)      0.0000         0.029091   
     40. D(C   6,C   2,C   0,F  12)    180.0000         0.029091   
     41. D(C   9,C   5,C   1,H   3)    180.0000         0.027603   
     42. D(C   9,C   5,C   1,C   0)      0.0000         0.027603   
     43. D(H   7,C   5,C   1,H   3)      0.0000         0.027603   
     44. D(H   7,C   5,C   1,C   0)    180.0000         0.027603   
     45. D(C   9,C   6,C   2,C   0)      0.0000         0.027826   
     46. D(H   8,C   6,C   2,H   4)      0.0000         0.027826   
     47. D(H   8,C   6,C   2,C   0)    180.0000         0.027826   
     48. D(C   9,C   6,C   2,H   4)    180.0000         0.027826   
     49. D(O  10,C   9,C   6,H   8)      0.0000         0.026809   
     50. D(C   5,C   9,C   6,H   8)    180.0000         0.026809   
     51. D(C   5,C   9,C   6,C   2)      0.0000         0.026809   
     52. D(O  10,C   9,C   5,H   7)      0.0000         0.026852   
     53. D(O  10,C   9,C   5,C   1)    180.0000         0.026852   
     54. D(O  10,C   9,C   6,C   2)    180.0000         0.026809   
     55. D(C   6,C   9,C   5,H   7)    180.0000         0.026852   
     56. D(C   6,C   9,C   5,C   1)      0.0000         0.026852   
     57. D(H  11,O  10,C   9,C   6)    180.0000         0.029421   
     58. D(H  11,O  10,C   9,C   5)      0.0000         0.029421   
    -----------------------------------------------------------------

Number of atoms                         .... 13
Number of degrees of freedom            .... 58

         *************************************************************
         *                GEOMETRY OPTIMIZATION CYCLE   1            *
         *************************************************************
---------------------------------
CARTESIAN COORDINATES (ANGSTROEM)
---------------------------------
  C     -0.000000   -0.545065   -1.527268
  C     -0.000000    0.686889   -0.907061
  C     -0.000000   -1.724607   -0.809714
  H      0.000000    1.594577   -1.498495
  H      0.000000   -2.676162   -1.327770
  C      0.000000    0.738404    0.479334
  C     -0.000000   -1.667687    0.575441
  H      0.000000    1.697704    0.986578
  H     -0.000000   -2.579374    1.161241
  C      0.000000   -0.436722    1.223403
  O      0.000000   -0.436935    2.580143
  H     -0.000000    0.470751    2.905067
  F      0.000000   -0.598131   -2.876013

----------------------------
CARTESIAN COORDINATES (A.U.)
----------------------------
  NO LB      ZA    FRAG     MASS         X           Y           Z
   0 C     6.0000    0    12.011   -0.000000   -1.030024   -2.886118
   1 C     6.0000    0    12.011   -0.000000    1.298032   -1.714097
   2 C     6.0000    0    12.011   -0.000000   -3.259035   -1.530138
   3 H     1.0000    0     1.008    0.000000    3.013314   -2.831745
   4 H     1.0000    0     1.008    0.000000   -5.057213   -2.509122
   5 C     6.0000    0    12.011    0.000000    1.395381    0.905810
   6 C     6.0000    0    12.011   -0.000000   -3.151472    1.087426
   7 H     1.0000    0     1.008    0.000000    3.208196    1.864362
   8 H     1.0000    0     1.008   -0.000000   -4.874310    2.194427
   9 C     6.0000    0    12.011    0.000000   -0.825285    2.311897
  10 O     8.0000    0    15.999    0.000000   -0.825687    4.875764
  11 H     1.0000    0     1.008   -0.000000    0.889590    5.489781
  12 F     9.0000    0    18.998    0.000000   -1.130304   -5.434877

--------------------------------
INTERNAL COORDINATES (ANGSTROEM)
--------------------------------
 C      0   0   0     0.000000000000     0.00000000     0.00000000
 C      1   0   0     1.379263347213     0.00000000     0.00000000
 C      1   2   0     1.380653132644   121.96426397     0.00000000
 H      2   1   3     1.083370519121   120.19020306   180.00000085
 H      3   1   2     1.083438478715   120.12124140   180.00000000
 C      2   1   3     1.387351754693   118.85020825     0.00000000
 C      3   1   2     1.386324009900   118.96039353     0.00000000
 H      6   2   1     1.085151125667   119.99629659   180.00000000
 H      7   3   1     1.083667304097   120.36944883   180.00000000
 C      6   2   1     1.390884536055   120.21327735     0.00000000
 O     10   6   2     1.356740016720   122.35026252   180.00000000
 H     11  10   6     0.964089975247   109.68682868     0.00000000
 F      1   2   3     1.349788529875   118.97534267   180.00000000

---------------------------
INTERNAL COORDINATES (A.U.)
---------------------------
 C      0   0   0     0.000000000000     0.00000000     0.00000000
 C      1   0   0     2.606429992788     0.00000000     0.00000000
 C      1   2   0     2.609056306638   121.96426397     0.00000000
 H      2   1   3     2.047273582702   120.19020306   180.00000085
 H      3   1   2     2.047402007724   120.12124140   180.00000000
 C      2   1   3     2.621714867785   118.85020825     0.00000000
 C      3   1   2     2.619772711590   118.96039353     0.00000000
 H      6   2   1     2.050638441427   119.99629659   180.00000000
 H      7   3   1     2.047834425028   120.36944883   180.00000000
 C      6   2   1     2.628390857050   120.21327735     0.00000000
 O     10   6   2     2.563867066532   122.35026252   180.00000000
 H     11  10   6     1.821866021676   109.68682868     0.00000000
 F      1   2   3     2.550730660171   118.97534267   180.00000000

---------------------
BASIS SET INFORMATION
---------------------
There are 4 groups of distinct atoms

 Group   1 Type C   : 11s6p2d1f contracted to 5s3p2d1f pattern {62111/411/11/1}
 Group   2 Type H   : 5s1p contracted to 3s1p pattern {311/1}
 Group   3 Type O   : 11s6p2d1f contracted to 5s3p2d1f pattern {62111/411/11/1}
 Group   4 Type F   : 11s6p2d1f contracted to 5s3p2d1f pattern {62111/411/11/1}

Atom   0C    basis set group =>   1
Atom   1C    basis set group =>   1
Atom   2C    basis set group =>   1
Atom   3H    basis set group =>   2
Atom   4H    basis set group =>   2
Atom   5C    basis set group =>   1
Atom   6C    basis set group =>   1
Atom   7H    basis set group =>   2
Atom   8H    basis set group =>   2
Atom   9C    basis set group =>   1
Atom  10O    basis set group =>   3
Atom  11H    basis set group =>   2
Atom  12F    basis set group =>   4
---------------------------------
AUXILIARY/J BASIS SET INFORMATION
---------------------------------
There are 4 groups of distinct atoms

 Group   1 Type C   : 12s5p4d2f1g contracted to 6s4p3d1f1g pattern {711111/2111/211/2/1}
 Group   2 Type H   : 5s2p1d contracted to 3s1p1d pattern {311/2/1}
 Group   3 Type O   : 12s5p4d2f1g contracted to 6s4p3d1f1g pattern {711111/2111/211/2/1}
 Group   4 Type F   : 12s5p4d2f1g contracted to 6s4p3d1f1g pattern {711111/2111/211/2/1}

Atom   0C    basis set group =>   1
Atom   1C    basis set group =>   1
Atom   2C    basis set group =>   1
Atom   3H    basis set group =>   2
Atom   4H    basis set group =>   2
Atom   5C    basis set group =>   1
Atom   6C    basis set group =>   1
Atom   7H    basis set group =>   2
Atom   8H    basis set group =>   2
Atom   9C    basis set group =>   1
Atom  10O    basis set group =>   3
Atom  11H    basis set group =>   2
Atom  12F    basis set group =>   4


           ************************************************************
           *        Program running with 24 parallel MPI-processes    *
           *              working on a common directory               *
           ************************************************************
------------------------------------------------------------------------------
                           ORCA GTO INTEGRAL CALCULATION
                           -- RI-GTO INTEGRALS CHOSEN --
------------------------------------------------------------------------------
------------------------------------------------------------------------------
                   ___                                                        
                  /   \      - P O W E R E D   B Y -                         
                 /     \                                                     
                 |  |  |   _    _      __       _____    __    __             
                 |  |  |  | |  | |    /  \     |  _  \  |  |  /  |          
                  \  \/   | |  | |   /    \    | | | |  |  | /  /          
                 / \  \   | |__| |  /  /\  \   | |_| |  |  |/  /          
                |  |  |   |  __  | /  /__\  \  |    /   |      \           
                |  |  |   | |  | | |   __   |  |    \   |  |\   \          
                \     /   | |  | | |  |  |  |  | |\  \  |  | \   \       
                 \___/    |_|  |_| |__|  |__|  |_| \__\ |__|  \__/        
                                                                              
                      - O R C A' S   B I G   F R I E N D -                    
                                      &                                       
                       - I N T E G R A L  F E E D E R -                       
                                                                              
 v1 FN, 2020, v2 2021                                                         
------------------------------------------------------------------------------


Reading SHARK input file F-PhenOH/F-PhenOH.SHARKINP.tmp ... ok
----------------------
SHARK INTEGRAL PACKAGE
----------------------

Number of atoms                             ...     13
Number of basis functions                   ...    278
Number of shells                            ...    108
Maximum angular momentum                    ...      3
Integral batch strategy                     ... SHARK/LIBINT Hybrid
RI-J (if used) integral strategy            ... SPLIT-RIJ (Revised 2003 algorithm where possible)
Printlevel                                  ...      1
Contraction scheme used                     ... SEGMENTED contraction
Coulomb Range Separation                    ... NOT USED
Exchange Range Separation                   ... NOT USED
Finite Nucleus Model                        ... NOT USED
Auxiliary Coulomb fitting basis             ... AVAILABLE
   # of basis functions in Aux-J            ...    447
   # of shells in Aux-J                     ...    145
   Maximum angular momentum in Aux-J        ...      4
Auxiliary J/K fitting basis                 ... NOT available
Auxiliary Correlation fitting basis         ... NOT available
Auxiliary 'external' fitting basis          ... NOT available
Integral threshold                          ...     2.500000e-11
Primitive cut-off                           ...     2.500000e-12
Primitive pair pre-selection threshold      ...     2.500000e-12

Calculating pre-screening integrals         ... done (  0.1 sec) Dimension = 108
Organizing shell pair data                  ... done (  0.1 sec)
Shell pair information
Total number of shell pairs                 ...      5886
Shell pairs after pre-screening             ...      5404
Total number of primitive shell pairs       ...     18336
Primitive shell pairs kept                  ...     12713
          la=0 lb=0:   1347 shell pairs
          la=1 lb=0:   1484 shell pairs
          la=1 lb=1:    420 shell pairs
          la=2 lb=0:    807 shell pairs
          la=2 lb=1:    443 shell pairs
          la=2 lb=2:    126 shell pairs
          la=3 lb=0:    399 shell pairs
          la=3 lb=1:    222 shell pairs
          la=3 lb=2:    121 shell pairs
          la=3 lb=3:     35 shell pairs

Calculating one electron integrals          ... done (  0.0 sec)
Calculating RI/J V-Matrix + Cholesky decomp.... done (  0.1 sec)
Calculating Nuclear repulsion               ... done (  0.0 sec) ENN=    344.293519393396 Eh

SHARK setup successfully completed in   0.6 seconds

Maximum memory used throughout the entire GTOINT-calculation: 19.0 MB


           ************************************************************
           *        Program running with 24 parallel MPI-processes    *
           *              working on a common directory               *
           ************************************************************
-------------------------------------------------------------------------------
                                 ORCA SCF
-------------------------------------------------------------------------------

------------
SCF SETTINGS
------------
Hamiltonian:
 Density Functional     Method          .... DFT(GTOs)
 Exchange Functional    Exchange        .... PBE
   PBE kappa parameter   XKappa         ....  0.804000
   PBE mue parameter    XMuePBE         ....  0.219520
 Correlation Functional Correlation     .... PBE
   PBE beta parameter  CBetaPBE         ....  0.066725
 LDA part of GGA corr.  LDAOpt          .... PW91-LDA
 Gradients option       PostSCFGGA      .... off
 Hybrid DFT is turned on
   Fraction HF Exchange ScalHFX         ....  0.250000
   Scaling of DF-GGA-X  ScalDFX         ....  0.750000
   Scaling of DF-GGA-C  ScalDFC         ....  1.000000
   Scaling of DF-LDA-C  ScalLDAC        ....  1.000000
   Perturbative correction              ....  0.000000
   Density functional embedding theory  .... OFF
   NL short-range parameter             ....  6.900000
 RI-approximation to the Coulomb term is turned on
   Number of AuxJ basis functions       .... 447
   RIJ-COSX (HFX calculated with COS-X)).... on


General Settings:
 Integral files         IntName         .... F-PhenOH/F-PhenOH
 Hartree-Fock type      HFTyp           .... RHF
 Total Charge           Charge          ....    0
 Multiplicity           Mult            ....    1
 Number of Electrons    NEL             ....   58
 Basis Dimension        Dim             ....  278
 Nuclear Repulsion      ENuc            ....    344.2935193934 Eh

Convergence Acceleration:
 DIIS                   CNVDIIS         .... on
   Start iteration      DIISMaxIt       ....    12
   Startup error        DIISStart       ....  0.200000
   # of expansion vecs  DIISMaxEq       ....     5
   Bias factor          DIISBfac        ....   1.050
   Max. coefficient     DIISMaxC        ....  10.000
 Trust-Rad. Augm. Hess. CNVTRAH         .... auto
   Auto Start mean grad. ratio tolernc. ....  1.125000
   Auto Start start iteration           ....    20
   Auto Start num. interpolation iter.  ....    10
   Max. Number of Micro iterations      ....    16
   Max. Number of Macro iterations      .... Maxiter - #DIIS iter
   Number of Davidson start vectors     ....     2
   Converg. threshold I  (grad. norm)   ....   1.000e-05
   Converg. threshold II (energy diff.) ....   1.000e-08
   Grad. Scal. Fac. for Micro threshold ....   0.100
   Minimum threshold for Micro iter.    ....   0.010
   NR start threshold (gradient norm)   ....   0.001
   Initial trust radius                 ....   0.400
   Minimum AH scaling param. (alpha)    ....   1.000
   Maximum AH scaling param. (alpha)    .... 1000.000
   Orbital update algorithm             .... Taylor
   White noise on init. David. guess    .... on
   Maximum white noise                  ....   0.010
   Quad. conv. algorithm                .... NR
 SOSCF                  CNVSOSCF        .... on
   Start iteration      SOSCFMaxIt      ....   150
   Startup grad/error   SOSCFStart      ....  0.003300
 Level Shifting         CNVShift        .... on
   Level shift para.    LevelShift      ....    0.2500
   Turn off err/grad.   ShiftErr        ....    0.0010
 Zerner damping         CNVZerner       .... off
 Static damping         CNVDamp         .... on
   Fraction old density DampFac         ....    0.7000
   Max. Damping (<1)    DampMax         ....    0.9800
   Min. Damping (>=0)   DampMin         ....    0.0000
   Turn off err/grad.   DampErr         ....    0.1000
 Fernandez-Rico         CNVRico         .... off

SCF Procedure:
 Maximum # iterations   MaxIter         ....   800
 SCF integral mode      SCFMode         .... Direct
   Integral package                     .... SHARK and LIBINT hybrid scheme
 Reset frequency        DirectResetFreq ....    20
 Integral Threshold     Thresh          ....  2.500e-11 Eh
 Primitive CutOff       TCut            ....  2.500e-12 Eh

Convergence Tolerance:
 Convergence Check Mode ConvCheckMode   .... Total+1el-Energy
 Convergence forced     ConvForced      .... 0
 Energy Change          TolE            ....  1.000e-08 Eh
 1-El. energy change                    ....  1.000e-05 Eh
 Orbital Gradient       TolG            ....  1.000e-05
 Orbital Rotation angle TolX            ....  1.000e-05
 DIIS Error             TolErr          ....  5.000e-07


Diagonalization of the overlap matrix:
Smallest eigenvalue                        ... 1.205e-05
Time for diagonalization                   ...    0.018 sec
Threshold for overlap eigenvalues          ... 1.000e-08
Number of eigenvalues below threshold      ... 0
Time for construction of square roots      ...    0.023 sec
Total time needed                          ...    0.046 sec

Time for model grid setup =    0.096 sec

------------------------------
INITIAL GUESS: MODEL POTENTIAL
------------------------------
Loading Hartree-Fock densities                     ... done
Calculating cut-offs                               ... done
Initializing the effective Hamiltonian             ... done
Setting up the integral package (SHARK)            ... done
Starting the Coulomb interaction                   ... done (   0.1 sec)
Reading the grid                                   ... done
Mapping shells                                     ... done
Starting the XC term evaluation                    ... done (   0.0 sec)
  promolecular density results
     # of electrons  =     57.996854368
     EX              =    -50.335565344
     EC              =     -1.949239494
     EX+EC           =    -52.284804839
Transforming the Hamiltonian                       ... done (   0.0 sec)
Diagonalizing the Hamiltonian                      ... done (   0.0 sec)
Back transforming the eigenvectors                 ... done (   0.0 sec)
Now organizing SCF variables                       ... done
                      ------------------
                      INITIAL GUESS DONE (   0.3 sec)
                      ------------------
-------------------
DFT GRID GENERATION
-------------------

General Integration Accuracy     IntAcc      ... 4.388
Radial Grid Type                 RadialGrid  ... OptM3 with GC (2021)
Angular Grid (max. ang.)         AngularGrid ... 4 (Lebedev-302)
Angular grid pruning method      GridPruning ... 4 (adaptive)
Weight generation scheme         WeightScheme... Becke
Basis function cutoff            BFCut       ... 1.0000e-11
Integration weight cutoff        WCut        ... 1.0000e-14
Angular grids for H and He will be reduced by one unit
Partially contracted basis set               ... off
Rotationally invariant grid construction     ... off

Total number of grid points                  ...    64404
Total number of batches                      ...     1011
Average number of points per batch           ...       63
Average number of grid points per atom       ...     4954
Time for grid setup =    0.354 sec

--------------------
COSX GRID GENERATION
--------------------

GRIDX 1
-------
General Integration Accuracy     IntAcc      ... 3.816
Radial Grid Type                 RadialGrid  ... OptM3 with GC (2021)
Angular Grid (max. ang.)         AngularGrid ... 1 (Lebedev-50)
Angular grid pruning method      GridPruning ... 4 (adaptive)
Weight generation scheme         WeightScheme... Becke
Basis function cutoff            BFCut       ... 1.0000e-11
Integration weight cutoff        WCut        ... 1.0000e-14
Angular grids for H and He will be reduced by one unit
Partially contracted basis set               ... on
Rotationally invariant grid construction     ... off

Total number of grid points                  ...     8216
Total number of batches                      ...      133
Average number of points per batch           ...       61
Average number of grid points per atom       ...      632
UseSFitting                                  ... on

GRIDX 2
-------
General Integration Accuracy     IntAcc      ... 4.020
Radial Grid Type                 RadialGrid  ... OptM3 with GC (2021)
Angular Grid (max. ang.)         AngularGrid ... 2 (Lebedev-110)
Angular grid pruning method      GridPruning ... 4 (adaptive)
Weight generation scheme         WeightScheme... Becke
Basis function cutoff            BFCut       ... 1.0000e-11
Integration weight cutoff        WCut        ... 1.0000e-14
Angular grids for H and He will be reduced by one unit
Partially contracted basis set               ... on
Rotationally invariant grid construction     ... off

Total number of grid points                  ...    18329
Total number of batches                      ...      294
Average number of points per batch           ...       62
Average number of grid points per atom       ...     1410
UseSFitting                                  ... on

GRIDX 3
-------
General Integration Accuracy     IntAcc      ... 4.338
Radial Grid Type                 RadialGrid  ... OptM3 with GC (2021)
Angular Grid (max. ang.)         AngularGrid ... 3 (Lebedev-194)
Angular grid pruning method      GridPruning ... 4 (adaptive)
Weight generation scheme         WeightScheme... Becke
Basis function cutoff            BFCut       ... 1.0000e-11
Integration weight cutoff        WCut        ... 1.0000e-14
Angular grids for H and He will be reduced by one unit
Partially contracted basis set               ... on
Rotationally invariant grid construction     ... off

Total number of grid points                  ...    40432
Total number of batches                      ...      639
Average number of points per batch           ...       63
Average number of grid points per atom       ...     3110
UseSFitting                                  ... on

Time for X-Grid setup             =    0.562 sec


--------------------
CPCM SOLVATION MODEL
--------------------
CPCM parameters:
  Epsilon                                         ...      47.2000
  Refrac                                          ...       1.4790
  Rsolv                                           ...       1.3000
  Surface type                                    ... GAUSSIAN VDW
  Epsilon function type                           ...         CPCM
Radii:
 Radius for C  used is    3.8550 Bohr (=   2.0400 Ang.)
 Radius for H  used is    2.4944 Bohr (=   1.3200 Ang.)
 Radius for O  used is    3.4469 Bohr (=   1.8240 Ang.)
 Radius for F  used is    3.3335 Bohr (=   1.7640 Ang.)
Calculating surface                               ...        done! (  0.0s)
GEPOL surface points                              ...          769
GEPOL Volume                                      ...     884.9255
GEPOL Surface-area                                ...     510.2087
Calculating surface distance matrix               ...        done! (  0.0s)
Performing Cholesky decomposition & store         ...        done! (  0.0s)
Overall time for CPCM initialization              ...                 0.1s
--------------
SCF ITERATIONS
--------------
ITER       Energy         Delta-E        Max-DP      RMS-DP      [F,P]     Damp
               ***  Starting incremental Fock matrix formation  ***
  0   -406.2629388834   0.000000000000 0.08184249  0.00126574  0.2174711 0.7000
  1   -406.3367643425  -0.073825459153 0.08865728  0.00119909  0.1012807 0.7000
                               ***Turning on DIIS***
  2   -406.3695241854  -0.032759842896 0.14101953  0.00219230  0.0358568 0.0000
  3   -406.4183508445  -0.048826659137 0.07739214  0.00086890  0.0511266 0.0000
  4   -406.4293031920  -0.010952347457 0.02133732  0.00028337  0.0066696 0.0000
  5   -406.4296954701  -0.000392278072 0.01013971  0.00012438  0.0057245 0.0000
                      *** Initiating the SOSCF procedure ***
                           *** Shutting down DIIS ***
                      *** Re-Reading the Fockian *** 
                      *** Removing any level shift *** 
ITER      Energy       Delta-E        Grad      Rot      Max-DP    RMS-DP
  6   -406.42974082  -0.0000453476  0.000190  0.000190  0.002909  0.000049
               *** Restarting incremental Fock matrix formation ***
  7   -406.42972269   0.0000181249  0.000198  0.000541  0.001064  0.000021
  8   -406.42972183   0.0000008629  0.000265  0.000333  0.000476  0.000008
  9   -406.42972350  -0.0000016654  0.000019  0.000055  0.000146  0.000002
 10   -406.42972349   0.0000000095  0.000024  0.000034  0.000039  0.000001
                  ***Gradient check signals convergence***
              ***Rediagonalizing the Fockian in SOSCF/NRSCF***

               *****************************************************
               *                     SUCCESS                       *
               *           SCF CONVERGED AFTER  11 CYCLES          *
               *****************************************************

Old exchange energy                            =    -12.804505039 Eh
New exchange energy                            =    -12.804505601 Eh
Exchange energy change after final integration =     -0.000000562 Eh
Total energy after final integration           =   -406.429724063 Eh
Final COS-X integration done in                =     1.042 sec

----------------
TOTAL SCF ENERGY
----------------

Total Energy       :         -406.42972406 Eh          -11059.51505 eV

Components:
Nuclear Repulsion  :          344.29351939 Eh            9368.70296 eV
Electronic Energy  :         -750.72324346 Eh          -20428.21800 eV
One Electron Energy:        -1237.46487487 Eh          -33673.13115 eV
Two Electron Energy:          486.74163141 Eh           13244.91315 eV
Max COSX asymmetry :            0.00000287 Eh               0.00008 eV
CPCM Dielectric    :           -0.01253707 Eh              -0.34115 eV

Virial components:
Potential Energy   :         -811.16655576 Eh          -22072.96415 eV
Kinetic Energy     :          404.73683169 Eh           11013.44910 eV
Virial Ratio       :            2.00418270


DFT components:
N(Alpha)           :       29.000039710814 electrons
N(Beta)            :       29.000039710814 electrons
N(Total)           :       58.000079421627 electrons
E(X)               :      -38.343770658619 Eh       
E(C)               :       -1.957030875882 Eh       
E(XC)              :      -40.300801534501 Eh       
DFET-embed. en.    :        0.000000000000 Eh       
CPCM Solvation Model Properties:
Surface-charge          :           -0.01752481
Charge-correction       :            0.00020522 Eh               0.00558 eV
Free-energy (cav+disp)  :  This term is not implemented in the current solvation scheme

---------------
SCF CONVERGENCE
---------------

  Last Energy change         ...   -1.4669e-08  Tolerance :   1.0000e-08
  Last MAX-Density change    ...    1.1102e-15  Tolerance :   1.0000e-07
  Last RMS-Density change    ...    1.5808e-17  Tolerance :   5.0000e-09
  Last Orbital Gradient      ...    6.4181e-07  Tolerance :   1.0000e-05
  Last Orbital Rotation      ...    1.4822e-06  Tolerance :   1.0000e-05

             **** THE GBW FILE WAS UPDATED (F-PhenOH/F-PhenOH.gbw) ****
             **** DENSITY F-PhenOH/F-PhenOH.scfp WAS UPDATED ****
             **** ENERGY FILE WAS UPDATED (F-PhenOH/F-PhenOH.en.tmp) ****
             **** THE GBW FILE WAS UPDATED (F-PhenOH/F-PhenOH.gbw) ****
             **** DENSITY F-PhenOH/F-PhenOH.scfp WAS UPDATED ****
----------------
ORBITAL ENERGIES
----------------

  NO   OCC          E(Eh)            E(eV) 
   0   2.0000     -24.782546      -674.3674 
   1   2.0000     -19.238274      -523.5001 
   2   2.0000     -10.304675      -280.4045 
   3   2.0000     -10.291005      -280.0325 
   4   2.0000     -10.236000      -278.5357 
   5   2.0000     -10.235681      -278.5270 
   6   2.0000     -10.233539      -278.4688 
   7   2.0000     -10.231620      -278.4165 
   8   2.0000      -1.260112       -34.2894 
   9   2.0000      -1.096557       -29.8388 
  10   2.0000      -0.892654       -24.2904 
  11   2.0000      -0.787607       -21.4319 
  12   2.0000      -0.768750       -20.9188 
  13   2.0000      -0.661428       -17.9984 
  14   2.0000      -0.638433       -17.3727 
  15   2.0000      -0.572809       -15.5869 
  16   2.0000      -0.564454       -15.3596 
  17   2.0000      -0.521589       -14.1932 
  18   2.0000      -0.491186       -13.3658 
  19   2.0000      -0.466123       -12.6838 
  20   2.0000      -0.451412       -12.2835 
  21   2.0000      -0.446854       -12.1595 
  22   2.0000      -0.434895       -11.8341 
  23   2.0000      -0.423607       -11.5269 
  24   2.0000      -0.393244       -10.7007 
  25   2.0000      -0.358751        -9.7621 
  26   2.0000      -0.355690        -9.6788 
  27   2.0000      -0.281285        -7.6542 
  28   2.0000      -0.238772        -6.4973 
  29   0.0000      -0.019609        -0.5336 
  30   0.0000       0.009967         0.2712 
  31   0.0000       0.060697         1.6517 
  32   0.0000       0.072405         1.9702 
  33   0.0000       0.097916         2.6644 
  34   0.0000       0.105166         2.8617 
  35   0.0000       0.128977         3.5096 
  36   0.0000       0.140453         3.8219 
  37   0.0000       0.152681         4.1547 
  38   0.0000       0.155276         4.2253 
  39   0.0000       0.190478         5.1832 
  40   0.0000       0.206896         5.6299 
  41   0.0000       0.208764         5.6807 
  42   0.0000       0.230358         6.2684 
  43   0.0000       0.237735         6.4691 
  44   0.0000       0.250885         6.8269 
  45   0.0000       0.261160         7.1065 
  46   0.0000       0.272685         7.4201 
  47   0.0000       0.292329         7.9547 
  48   0.0000       0.298125         8.1124 
  49   0.0000       0.327373         8.9083 
  50   0.0000       0.331549         9.0219 
  51   0.0000       0.333537         9.0760 
  52   0.0000       0.333751         9.0818 
  53   0.0000       0.352939         9.6040 
  54   0.0000       0.364368         9.9150 
  55   0.0000       0.387681        10.5493 
  56   0.0000       0.400285        10.8923 
  57   0.0000       0.414253        11.2724 
  58   0.0000       0.414323        11.2743 
  59   0.0000       0.441636        12.0175 
  60   0.0000       0.446532        12.1507 
  61   0.0000       0.456714        12.4278 
  62   0.0000       0.457233        12.4419 
  63   0.0000       0.480531        13.0759 
  64   0.0000       0.493963        13.4414 
  65   0.0000       0.503217        13.6932 
  66   0.0000       0.509077        13.8527 
  67   0.0000       0.511440        13.9170 
  68   0.0000       0.537370        14.6226 
  69   0.0000       0.563105        15.3229 
  70   0.0000       0.595656        16.2086 
  71   0.0000       0.629774        17.1370 
  72   0.0000       0.638653        17.3786 
  73   0.0000       0.656478        17.8637 
  74   0.0000       0.676147        18.3989 
  75   0.0000       0.676832        18.4175 
  76   0.0000       0.708697        19.2846 
  77   0.0000       0.725028        19.7290 
  78   0.0000       0.735950        20.0262 
  79   0.0000       0.738380        20.0923 
  80   0.0000       0.759984        20.6802 
  81   0.0000       0.816392        22.2151 
  82   0.0000       0.820477        22.3263 
  83   0.0000       0.822785        22.3891 
  84   0.0000       0.841536        22.8993 
  85   0.0000       0.869463        23.6593 
  86   0.0000       0.885301        24.0903 
  87   0.0000       0.887407        24.1476 
  88   0.0000       0.899020        24.4636 
  89   0.0000       0.916903        24.9502 
  90   0.0000       0.957778        26.0625 
  91   0.0000       1.024694        27.8833 
  92   0.0000       1.028886        27.9974 
  93   0.0000       1.035908        28.1885 
  94   0.0000       1.054590        28.6969 
  95   0.0000       1.074490        29.2384 
  96   0.0000       1.095215        29.8023 
  97   0.0000       1.135805        30.9068 
  98   0.0000       1.175819        31.9957 
  99   0.0000       1.193680        32.4817 
 100   0.0000       1.205448        32.8019 
 101   0.0000       1.223419        33.2909 
 102   0.0000       1.244002        33.8510 
 103   0.0000       1.247052        33.9340 
 104   0.0000       1.292680        35.1756 
 105   0.0000       1.311652        35.6919 
 106   0.0000       1.329210        36.1696 
 107   0.0000       1.369454        37.2647 
 108   0.0000       1.394626        37.9497 
 109   0.0000       1.410764        38.3888 
 110   0.0000       1.461926        39.7810 
 111   0.0000       1.486288        40.4440 
 112   0.0000       1.487318        40.4720 
 113   0.0000       1.498947        40.7884 
 114   0.0000       1.522633        41.4330 
 115   0.0000       1.548586        42.1392 
 116   0.0000       1.559292        42.4305 
 117   0.0000       1.613694        43.9109 
 118   0.0000       1.629326        44.3362 
 119   0.0000       1.663085        45.2549 
 120   0.0000       1.683964        45.8230 
 121   0.0000       1.684558        45.8392 
 122   0.0000       1.718101        46.7519 
 123   0.0000       1.724499        46.9260 
 124   0.0000       1.749900        47.6172 
 125   0.0000       1.760130        47.8956 
 126   0.0000       1.832475        49.8642 
 127   0.0000       1.850636        50.3584 
 128   0.0000       1.850675        50.3594 
 129   0.0000       1.873950        50.9928 
 130   0.0000       1.895299        51.5737 
 131   0.0000       1.937012        52.7088 
 132   0.0000       1.946208        52.9590 
 133   0.0000       2.012223        54.7554 
 134   0.0000       2.023326        55.0575 
 135   0.0000       2.043642        55.6103 
 136   0.0000       2.092178        56.9311 
 137   0.0000       2.129871        57.9567 
 138   0.0000       2.150335        58.5136 
 139   0.0000       2.160157        58.7809 
 140   0.0000       2.185110        59.4599 
 141   0.0000       2.198454        59.8230 
 142   0.0000       2.211139        60.1681 
 143   0.0000       2.229586        60.6701 
 144   0.0000       2.270327        61.7787 
 145   0.0000       2.297514        62.5185 
 146   0.0000       2.340787        63.6961 
 147   0.0000       2.377173        64.6862 
 148   0.0000       2.412436        65.6457 
 149   0.0000       2.435035        66.2607 
 150   0.0000       2.466422        67.1147 
 151   0.0000       2.495058        67.8940 
 152   0.0000       2.532729        68.9191 
 153   0.0000       2.575386        70.0798 
 154   0.0000       2.575823        70.0917 
 155   0.0000       2.597613        70.6846 
 156   0.0000       2.610811        71.0438 
 157   0.0000       2.668521        72.6141 
 158   0.0000       2.673924        72.7612 
 159   0.0000       2.678901        72.8966 
 160   0.0000       2.712944        73.8230 
 161   0.0000       2.716657        73.9240 
 162   0.0000       2.730393        74.2978 
 163   0.0000       2.733549        74.3837 
 164   0.0000       2.767183        75.2989 
 165   0.0000       2.786541        75.8256 
 166   0.0000       2.787951        75.8640 
 167   0.0000       2.799815        76.1869 
 168   0.0000       2.852122        77.6102 
 169   0.0000       2.862541        77.8937 
 170   0.0000       2.888200        78.5919 
 171   0.0000       2.902477        78.9804 
 172   0.0000       2.907888        79.1277 
 173   0.0000       2.912299        79.2477 
 174   0.0000       2.921211        79.4902 
 175   0.0000       2.937327        79.9287 
 176   0.0000       2.974705        80.9458 
 177   0.0000       2.996993        81.5523 
 178   0.0000       3.009894        81.9034 
 179   0.0000       3.057958        83.2113 
 180   0.0000       3.083318        83.9013 
 181   0.0000       3.120415        84.9108 
 182   0.0000       3.130586        85.1876 
 183   0.0000       3.146077        85.6091 
 184   0.0000       3.151977        85.7697 
 185   0.0000       3.184069        86.6429 
 186   0.0000       3.200775        87.0975 
 187   0.0000       3.214941        87.4830 
 188   0.0000       3.225933        87.7821 
 189   0.0000       3.231142        87.9238 
 190   0.0000       3.242848        88.2424 
 191   0.0000       3.269563        88.9693 
 192   0.0000       3.292189        89.5850 
 193   0.0000       3.353875        91.2636 
 194   0.0000       3.383675        92.0745 
 195   0.0000       3.384980        92.1100 
 196   0.0000       3.389970        92.2458 
 197   0.0000       3.403104        92.6032 
 198   0.0000       3.415215        92.9327 
 199   0.0000       3.453186        93.9660 
 200   0.0000       3.488637        94.9306 
 201   0.0000       3.497059        95.1598 
 202   0.0000       3.510924        95.5371 
 203   0.0000       3.529166        96.0335 
 204   0.0000       3.539217        96.3070 
 205   0.0000       3.577095        97.3377 
 206   0.0000       3.577574        97.3507 
 207   0.0000       3.637851        98.9910 
 208   0.0000       3.672041        99.9213 
 209   0.0000       3.762413       102.3805 
 210   0.0000       3.815691       103.8302 
 211   0.0000       3.827539       104.1526 
 212   0.0000       3.835569       104.3711 
 213   0.0000       3.957661       107.6934 
 214   0.0000       3.963925       107.8639 
 215   0.0000       4.003555       108.9423 
 216   0.0000       4.018355       109.3450 
 217   0.0000       4.035893       109.8222 
 218   0.0000       4.076512       110.9275 
 219   0.0000       4.115386       111.9853 
 220   0.0000       4.115795       111.9965 
 221   0.0000       4.177407       113.6730 
 222   0.0000       4.191528       114.0573 
 223   0.0000       4.229641       115.0944 
 224   0.0000       4.231308       115.1397 
 225   0.0000       4.243525       115.4722 
 226   0.0000       4.256944       115.8373 
 227   0.0000       4.303314       117.0991 
 228   0.0000       4.333383       117.9173 
 229   0.0000       4.454640       121.2169 
 230   0.0000       4.480139       121.9108 
 231   0.0000       4.594874       125.0329 
 232   0.0000       4.636743       126.1722 
 233   0.0000       4.661921       126.8573 
 234   0.0000       4.678397       127.3057 
 235   0.0000       4.774811       129.9292 
 236   0.0000       4.848685       131.9394 
 237   0.0000       4.861622       132.2915 
 238   0.0000       4.893253       133.1522 
 239   0.0000       4.960588       134.9845 
 240   0.0000       5.157323       140.3379 
 241   0.0000       5.195727       141.3829 
 242   0.0000       5.274617       143.5296 
 243   0.0000       5.315675       144.6469 
 244   0.0000       5.365480       146.0021 
 245   0.0000       5.498740       149.6283 
 246   0.0000       5.500626       149.6796 
 247   0.0000       5.521239       150.2405 
 248   0.0000       5.602429       152.4498 
 249   0.0000       5.813939       158.2053 
 250   0.0000       6.028070       164.0321 
 251   0.0000       6.339333       172.5020 
 252   0.0000       6.414867       174.5574 
 253   0.0000       6.436418       175.1438 
 254   0.0000       6.731650       183.1775 
 255   0.0000       6.819739       185.5745 
 256   0.0000       6.881585       187.2575 
 257   0.0000       6.892501       187.5545 
 258   0.0000       6.993033       190.2901 
 259   0.0000       6.998704       190.4444 
 260   0.0000       7.082522       192.7252 
 261   0.0000       7.246051       197.1751 
 262   0.0000       7.296887       198.5584 
 263   0.0000       7.439228       202.4317 
 264   0.0000       7.582533       206.3312 
 265   0.0000       8.370158       227.7636 
 266   0.0000       8.542606       232.4561 
 267   0.0000       8.771805       238.6929 
 268   0.0000       8.983779       244.4610 
 269   0.0000       9.026528       245.6243 
 270   0.0000      22.081463       600.8672 
 271   0.0000      22.736013       618.6784 
 272   0.0000      22.752577       619.1291 
 273   0.0000      22.780141       619.8792 
 274   0.0000      22.993364       625.6812 
 275   0.0000      23.380627       636.2192 
 276   0.0000      44.017628      1197.7806 
 277   0.0000      57.414459      1562.3269 

                    ********************************
                    * MULLIKEN POPULATION ANALYSIS *
                    ********************************

-----------------------
MULLIKEN ATOMIC CHARGES
-----------------------
   0 C :    0.279059
   1 C :   -0.218828
   2 C :   -0.207546
   3 H :    0.163590
   4 H :    0.161058
   5 C :   -0.233132
   6 C :   -0.235291
   7 H :    0.165488
   8 H :    0.153247
   9 C :    0.258298
  10 O :   -0.435446
  11 H :    0.368334
  12 F :   -0.218831
Sum of atomic charges:    0.0000000

--------------------------------
MULLIKEN REDUCED ORBITAL CHARGES
--------------------------------
  0 C s       :     3.003907  s :     3.003907
      pz      :     0.626707  p :     2.515782
      px      :     0.995852
      py      :     0.893222
      dz2     :     0.036847  d :     0.183053
      dxz     :     0.040939
      dyz     :     0.063563
      dx2y2   :     0.015969
      dxy     :     0.025734
      f0      :     0.002834  f :     0.018199
      f+1     :     0.003914
      f-1     :     0.006895
      f+2     :     0.000750
      f-2     :     0.001100
      f+3     :     0.001840
      f-3     :     0.000867
  1 C s       :     3.220155  s :     3.220155
      pz      :     0.954849  p :     2.907048
      px      :     0.993924
      py      :     0.958275
      dz2     :     0.012298  d :     0.084187
      dxz     :     0.019922
      dyz     :     0.031569
      dx2y2   :     0.008561
      dxy     :     0.011838
      f0      :     0.000824  f :     0.007437
      f+1     :     0.001524
      f-1     :     0.002005
      f+2     :     0.000817
      f-2     :     0.000375
      f+3     :     0.001197
      f-3     :     0.000695
  2 C s       :     3.221242  s :     3.221242
      pz      :     0.939271  p :     2.894764
      px      :     0.992873
      py      :     0.962619
      dz2     :     0.013381  d :     0.084157
      dxz     :     0.020779
      dyz     :     0.031195
      dx2y2   :     0.008284
      dxy     :     0.010519
      f0      :     0.000867  f :     0.007382
      f+1     :     0.001491
      f-1     :     0.001976
      f+2     :     0.000764
      f-2     :     0.000520
      f+3     :     0.001057
      f-3     :     0.000707
  3 H s       :     0.814141  s :     0.814141
      pz      :     0.006586  p :     0.022269
      px      :     0.004743
      py      :     0.010939
  4 H s       :     0.816689  s :     0.816689
      pz      :     0.005817  p :     0.022253
      px      :     0.004736
      py      :     0.011701
  5 C s       :     3.227953  s :     3.227953
      pz      :     0.919931  p :     2.913968
      px      :     1.022459
      py      :     0.971578
      dz2     :     0.018082  d :     0.083962
      dxz     :     0.019137
      dyz     :     0.028715
      dx2y2   :     0.009226
      dxy     :     0.008803
      f0      :     0.000884  f :     0.007249
      f+1     :     0.001490
      f-1     :     0.002001
      f+2     :     0.000769
      f-2     :     0.000452
      f+3     :     0.000955
      f-3     :     0.000698
  6 C s       :     3.243265  s :     3.243265
      pz      :     0.927868  p :     2.900749
      px      :     1.012381
      py      :     0.960500
      dz2     :     0.016638  d :     0.083788
      dxz     :     0.018390
      dyz     :     0.030038
      dx2y2   :     0.007932
      dxy     :     0.010791
      f0      :     0.000835  f :     0.007490
      f+1     :     0.001489
      f-1     :     0.002168
      f+2     :     0.000816
      f-2     :     0.000399
      f+3     :     0.001091
      f-3     :     0.000692
  7 H s       :     0.812297  s :     0.812297
      pz      :     0.005566  p :     0.022214
      px      :     0.004954
      py      :     0.011694
  8 H s       :     0.824499  s :     0.824499
      pz      :     0.006496  p :     0.022253
      px      :     0.004894
      py      :     0.010863
  9 C s       :     3.002939  s :     3.002939
      pz      :     0.710197  p :     2.542228
      px      :     0.932306
      py      :     0.899725
      dz2     :     0.034348  d :     0.180817
      dxz     :     0.047319
      dyz     :     0.059707
      dx2y2   :     0.015454
      dxy     :     0.023989
      f0      :     0.002559  f :     0.015719
      f+1     :     0.003369
      f-1     :     0.005373
      f+2     :     0.000741
      f-2     :     0.001064
      f+3     :     0.001776
      f-3     :     0.000836
 10 O s       :     3.752551  s :     3.752551
      pz      :     1.342209  p :     4.648836
      px      :     1.825388
      py      :     1.481239
      dz2     :     0.011599  d :     0.032309
      dxz     :     0.005778
      dyz     :     0.007221
      dx2y2   :     0.006401
      dxy     :     0.001310
      f0      :     0.000538  f :     0.001751
      f+1     :     0.000309
      f-1     :     0.000253
      f+2     :     0.000229
      f-2     :     0.000020
      f+3     :     0.000055
      f-3     :     0.000346
 11 H s       :     0.586257  s :     0.586257
      pz      :     0.011006  p :     0.045409
      px      :     0.015026
      py      :     0.019377
 12 F s       :     3.909556  s :     3.909556
      pz      :     1.471221  p :     5.293230
      px      :     1.895573
      py      :     1.926435
      dz2     :     0.008013  d :     0.015396
      dxz     :     0.003957
      dyz     :     0.003321
      dx2y2   :     0.000061
      dxy     :     0.000044
      f0      :     0.000347  f :     0.000648
      f+1     :     0.000151
      f-1     :     0.000145
      f+2     :     0.000002
      f-2     :     0.000002
      f+3     :     0.000000
      f-3     :     0.000000


                     *******************************
                     * LOEWDIN POPULATION ANALYSIS *
                     *******************************

----------------------
LOEWDIN ATOMIC CHARGES
----------------------
   0 C :   -0.287755
   1 C :   -0.125297
   2 C :   -0.124627
   3 H :    0.162256
   4 H :    0.162179
   5 C :   -0.132330
   6 C :   -0.123008
   7 H :    0.160419
   8 H :    0.158920
   9 C :   -0.296199
  10 O :    0.076011
  11 H :    0.207810
  12 F :    0.161622

-------------------------------
LOEWDIN REDUCED ORBITAL CHARGES
-------------------------------
  0 C s       :     2.722069  s :     2.722069
      pz      :     0.744930  p :     2.752448
      px      :     0.910787
      py      :     1.096732
      dz2     :     0.221328  d :     0.699565
      dxz     :     0.117085
      dyz     :     0.207242
      dx2y2   :     0.068799
      dxy     :     0.085112
      f0      :     0.027085  f :     0.113673
      f+1     :     0.020690
      f-1     :     0.040211
      f+2     :     0.006573
      f-2     :     0.007812
      f+3     :     0.005116
      f-3     :     0.006186
  1 C s       :     2.762068  s :     2.762068
      pz      :     1.039802  p :     2.943125
      px      :     0.898134
      py      :     1.005188
      dz2     :     0.085589  d :     0.376172
      dxz     :     0.067688
      dyz     :     0.145216
      dx2y2   :     0.042873
      dxy     :     0.034807
      f0      :     0.007360  f :     0.043932
      f+1     :     0.006852
      f-1     :     0.013524
      f+2     :     0.004959
      f-2     :     0.002824
      f+3     :     0.004348
      f-3     :     0.004064
  2 C s       :     2.762098  s :     2.762098
      pz      :     1.044497  p :     2.942736
      px      :     0.897258
      py      :     1.000981
      dz2     :     0.089532  d :     0.375952
      dxz     :     0.072216
      dyz     :     0.141869
      dx2y2   :     0.042649
      dxy     :     0.029686
      f0      :     0.007458  f :     0.043841
      f+1     :     0.006379
      f-1     :     0.013677
      f+2     :     0.004999
      f-2     :     0.003916
      f+3     :     0.003643
      f-3     :     0.003768
  3 H s       :     0.776552  s :     0.776552
      pz      :     0.018204  p :     0.061192
      px      :     0.013688
      py      :     0.029300
  4 H s       :     0.776702  s :     0.776702
      pz      :     0.016337  p :     0.061119
      px      :     0.013646
      py      :     0.031137
  5 C s       :     2.760782  s :     2.760782
      pz      :     1.038346  p :     2.954063
      px      :     0.920870
      py      :     0.994846
      dz2     :     0.094731  d :     0.374521
      dxz     :     0.067041
      dyz     :     0.143797
      dx2y2   :     0.043268
      dxy     :     0.025685
      f0      :     0.007476  f :     0.042964
      f+1     :     0.006260
      f-1     :     0.014182
      f+2     :     0.004809
      f-2     :     0.003514
      f+3     :     0.003026
      f-3     :     0.003698
  6 C s       :     2.759874  s :     2.759874
      pz      :     1.036386  p :     2.949185
      px      :     0.913133
      py      :     0.999666
      dz2     :     0.088292  d :     0.371043
      dxz     :     0.061676
      dyz     :     0.147949
      dx2y2   :     0.042852
      dxy     :     0.030274
      f0      :     0.007336  f :     0.042906
      f+1     :     0.006546
      f-1     :     0.014063
      f+2     :     0.004800
      f-2     :     0.002593
      f+3     :     0.003611
      f-3     :     0.003956
  7 H s       :     0.778449  s :     0.778449
      pz      :     0.015640  p :     0.061131
      px      :     0.014288
      py      :     0.031204
  8 H s       :     0.779914  s :     0.779914
      pz      :     0.017857  p :     0.061167
      px      :     0.014111
      py      :     0.029198
  9 C s       :     2.714385  s :     2.714385
      pz      :     0.840480  p :     2.785450
      px      :     0.860685
      py      :     1.084285
      dz2     :     0.204200  d :     0.697338
      dxz     :     0.145912
      dyz     :     0.198115
      dx2y2   :     0.069690
      dxy     :     0.079421
      f0      :     0.019594  f :     0.099027
      f+1     :     0.019875
      f-1     :     0.034571
      f+2     :     0.006248
      f-2     :     0.007521
      f+3     :     0.005456
      f-3     :     0.005762
 10 O s       :     3.318536  s :     3.318536
      pz      :     1.380549  p :     4.528748
      px      :     1.709319
      py      :     1.438880
      dz2     :     0.024690  d :     0.071843
      dxz     :     0.015029
      dyz     :     0.022316
      dx2y2   :     0.009317
      dxy     :     0.000490
      f0      :     0.001424  f :     0.004862
      f+1     :     0.001053
      f-1     :     0.001416
      f+2     :     0.000396
      f-2     :     0.000009
      f+3     :     0.000001
      f-3     :     0.000562
 11 H s       :     0.638617  s :     0.638617
      pz      :     0.029863  p :     0.153573
      px      :     0.041806
      py      :     0.081904
 12 F s       :     3.595008  s :     3.595008
      pz      :     1.538406  p :     5.211614
      px      :     1.829902
      py      :     1.843306
      dz2     :     0.013888  d :     0.030349
      dxz     :     0.008750
      dyz     :     0.007613
      dx2y2   :     0.000054
      dxy     :     0.000043
      f0      :     0.000580  f :     0.001407
      f+1     :     0.000407
      f-1     :     0.000412
      f+2     :     0.000003
      f-2     :     0.000005
      f+3     :     0.000000
      f-3     :     0.000001


                      *****************************
                      * MAYER POPULATION ANALYSIS *
                      *****************************

  NA   - Mulliken gross atomic population
  ZA   - Total nuclear charge
  QA   - Mulliken gross atomic charge
  VA   - Mayer's total valence
  BVA  - Mayer's bonded valence
  FA   - Mayer's free valence

  ATOM       NA         ZA         QA         VA         BVA        FA
  0 C      5.7209     6.0000     0.2791     3.9647     3.9647     0.0000
  1 C      6.2188     6.0000    -0.2188     3.8464     3.8464     0.0000
  2 C      6.2075     6.0000    -0.2075     3.8709     3.8709     0.0000
  3 H      0.8364     1.0000     0.1636     0.9669     0.9669     0.0000
  4 H      0.8389     1.0000     0.1611     0.9659     0.9659     0.0000
  5 C      6.2331     6.0000    -0.2331     3.8250     3.8250     0.0000
  6 C      6.2353     6.0000    -0.2353     3.9095     3.9095    -0.0000
  7 H      0.8345     1.0000     0.1655     0.9642     0.9642    -0.0000
  8 H      0.8468     1.0000     0.1532     0.9762     0.9762    -0.0000
  9 C      5.7417     6.0000     0.2583     3.9924     3.9924     0.0000
 10 O      8.4354     8.0000    -0.4354     2.0587     2.0587     0.0000
 11 H      0.6317     1.0000     0.3683     0.8770     0.8770    -0.0000
 12 F      9.2188     9.0000    -0.2188     1.0552     1.0552    -0.0000

  Mayer bond orders larger than 0.100000
B(  0-C ,  1-C ) :   1.4137 B(  0-C ,  2-C ) :   1.4044 B(  0-C , 12-F ) :   1.0092 
B(  1-C ,  3-H ) :   0.9596 B(  1-C ,  5-C ) :   1.3409 B(  2-C ,  4-H ) :   0.9709 
B(  2-C ,  6-C ) :   1.3868 B(  5-C ,  7-H ) :   0.9506 B(  5-C ,  9-C ) :   1.3676 
B(  6-C ,  8-H ) :   0.9640 B(  6-C ,  9-C ) :   1.3814 B(  9-C , 10-O ) :   1.1231 
B( 10-O , 11-H ) :   0.8516 

-------
TIMINGS
-------

Total SCF time: 0 days 0 hours 0 min 21 sec 

Total time                  ....      21.063 sec
Sum of individual times     ....      17.948 sec  ( 85.2%)

Fock matrix formation       ....      15.844 sec  ( 75.2%)
  Split-RI-J                ....       1.808 sec  ( 11.4% of F)
  Chain of spheres X        ....       6.406 sec  ( 40.4% of F)
  XC integration            ....       3.468 sec  ( 21.9% of F)
    Basis function eval.    ....       0.246 sec  (  7.1% of XC)
    Density eval.           ....       0.226 sec  (  6.5% of XC)
    XC-Functional eval.     ....       0.049 sec  (  1.4% of XC)
    XC-Potential eval.      ....       0.262 sec  (  7.5% of XC)
Diagonalization             ....       0.326 sec  (  1.5%)
Density matrix formation    ....       0.023 sec  (  0.1%)
Population analysis         ....       0.081 sec  (  0.4%)
Initial guess               ....       0.211 sec  (  1.0%)
Orbital Transformation      ....       0.000 sec  (  0.0%)
Orbital Orthonormalization  ....       0.000 sec  (  0.0%)
DIIS solution               ....       0.253 sec  (  1.2%)
SOSCF solution              ....       0.197 sec  (  0.9%)
Grid generation             ....       1.013 sec  (  4.8%)

Maximum memory used throughout the entire SCF-calculation: 73.6 MB


-------------------------------------------------------------------------------
                          DFT DISPERSION CORRECTION                            
                                                                               
                              DFTD3 V3.1  Rev 1                                
                          USING Becke-Johnson damping                          
-------------------------------------------------------------------------------
The PBE0 functional is recognized
Active option DFTDOPT                   ...         4   

molecular C6(AA) [au] = 1983.566161 


            DFT-D V3
 parameters
 s6 scaling factor         :     1.0000 
 a1 scaling factor         :     0.4145 
 s8 scaling factor         :     1.2177 
 a2 scaling factor         :     4.8593 
 ad hoc parameters k1-k3   :    16.0000     1.3333    -4.0000 

 Edisp/kcal,au: -6.672699709804  -0.010633622716 
 E6   /kcal   :  -4.141262428 
 E8   /kcal   :  -2.531437281 
 % E8         :  37.937227680 

-------------------------   ----------------
Dispersion correction           -0.010633623
-------------------------   ----------------


-------------------------   --------------------
FINAL SINGLE POINT ENERGY      -406.440357685570
-------------------------   --------------------



           ************************************************************
           *        Program running with 24 parallel MPI-processes    *
           *              working on a common directory               *
           ************************************************************
------------------------------------------------------------------------------
                         ORCA SCF GRADIENT CALCULATION
------------------------------------------------------------------------------

 ... reading COSX grid (gridx3)
Gradient of the Kohn-Sham DFT energy:
Kohn-Sham wavefunction type      ... RKS
Hartree-Fock exchange scaling    ...    0.250
Number of operators              ...    1
Number of atoms                  ...   13
Basis set dimensions             ...  278
Integral neglect threshold       ... 2.5e-11
Integral primitive cutoff        ... 2.5e-12
SHARK Integral package           ... ON

Nuc. rep. gradient       (SHARK) ... done (  0.0 sec)
HCore & Overlap gradient (SHARK) ... done (  0.0 sec)
RI-J gradient            (SHARK) ... done (  0.3 sec)
COSX-gradient                    ... done (  1.3 sec)
Exchange-correlation gradient    ... done
Dispersion correction            ... done

------------------
CARTESIAN GRADIENT
------------------

   1   C   :   -0.000000018   -0.000156238    0.000258196
   2   C   :    0.000000048   -0.000054715    0.000046431
   3   C   :    0.000000040    0.000187913   -0.000244441
   4   H   :   -0.000000013    0.000045337    0.000039287
   5   H   :   -0.000000011   -0.000100601    0.000086686
   6   C   :   -0.000000028   -0.000118658   -0.000246484
   7   C   :   -0.000000018    0.000137827    0.000127336
   8   H   :    0.000000008   -0.000011567    0.000081266
   9   H   :    0.000000010   -0.000137421   -0.000105119
  10   C   :    0.000000013   -0.000039616    0.000049166
  11   O   :   -0.000000003   -0.000008941   -0.000165481
  12   H   :    0.000000004   -0.000027604    0.000123806
  13   F   :   -0.000000003    0.000041888    0.000037584

Difference to translation invariance:
           :    0.0000000286   -0.0002423953    0.0000882337

Difference to rotation invariance:
           :    0.0008764342    0.0000000220    0.0000000390

Norm of the cartesian gradient     ...    0.0006402701
RMS gradient                       ...    0.0001025253
MAX gradient                       ...    0.0002581957

-------
TIMINGS
-------

Total SCF gradient time            ...        3.539 sec

One electron gradient       ....       0.046 sec  (  1.3%)
RI-J Coulomb gradient       ....       0.344 sec  (  9.7%)
COSX gradient               ....       1.252 sec  ( 35.4%)
XC gradient                 ....       0.597 sec  ( 16.9%)
CPCM gradient               ....       0.189 sec  (  5.3%)
   A-Matrix (El+Nuc)        ....       0.052 sec  (  1.5%)
   Potential                ....       0.137 sec  (  3.9%)

Maximum memory used throughout the entire SCFGRAD-calculation: 47.1 MB
------------------------------------------------------------------------------
                         ORCA GEOMETRY RELAXATION STEP
------------------------------------------------------------------------------

Reading the OPT-File                    .... done
Getting information on internals        .... done
Copying old internal coords+grads       .... done
Making the new internal coordinates     .... (new redundants).... done
Validating the new internal coordinates .... (new redundants).... done
Calculating the B-matrix                .... done
Calculating the G,G- and P matrices     .... done
Transforming gradient to internals      .... done
Projecting the internal gradient        .... done
Number of atoms                         ....  13
Number of internal coordinates          ....  58
Current Energy                          ....  -406.440357686 Eh
Current gradient norm                   ....     0.000640270 Eh/bohr
Maximum allowed component of the step   ....  0.200
Current trust radius                    ....  0.300
Evaluating the initial hessian          ....  (Almloef) done
Projecting the Hessian                  .... done
Forming the augmented Hessian           .... done
Diagonalizing the augmented Hessian     .... done
Last element of RFO vector              ....  0.999999373
Lowest eigenvalues of augmented Hessian:
 -0.000000513  0.026933788  0.027229945  0.027319281  0.027430291
Length of the computed step             ....  0.001119798
The final length of the internal step   ....  0.001119798
Converting the step to cartesian space:
 Initial RMS(Int)=    0.0001470366
Transforming coordinates:
 Iter   0:  RMS(Cart)=    0.0002216390 RMS(Int)=    2.1828047207
 Iter   1:  RMS(Cart)=    0.0000000491 RMS(Int)=    0.0000000416
done
Storing new coordinates                 .... done

                                .--------------------.
          ----------------------|Geometry convergence|-------------------------
          Item                value                   Tolerance       Converged
          ---------------------------------------------------------------------
          RMS gradient        0.0000619528            0.0000300000      NO
          MAX gradient        0.0001952168            0.0001000000      NO
          RMS step            0.0001470366            0.0006000000      YES
          MAX step            0.0004862469            0.0010000000      YES
          ........................................................
          Max(Bonds)      0.0002      Max(Angles)    0.03
          Max(Dihed)        0.00      Max(Improp)    0.00
          ---------------------------------------------------------------------

The optimization has not yet converged - more geometry cycles are needed


    ---------------------------------------------------------------------------
                         Redundant Internal Coordinates
                            (Angstroem and degrees)

        Definition                    Value    dE/dq     Step     New-Value
    ----------------------------------------------------------------------------
     1. B(C   1,C   0)                1.3793 -0.000058  0.0000    1.3793   
     2. B(C   2,C   0)                1.3807 -0.000195  0.0002    1.3808   
     3. B(H   3,C   1)                1.0834  0.000034 -0.0000    1.0833   
     4. B(H   4,C   2)                1.0834  0.000035 -0.0001    1.0834   
     5. B(C   5,C   1)                1.3874 -0.000158  0.0001    1.3875   
     6. B(C   6,C   2)                1.3863 -0.000030  0.0000    1.3863   
     7. B(H   7,C   5)                1.0852  0.000040 -0.0001    1.0851   
     8. B(H   8,C   6)                1.0837  0.000041 -0.0001    1.0836   
     9. B(C   9,C   6)                1.3911 -0.000061  0.0000    1.3911   
    10. B(C   9,C   5)                1.3909 -0.000030  0.0000    1.3909   
    11. B(O  10,C   9)                1.3567 -0.000062  0.0001    1.3568   
    12. B(H  11,O  10)                0.9641  0.000050 -0.0001    0.9640   
    13. B(F  12,C   0)                1.3498 -0.000034  0.0000    1.3498   
    14. A(C   1,C   0,F  12)          118.98 -0.000078    0.01    118.99   
    15. A(C   2,C   0,F  12)          119.06  0.000013   -0.00    119.06   
    16. A(C   1,C   0,C   2)          121.96  0.000066   -0.01    121.96   
    17. A(H   3,C   1,C   5)          120.96 -0.000023    0.00    120.96   
    18. A(C   0,C   1,C   5)          118.85 -0.000040    0.01    118.86   
    19. A(C   0,C   1,H   3)          120.19  0.000063   -0.01    120.18   
    20. A(H   4,C   2,C   6)          120.92 -0.000122    0.02    120.94   
    21. A(C   0,C   2,C   6)          118.96 -0.000024    0.00    118.96   
    22. A(C   0,C   2,H   4)          120.12  0.000145   -0.02    120.10   
    23. A(H   7,C   5,C   9)          119.79 -0.000064    0.01    119.80   
    24. A(C   1,C   5,C   9)          120.21  0.000038   -0.01    120.21   
    25. A(C   1,C   5,H   7)          120.00  0.000026   -0.00    119.99   
    26. A(H   8,C   6,C   9)          119.52  0.000142   -0.02    119.49   
    27. A(C   2,C   6,C   9)          120.11  0.000001   -0.00    120.11   
    28. A(C   2,C   6,H   8)          120.37 -0.000143    0.02    120.39   
    29. A(C   5,C   9,O  10)          122.35  0.000055   -0.01    122.34   
    30. A(C   5,C   9,C   6)          119.90 -0.000041    0.00    119.90   
    31. A(C   6,C   9,O  10)          117.75 -0.000014    0.00    117.75   
    32. A(C   9,O  10,H  11)          109.69  0.000180   -0.03    109.66   
    33. D(C   5,C   1,C   0,C   2)      0.00 -0.000000    0.00      0.00   
    34. D(C   5,C   1,C   0,F  12)    180.00 -0.000000    0.00    180.00   
    35. D(H   3,C   1,C   0,F  12)      0.00  0.000000   -0.00     -0.00   
    36. D(H   3,C   1,C   0,C   2)    180.00  0.000000   -0.00    180.00   
    37. D(C   6,C   2,C   0,C   1)      0.00  0.000000   -0.00     -0.00   
    38. D(H   4,C   2,C   0,C   1)    180.00 -0.000000    0.00    180.00   
    39. D(H   4,C   2,C   0,F  12)      0.00 -0.000000    0.00      0.00   
[...]
     17      -0.000000  -0.040365  -0.000000   0.000000  -0.019913  -0.056714
     18      -0.104250   0.000000  -0.056316   0.104301   0.000000   0.000000
     19       0.000000   0.310916   0.000000  -0.000000   0.167205  -0.031490
     20      -0.000000  -0.060863  -0.000000  -0.000000  -0.030345   0.062955
     21       0.446596   0.000001   0.567527   0.332508  -0.000000   0.000000
     22      -0.000000  -0.234080  -0.000000   0.000000  -0.317624   0.128287
     23      -0.000000  -0.223472  -0.000000   0.000000   0.247517  -0.375620
     24       0.525166  -0.000000   0.318571  -0.602016  -0.000001  -0.000001
     25       0.000000   0.215622   0.000000  -0.000000   0.376331   0.206470
     26       0.000000  -0.238037   0.000000  -0.000001   0.290103   0.446350
     27       0.152281  -0.000001   0.035932  -0.012787  -0.000000  -0.000000
     28       0.000000   0.001658   0.000000  -0.000000  -0.000079   0.043692
     29      -0.000000   0.026984  -0.000000   0.000000   0.008092  -0.003729
     30      -0.028606   0.000000  -0.009541   0.002806   0.000000   0.000000
     31      -0.000000  -0.009484  -0.000000  -0.000000  -0.000411   0.001428
     32      -0.000000  -0.199185   0.000000  -0.000000  -0.006215  -0.004399
     33      -0.047087   0.000000  -0.007887   0.012167   0.000000   0.000000
     34       0.000000  -0.027269   0.000000   0.000000   0.004045  -0.051725
     35      -0.000000  -0.160180   0.000000  -0.000000  -0.018685   0.139155
     36      -0.020453   0.000000   0.009795  -0.002127   0.000000  -0.000000
     37      -0.000000   0.006911   0.000000   0.000000  -0.000971  -0.004030
     38       0.000000   0.153712  -0.000000  -0.000000  -0.014867   0.001796
                 24         25         26         27         28         29    
      0      -0.000000  -0.000000   0.000000  -0.000000  -0.000000  -0.000000
      1      -0.002792  -0.019407   0.000615   0.046872  -0.169273   0.175491
      2      -0.032800  -0.012069   0.330066  -0.146448  -0.034727  -0.026575
      3       0.000000  -0.000000  -0.000000   0.000000   0.000000   0.000000
      4       0.018035   0.007833   0.045929   0.089905   0.031686  -0.117646
      5       0.029764   0.023890   0.057630  -0.071458  -0.051921  -0.214419
      6       0.000000  -0.000000   0.000000   0.000000   0.000000   0.000000
      7      -0.023118   0.037818  -0.032705  -0.067558  -0.003091  -0.128587
      8       0.023629   0.000499   0.049306  -0.125696   0.004244   0.208662
      9      -0.000000   0.000001   0.000000  -0.000000   0.000001  -0.000000
     10       0.317449  -0.015423  -0.153339  -0.137013   0.282340   0.162027
     11       0.494029  -0.013670  -0.230023  -0.460076   0.321186   0.218287
     12      -0.000000   0.000000  -0.000001  -0.000001  -0.000001   0.000001
     13      -0.228687  -0.013248   0.167999  -0.173038   0.256455   0.168503
     14       0.402129   0.102874  -0.297241   0.029692  -0.480101  -0.352193
     15      -0.000000   0.000000  -0.000000  -0.000000  -0.000000   0.000000
     16       0.042591   0.055949  -0.070811   0.002766   0.065970  -0.078391
     17      -0.041110  -0.014318  -0.062637   0.123542  -0.023518   0.195440
     18       0.000000   0.000000  -0.000000   0.000000  -0.000000   0.000000
     19      -0.044193   0.046411   0.094756   0.000154   0.078333  -0.069898
     20      -0.020003   0.005625  -0.047542   0.094488   0.081802  -0.139067
     21      -0.000000  -0.000000  -0.000000   0.000000  -0.000000   0.000000
     22       0.240328   0.163694   0.189310   0.366864  -0.137764   0.045939
     23      -0.419180  -0.205788  -0.571964  -0.525715   0.392743  -0.027152
     24       0.000000   0.000000   0.000001   0.000000   0.000000  -0.000000
     25      -0.262507   0.240519  -0.159379   0.019147  -0.222307  -0.036980
     26      -0.359239   0.300176  -0.460352   0.159587  -0.392085  -0.085585
     27      -0.000000  -0.000000   0.000001   0.000000   0.000000  -0.000000
     28       0.006946  -0.107892  -0.017067  -0.063872  -0.011884   0.224849
     29      -0.000051  -0.058156   0.094192   0.350700   0.069985   0.018866
     30       0.000000   0.000000  -0.000000  -0.000000   0.000000  -0.000000
     31      -0.003123  -0.056304  -0.014658  -0.007585  -0.024751  -0.047917
     32      -0.000280   0.078825  -0.038683  -0.183741  -0.026258   0.018214
     33       0.000000  -0.000000  -0.000000   0.000000  -0.000000   0.000000
     34      -0.001084   0.276085   0.042992   0.007925   0.071424   0.215110
     35      -0.004823  -0.814236  -0.189927  -0.234675  -0.285093  -0.665029
     36      -0.000000   0.000000  -0.000000   0.000000   0.000000   0.000000
     37       0.000755  -0.000253  -0.005401  -0.003290   0.012793   0.007249
     38       0.019895   0.001553  -0.140774   0.067118   0.016640   0.005905
                 30         31         32         33         34         35    
      0       0.000000  -0.000000   0.000000   0.000000   0.000000   0.000000
      1      -0.177000  -0.045786  -0.263538  -0.275976  -0.000035   0.000930
      2       0.044300  -0.183786   0.170000  -0.126403  -0.000448  -0.001479
      3      -0.000000   0.000000  -0.000000  -0.000000   0.000000  -0.000000
      4       0.032115   0.136793   0.078013   0.231211   0.019871   0.003093
      5      -0.153650   0.094263  -0.165599   0.266830  -0.009346  -0.001752
      6       0.000000   0.000000  -0.000000  -0.000000  -0.000000   0.000000
      7       0.088443  -0.092028   0.219582   0.101153  -0.003211  -0.042295
      8       0.131028   0.122638  -0.313390   0.129692  -0.001402  -0.019595
      9       0.000001   0.000001  -0.000000   0.000000  -0.000000  -0.000000
     10       0.281665  -0.151847   0.198823  -0.139441  -0.227334  -0.033880
     11       0.197717  -0.390723  -0.013154  -0.336575   0.142956   0.021706
     12      -0.000002   0.000001   0.000000   0.000000  -0.000000  -0.000000
     13       0.213525   0.174950  -0.139535   0.174512   0.036475   0.482488
     14      -0.044179  -0.397293   0.385648   0.034152   0.019448   0.256338
     15      -0.000000   0.000000   0.000000   0.000000  -0.000000  -0.000000
     16       0.052353  -0.102251  -0.197927  -0.096069  -0.074418   0.004472
     17       0.143731   0.117542   0.305774  -0.150562  -0.037935   0.002850
     18      -0.000000   0.000000   0.000000   0.000000  -0.000000  -0.000000
     19      -0.005981   0.104306  -0.080514  -0.228302   0.002232   0.061500
     20      -0.205211   0.061898   0.173984  -0.270585  -0.000666  -0.037097
     21      -0.000001  -0.000000  -0.000000  -0.000000  -0.000000  -0.000000
     22       0.271253   0.198294   0.146607  -0.198167   0.850325  -0.051371
     23      -0.235050  -0.489588  -0.372422   0.016041   0.441382  -0.027194
     24       0.000001   0.000000   0.000000  -0.000000   0.000000  -0.000000
     25       0.370683  -0.139769  -0.200993   0.148890  -0.023536  -0.701070
     26       0.348295  -0.353050   0.021435   0.346215   0.014042   0.444537
     27       0.000000  -0.000001   0.000000  -0.000000   0.000000   0.000000
     28      -0.186067  -0.031801   0.261591   0.296985   0.002422  -0.002420
     29       0.023589  -0.196296  -0.170787   0.165923  -0.003021  -0.001732
     30      -0.000000   0.000000  -0.000000   0.000000  -0.000000  -0.000000
     31       0.061289   0.016371  -0.028677  -0.040359  -0.000293   0.000267
     32      -0.025155   0.039439   0.031515  -0.008539   0.000279   0.000095
     33      -0.000000  -0.000000   0.000000   0.000000   0.000000   0.000000
     34      -0.137560  -0.049641   0.062178   0.104204   0.002212  -0.000994
     35       0.488957   0.204418  -0.199171  -0.352733   0.007428   0.000937
     36      -0.000000   0.000000   0.000000  -0.000000  -0.000000  -0.000000
     37       0.019354   0.003968   0.009713   0.010877  -0.000017  -0.000034
     38      -0.008663   0.032181  -0.017102   0.013315  -0.000017   0.000152
                 36         37         38    
      0      -0.000000   0.000000  -0.000000
      1       0.003881   0.002632  -0.000011
      2       0.002644  -0.003305   0.000108
      3      -0.000000  -0.000000   0.000000
      4      -0.071003   0.007166   0.000046
      5       0.045937  -0.004134   0.000101
      6      -0.000000   0.000000   0.000000
      7      -0.008679  -0.064287   0.000108
      8      -0.005272  -0.035898   0.000073
      9       0.000000   0.000000   0.000000
     10       0.803039  -0.078189   0.000506
     11      -0.516161   0.049756  -0.000807
     12      -0.000000  -0.000000  -0.000000
     13       0.100792   0.725905  -0.000669
     14       0.054681   0.391042  -0.000274
     15      -0.000000  -0.000000  -0.000000
     16      -0.020335   0.003796  -0.000604
     17      -0.013972   0.001857  -0.000787
     18       0.000000  -0.000000  -0.000000
     19      -0.000529  -0.040564  -0.000641
     20       0.001095   0.028776  -0.000583
     21      -0.000000  -0.000000   0.000000
     22       0.229375  -0.040433   0.003497
     23       0.122214  -0.020920   0.002721
     24       0.000000   0.000000  -0.000000
     25       0.008542   0.462158  -0.000338
     26      -0.006127  -0.296455  -0.000043
     27       0.000000   0.000000   0.000000
     28       0.001369   0.001996   0.002109
     29      -0.001286   0.002124   0.000474
     30      -0.000000  -0.000000  -0.000000
     31      -0.000224  -0.000162   0.057953
     32       0.000236  -0.000303   0.022625
     33      -0.000000  -0.000000   0.000000
     34       0.001535  -0.000640  -0.934551
     35       0.001780  -0.001909  -0.350310
     36       0.000000  -0.000000   0.000000
     37      -0.000223  -0.000140  -0.000015
     38      -0.000394   0.000496  -0.000163


-----------
IR SPECTRUM
-----------

 Mode   freq       eps      Int      T**2         TX        TY        TZ
       cm**-1   L/(mol*cm) km/mol    a.u.
----------------------------------------------------------------------------
  6:    157.51   0.000026    0.13  0.000051  (-0.007150 -0.000000 -0.000002)
  7:    344.62   0.035495  179.38  0.032141  ( 0.179280  0.000000  0.000000)
  8:    350.63   0.001452    7.34  0.001293  ( 0.000002 -0.016806 -0.031782)
  9:    375.46   0.000052    0.26  0.000043  ( 0.006562 -0.000000 -0.000002)
 10:    433.31   0.000096    0.48  0.000069  ( 0.008300  0.000003  0.000001)
 11:    451.39   0.001886    9.53  0.001304  ( 0.000000 -0.013646  0.033429)
 12:    466.02   0.000398    2.01  0.000266  ( 0.000000 -0.002173 -0.016176)
 13:    522.75   0.007563   38.22  0.004515  (-0.067195 -0.000001 -0.000005)
 14:    651.26   0.000214    1.08  0.000103  (-0.000000  0.003965 -0.009320)
 15:    724.16   0.000115    0.58  0.000050  (-0.007046 -0.000001  0.000001)
 16:    763.27   0.022768  115.06  0.009309  ( 0.000000  0.002634  0.096446)
 17:    814.05   0.000433    2.19  0.000166  ( 0.012888 -0.000001 -0.000000)
 18:    853.78   0.023898  120.77  0.008735  ( 0.093461 -0.000001 -0.000001)
 19:    874.70   0.000129    0.65  0.000046  (-0.000000  0.000472 -0.006766)
 20:    943.79   0.000057    0.29  0.000019  (-0.004341  0.000000 -0.000001)
 21:    962.80   0.000000    0.00  0.000000  ( 0.000160  0.000002  0.000000)
 22:   1028.61   0.001065    5.38  0.000323  (-0.000000  0.002799  0.017752)
 23:   1109.12   0.006627   33.49  0.001864  (-0.000000  0.041091  0.013266)
 24:   1165.38   0.000215    1.09  0.000058  (-0.000000  0.004398 -0.006183)
 25:   1197.47   0.053734  271.55  0.014003  ( 0.000000  0.012684 -0.117653)
 26:   1241.20   0.044311  223.93  0.011141  ( 0.000000  0.009616  0.105110)
 27:   1307.09   0.010504   53.08  0.002508  ( 0.000000  0.006567  0.049646)
 28:   1321.53   0.000790    3.99  0.000187  ( 0.000000  0.004332 -0.012955)
 29:   1381.34   0.006721   33.96  0.001518  (-0.000000 -0.015751 -0.035640)
 30:   1480.21   0.011649   58.87  0.002456  ( 0.000000 -0.008236  0.048868)
 31:   1547.05   0.079524  401.88  0.016041  ( 0.000000 -0.007114 -0.126454)
 32:   1669.11   0.001708    8.63  0.000319  (-0.000000 -0.001141 -0.017832)
 33:   1678.63   0.000182    0.92  0.000034  (-0.000000  0.001644  0.005585)
 34:   3193.52   0.001368    6.91  0.000134  (-0.000000 -0.002959 -0.011177)
 35:   3206.79   0.000866    4.37  0.000084  ( 0.000000  0.002303 -0.008884)
 36:   3218.47   0.000080    0.40  0.000008  (-0.000000  0.000526  0.002736)
 37:   3220.64   0.000030    0.15  0.000003  ( 0.000000 -0.001159 -0.001256)
 38:   3824.02   0.035416  178.98  0.002890  ( 0.000000 -0.037753 -0.038274)

* The epsilon (eps) is given for a Dirac delta lineshape.
** The dipole moment derivative (T) already includes vibrational overlap.

The first frequency considered to be a vibration is 6
The total number of vibrations considered is 33


--------------------------
THERMOCHEMISTRY AT 298.15K
--------------------------

Temperature         ... 298.15 K
Pressure            ... 1.00 atm
Total Mass          ... 112.10 AMU

Throughout the following assumptions are being made:
  (1) The electronic state is orbitally nondegenerate
  (2) There are no thermally accessible electronically excited states
  (3) Hindered rotations indicated by low frequency modes are not
      treated as such but are treated as vibrations and this may
      cause some error
  (4) All equations used are the standard statistical mechanics
      equations for an ideal gas
  (5) All vibrations are strictly harmonic

freq.     157.51  E(vib)   ...       0.40 
freq.     344.62  E(vib)   ...       0.23 
freq.     350.63  E(vib)   ...       0.23 
freq.     375.46  E(vib)   ...       0.21 
freq.     433.31  E(vib)   ...       0.17 
freq.     451.39  E(vib)   ...       0.16 
freq.     466.02  E(vib)   ...       0.16 
freq.     522.75  E(vib)   ...       0.13 
freq.     651.26  E(vib)   ...       0.08 
freq.     724.16  E(vib)   ...       0.06 
freq.     763.27  E(vib)   ...       0.06 
freq.     814.05  E(vib)   ...       0.05 
freq.     853.78  E(vib)   ...       0.04 
freq.     874.70  E(vib)   ...       0.04 
freq.     943.79  E(vib)   ...       0.03 
freq.     962.80  E(vib)   ...       0.03 
freq.    1028.61  E(vib)   ...       0.02 
freq.    1109.12  E(vib)   ...       0.02 
freq.    1165.38  E(vib)   ...       0.01 
freq.    1197.47  E(vib)   ...       0.01 
freq.    1241.20  E(vib)   ...       0.01 
freq.    1307.09  E(vib)   ...       0.01 
freq.    1321.53  E(vib)   ...       0.01 
freq.    1381.34  E(vib)   ...       0.01 
freq.    1480.21  E(vib)   ...       0.00 
freq.    1547.05  E(vib)   ...       0.00 
freq.    1669.11  E(vib)   ...       0.00 
freq.    1678.63  E(vib)   ...       0.00 
freq.    3193.52  E(vib)   ...       0.00 
freq.    3206.79  E(vib)   ...       0.00 
freq.    3218.47  E(vib)   ...       0.00 
freq.    3220.64  E(vib)   ...       0.00 
freq.    3824.02  E(vib)   ...       0.00 

------------
INNER ENERGY
------------

The inner energy is: U= E(el) + E(ZPE) + E(vib) + E(rot) + E(trans)
    E(el)   - is the total energy from the electronic structure calculation
              = E(kin-el) + E(nuc-el) + E(el-el) + E(nuc-nuc)
    E(ZPE)  - the the zero temperature vibrational energy from the frequency calculation
    E(vib)  - the the finite temperature correction to E(ZPE) due to population
              of excited vibrational states
    E(rot)  - is the rotational thermal energy
    E(trans)- is the translational thermal energy

Summary of contributions to the inner energy U:
Electronic energy                ...   -406.44035841 Eh
Zero point energy                ...      0.09677585 Eh      60.73 kcal/mol
Thermal vibrational correction   ...      0.00345559 Eh       2.17 kcal/mol
Thermal rotational correction    ...      0.00141627 Eh       0.89 kcal/mol
Thermal translational correction ...      0.00141627 Eh       0.89 kcal/mol
-----------------------------------------------------------------------
Total thermal energy                   -406.33729442 Eh


Summary of corrections to the electronic energy:
(perhaps to be used in another calculation)
Total thermal correction                  0.00628813 Eh       3.95 kcal/mol
Non-thermal (ZPE) correction              0.09677585 Eh      60.73 kcal/mol
-----------------------------------------------------------------------
Total correction                          0.10306399 Eh      64.67 kcal/mol


--------
ENTHALPY
--------

The enthalpy is H = U + kB*T
                kB is Boltzmann's constant
Total free energy                 ...   -406.33729442 Eh 
Thermal Enthalpy correction       ...      0.00094421 Eh       0.59 kcal/mol
-----------------------------------------------------------------------
Total Enthalpy                    ...   -406.33635022 Eh


Note: Rotational entropy computed according to Herzberg 
Infrared and Raman Spectra, Chapter V,1, Van Nostrand Reinhold, 1945 
Point Group:  Cs, Symmetry Number:   1  
Rotational constants in cm-1:     0.189385     0.048881     0.038853 

Vibrational entropy computed according to the QRRHO of S. Grimme
Chem.Eur.J. 2012 18 9955


-------
ENTROPY
-------

The entropy contributions are T*S = T*(S(el)+S(vib)+S(rot)+S(trans))
     S(el)   - electronic entropy
     S(vib)  - vibrational entropy
     S(rot)  - rotational entropy
     S(trans)- translational entropy
The entropies will be listed as multiplied by the temperature to get
units of energy

Electronic entropy                ...      0.00000000 Eh      0.00 kcal/mol
Vibrational entropy               ...      0.00521568 Eh      3.27 kcal/mol
Rotational entropy                ...      0.01325463 Eh      8.32 kcal/mol
Translational entropy             ...      0.01903305 Eh     11.94 kcal/mol
-----------------------------------------------------------------------
Final entropy term                ...      0.03750336 Eh     23.53 kcal/mol

In case the symmetry of your molecule has not been determined correctly
or in case you have a reason to use a different symmetry number we print 
out the resulting rotational entropy values for sn=1,12 :
 --------------------------------------------------------
|  sn= 1 | S(rot)=       0.01325463 Eh      8.32 kcal/mol|
|  sn= 2 | S(rot)=       0.01260017 Eh      7.91 kcal/mol|
|  sn= 3 | S(rot)=       0.01221734 Eh      7.67 kcal/mol|
|  sn= 4 | S(rot)=       0.01194572 Eh      7.50 kcal/mol|
|  sn= 5 | S(rot)=       0.01173503 Eh      7.36 kcal/mol|
|  sn= 6 | S(rot)=       0.01156288 Eh      7.26 kcal/mol|
|  sn= 7 | S(rot)=       0.01141734 Eh      7.16 kcal/mol|
|  sn= 8 | S(rot)=       0.01129126 Eh      7.09 kcal/mol|
|  sn= 9 | S(rot)=       0.01118005 Eh      7.02 kcal/mol|
|  sn=10 | S(rot)=       0.01108057 Eh      6.95 kcal/mol|
|  sn=11 | S(rot)=       0.01099058 Eh      6.90 kcal/mol|
|  sn=12 | S(rot)=       0.01090843 Eh      6.85 kcal/mol|
 --------------------------------------------------------


-------------------
GIBBS FREE ENERGY
-------------------

The Gibbs free energy is G = H - T*S

Total enthalpy                    ...   -406.33635022 Eh 
Total entropy correction          ...     -0.03750336 Eh    -23.53 kcal/mol
-----------------------------------------------------------------------
Final Gibbs free energy         ...   -406.37385358 Eh

For completeness - the Gibbs free energy minus the electronic energy
G-E(el)                           ...      0.06650483 Eh     41.73 kcal/mol


Timings for individual modules:

Sum of individual times         ...      196.973 sec (=   3.283 min)
GTO integral calculation        ...        6.235 sec (=   0.104 min)   3.2 %
SCF iterations                  ...       57.632 sec (=   0.961 min)  29.3 %
SCF Gradient evaluation         ...       13.246 sec (=   0.221 min)   6.7 %
Geometry relaxation             ...        0.260 sec (=   0.004 min)   0.1 %
Analytical frequency calculation...      119.600 sec (=   1.993 min)  60.7 %
                             ****ORCA TERMINATED NORMALLY****
TOTAL RUN TIME: 0 days 0 hours 3 minutes 31 seconds 979 msec
