
                                 *****************
                                 * O   R   C   A *
                                 *****************

                                            #,                                       
                                            ###                                      
                                            ####                                     
                                            #####                                    
                                            ######                                   
                                           ########,                                 
                                     ,,################,,,,,                         
                               ,,#################################,,                 
                          ,,##########################################,,             
                       ,#########################################, ''#####,          
                    ,#############################################,,   '####,        
                  ,##################################################,,,,####,       
                ,###########''''           ''''###############################       
              ,#####''   ,,,,##########,,,,          '''####'''          '####       
            ,##' ,,,,###########################,,,                        '##       
           ' ,,###''''                  '''############,,,                           
         ,,##''                                '''############,,,,        ,,,,,,###''
      ,#''                                            '''#######################'''  
     '                                                          ''''####''''         
             ,#######,   #######,   ,#######,      ##                                
            ,#'     '#,  ##    ##  ,#'     '#,    #''#        ######   ,####,        
            ##       ##  ##   ,#'  ##            #'  '#       #        #'  '#        
            ##       ##  #######   ##           ,######,      #####,   #    #        
            '#,     ,#'  ##    ##  '#,     ,#' ,#      #,         ##   #,  ,#        
             '#######'   ##     ##  '#######'  #'      '#     #####' # '####'        



                  #######################################################
                  #                        -***-                        #
                  #          Department of theory and spectroscopy      #
                  #    Directorship and core code : Frank Neese         #
                  #        Max Planck Institute fuer Kohlenforschung    #
                  #                Kaiser Wilhelm Platz 1               #
                  #                 D-45470 Muelheim/Ruhr               #
                  #                      Germany                        #
                  #                                                     #
                  #                  All rights reserved                #
                  #                        -***-                        #
                  #######################################################


                         Program Version 5.0.4 -  RELEASE  -


 With contributions from (in alphabetic order):
   Daniel Aravena         : Magnetic Suceptibility
   Michael Atanasov       : Ab Initio Ligand Field Theory (pilot matlab implementation)
   Alexander A. Auer      : GIAO ZORA, VPT2 properties, NMR spectrum
   Ute Becker             : Parallelization
   Giovanni Bistoni       : ED, misc. LED, open-shell LED, HFLD
   Martin Brehm           : Molecular dynamics
   Dmytro Bykov           : SCF Hessian
   Vijay G. Chilkuri      : MRCI spin determinant printing, contributions to CSF-ICE
   Dipayan Datta          : RHF DLPNO-CCSD density
   Achintya Kumar Dutta   : EOM-CC, STEOM-CC
   Dmitry Ganyushin       : Spin-Orbit,Spin-Spin,Magnetic field MRCI
   Miquel Garcia          : C-PCM and meta-GGA Hessian, CC/C-PCM, Gaussian charge scheme
   Yang Guo               : DLPNO-NEVPT2, F12-NEVPT2, CIM, IAO-localization
   Andreas Hansen         : Spin unrestricted coupled pair/coupled cluster methods
   Benjamin Helmich-Paris : MC-RPA, TRAH-SCF, COSX integrals
   Lee Huntington         : MR-EOM, pCC
   Robert Izsak           : Overlap fitted RIJCOSX, COSX-SCS-MP3, EOM
   Marcus Kettner         : VPT2
   Christian Kollmar      : KDIIS, OOCD, Brueckner-CCSD(T), CCSD density, CASPT2, CASPT2-K
   Simone Kossmann        : Meta GGA functionals, TD-DFT gradient, OOMP2, MP2 Hessian
   Martin Krupicka        : Initial AUTO-CI
   Lucas Lang             : DCDCAS
   Marvin Lechner         : AUTO-CI (C++ implementation), FIC-MRCC
   Dagmar Lenk            : GEPOL surface, SMD
   Dimitrios Liakos       : Extrapolation schemes; Compound Job, initial MDCI parallelization
   Dimitrios Manganas     : Further ROCIS development; embedding schemes
   Dimitrios Pantazis     : SARC Basis sets
   Anastasios Papadopoulos: AUTO-CI, single reference methods and gradients
   Taras Petrenko         : DFT Hessian,TD-DFT gradient, ASA, ECA, R-Raman, ABS, FL, XAS/XES, NRVS
   Peter Pinski           : DLPNO-MP2, DLPNO-MP2 Gradient
   Christoph Reimann      : Effective Core Potentials
   Marius Retegan         : Local ZFS, SOC
   Christoph Riplinger    : Optimizer, TS searches, QM/MM, DLPNO-CCSD(T), (RO)-DLPNO pert. Triples
   Tobias Risthaus        : Range-separated hybrids, TD-DFT gradient, RPA, STAB
   Michael Roemelt        : Original ROCIS implementation
   Masaaki Saitow         : Open-shell DLPNO-CCSD energy and density
   Barbara Sandhoefer     : DKH picture change effects
   Avijit Sen             : IP-ROCIS
   Kantharuban Sivalingam : CASSCF convergence, NEVPT2, FIC-MRCI
   Bernardo de Souza      : ESD, SOC TD-DFT
   Georgi Stoychev        : AutoAux, RI-MP2 NMR, DLPNO-MP2 response
   Willem Van den Heuvel  : Paramagnetic NMR
   Boris Wezisla          : Elementary symmetry handling
   Frank Wennmohs         : Technical directorship


 We gratefully acknowledge several colleagues who have allowed us to
 interface, adapt or use parts of their codes:
   Stefan Grimme, W. Hujo, H. Kruse, P. Pracht,  : VdW corrections, initial TS optimization,
                  C. Bannwarth, S. Ehlert          DFT functionals, gCP, sTDA/sTD-DF
   Ed Valeev, F. Pavosevic, A. Kumar             : LibInt (2-el integral package), F12 methods
   Garnet Chan, S. Sharma, J. Yang, R. Olivares  : DMRG
   Ulf Ekstrom                                   : XCFun DFT Library
   Mihaly Kallay                                 : mrcc  (arbitrary order and MRCC methods)
   Jiri Pittner, Ondrej Demel                    : Mk-CCSD
   Frank Weinhold                                : gennbo (NPA and NBO analysis)
   Christopher J. Cramer and Donald G. Truhlar   : smd solvation model
   Lars Goerigk                                  : TD-DFT with DH, B97 family of functionals
   V. Asgeirsson, H. Jonsson                     : NEB implementation
   FAccTs GmbH                                   : IRC, NEB, NEB-TS, DLPNO-Multilevel, CI-OPT
                                                   MM, QMMM, 2- and 3-layer-ONIOM, Crystal-QMMM,
                                                   LR-CPCM, SF, NACMEs, symmetry and pop. for TD-DFT,
                                                   nearIR, NL-DFT gradient (VV10), updates on ESD,
                                                   ML-optimized integration grids
   S Lehtola, MJT Oliveira, MAL Marques          : LibXC Library
   Liviu Ungur et al                             : ANISO software


 Your calculation uses the libint2 library for the computation of 2-el integrals
 For citations please refer to: http://libint.valeyev.net

 Your ORCA version has been built with support for libXC version: 5.1.0
 For citations please refer to: https://tddft.org/programs/libxc/

 This ORCA versions uses:
   CBLAS   interface :  Fast vector & matrix operations
   LAPACKE interface :  Fast linear algebra routines
   SCALAPACK package :  Parallel linear algebra routines
   Shared memory     :  Shared parallel matrices
   BLAS/LAPACK       :  OpenBLAS 0.3.15  USE64BITINT DYNAMIC_ARCH NO_AFFINITY Haswell SINGLE_THREADED
        Core in use  :  Haswell
   Copyright (c) 2011-2014, The OpenBLAS Project


Your calculation utilizes the atom-pairwise dispersion correction
with the Becke-Johnson damping scheme (D3BJ)
Cite in your paper:
S.Grimme, S.Ehrlich, L.Goerigk, J Comput Chem, (2011), 32, 1456–1465 
S.Grimme, J.Antony, S.Ehrlich and H.Krieg, J.Chem.Phys., 132, (2010), 154104 
   

================================================================================

----- Orbital basis set information -----
Your calculation utilizes the basis: def2-TZVP
   F. Weigend and R. Ahlrichs, Phys. Chem. Chem. Phys. 7, 3297 (2005).

----- AuxJ basis set information -----
Your calculation utilizes the auxiliary basis: def2/J
   F. Weigend, Phys. Chem. Chem. Phys. 8, 1057 (2006).

================================================================================
                                        WARNINGS
                       Please study these warnings very carefully!
================================================================================


WARNING: Geometry Optimization
  ===> : Switching off AutoStart
         For restart on a previous wavefunction, please use MOREAD

INFO   : the flag for use of the SHARK integral package has been found!

================================================================================
                                       INPUT FILE
================================================================================
NAME = Me-PhenO/Me-PhenO.inp
|  1> %pal nprocs 24 end
|  2> %maxcore 3500
|  3> ! PBE0 D3BJ def2-TZVP TightSCF OPT FREQ TightOpt
|  4> ! CPCM(dmso)
|  5> %scf
|  6> MaxIter 800
|  7> end
|  8> %geom
|  9> MaxIter 800
| 10> MaxStep 0.2
| 11> end
| 12> *xyz -1 1
| 13> 
| 14> C      -0.01761400     -0.55008800     -1.59649000
| 15> C      -0.01366200      0.66100200     -0.90291700
| 16> C      -0.01316000     -1.71011500     -0.82036100
| 17> H      -0.02492200      1.59009000     -1.46996400
| 18> H      -0.02400300     -2.67659000     -1.32101400
| 19> C       0.00113800      0.72026400      0.48085400
| 20> C       0.00161000     -1.67341100      0.56423100
| 21> H      -0.00151800      1.68545600      0.98181300
| 22> H      -0.00072000     -2.60218400      1.12992800
| 23> C       0.01232800     -0.44962800      1.29773500
| 24> O       0.02542700     -0.40464200      2.57866100
| 25> C       0.00788900     -0.60210400     -3.09675400
| 26> H       1.03033900     -0.62613100     -3.49266700
| 27> H      -0.50052000     -1.49359200     -3.47350500
| 28> H      -0.48261100      0.27177300     -3.53364300
| 29> *
| 30> 
| 31>                          ****END OF INPUT****
================================================================================

                       *****************************
                       * Geometry Optimization Run *
                       *****************************

Geometry optimization settings:
Update method            Update   .... BFGS
Choice of coordinates    CoordSys .... Z-matrix Internals
Initial Hessian          InHess   .... Almoef's Model

Convergence Tolerances:
Energy Change            TolE     ....  1.0000e-06 Eh
Max. Gradient            TolMAXG  ....  1.0000e-04 Eh/bohr
RMS Gradient             TolRMSG  ....  3.0000e-05 Eh/bohr
Max. Displacement        TolMAXD  ....  1.0000e-03 bohr
RMS Displacement         TolRMSD  ....  6.0000e-04 bohr
Strict Convergence                ....  False
------------------------------------------------------------------------------
                        ORCA OPTIMIZATION COORDINATE SETUP
------------------------------------------------------------------------------

The optimization will be done in new redundant internal coordinates
Making redundant internal coordinates   ...  (new redundants) done
Evaluating the initial hessian          ...  (Almloef) done
Evaluating the coordinates              ...  done
Calculating the B-matrix                .... done
Calculating the G-matrix                .... done
Diagonalizing the G-matrix              .... done
The first mode is                       ....   30
The number of degrees of freedom        ....   39

    -----------------------------------------------------------------
                    Redundant Internal Coordinates


    -----------------------------------------------------------------
         Definition                    Initial Value    Approx d2E/dq
    -----------------------------------------------------------------
      1. B(C   1,C   0)                  1.3956         0.611995   
      2. B(C   2,C   0)                  1.3957         0.611785   
      3. B(H   3,C   1)                  1.0885         0.362065   
      4. B(H   4,C   2)                  1.0885         0.362082   
      5. B(C   5,C   1)                  1.3851         0.636102   
      6. B(C   6,C   2)                  1.3852         0.636012   
      7. B(H   7,C   5)                  1.0875         0.363480   
      8. B(H   8,C   6)                  1.0875         0.363434   
      9. B(C   9,C   6)                  1.4268         0.545770   
     10. B(C   9,C   5)                  1.4269         0.545574   
     11. B(O  10,C   9)                  1.2818         0.832778   
     12. B(C  11,C   0)                  1.5014         0.414988   
     13. B(H  12,C  11)                  1.0967         0.351358   
     14. B(H  13,C  11)                  1.0932         0.355840   
     15. B(H  14,C  11)                  1.0932         0.355869   
     16. A(C   2,C   0,C  11)          121.7903         0.403143   
     17. A(C   1,C   0,C  11)          121.7763         0.403168   
     18. A(C   1,C   0,C   2)          116.4151         0.432015   
     19. A(H   3,C   1,C   5)          118.9483         0.354772   
     20. A(C   0,C   1,C   5)          122.2512         0.435055   
     21. A(C   0,C   1,H   3)          118.8003         0.352458   
     22. A(H   4,C   2,C   6)          118.9071         0.354766   
     23. A(C   0,C   2,H   4)          118.8262         0.352440   
     24. A(C   0,C   2,C   6)          122.2665         0.435017   
     25. A(H   7,C   5,C   9)          117.6450         0.345922   
     26. A(C   1,C   5,C   9)          122.4750         0.426173   
     27. A(C   1,C   5,H   7)          119.8790         0.355007   
     28. A(H   8,C   6,C   9)          117.7180         0.345936   
     29. A(C   2,C   6,C   9)          122.4582         0.426189   
     30. A(C   2,C   6,H   8)          119.8228         0.354991   
     31. A(C   5,C   9,O  10)          122.9158         0.444423   
     32. A(C   5,C   9,C   6)          114.1326         0.414684   
     33. A(C   6,C   9,O  10)          122.9510         0.444452   
     34. A(H  13,C  11,H  14)          107.7862         0.289759   
     35. A(H  12,C  11,H  14)          106.9504         0.289184   
     36. A(C   0,C  11,H  14)          111.3475         0.329342   
     37. A(H  12,C  11,H  13)          106.9353         0.289180   
     38. A(C   0,C  11,H  13)          111.3900         0.329337   
     39. A(C   0,C  11,H  12)          112.1686         0.328649   
     40. D(H   3,C   1,C   0,C   2)   -179.5192         0.025877   
     41. D(C   5,C   1,C   0,C   2)      0.3368         0.025877   
     42. D(H   3,C   1,C   0,C  11)      2.0110         0.025877   
     43. D(C   5,C   1,C   0,C  11)   -178.1330         0.025877   
     44. D(C   6,C   2,C   0,C   1)     -0.3351         0.025858   
     45. D(H   4,C   2,C   0,C   1)    179.5199         0.025858   
     46. D(H   4,C   2,C   0,C  11)     -2.0106         0.025858   
     47. D(C   6,C   2,C   0,C  11)    178.1344         0.025858   
     48. D(C   9,C   5,C   1,H   3)    179.8043         0.028090   
     49. D(C   9,C   5,C   1,C   0)     -0.0515         0.028090   
     50. D(H   7,C   5,C   1,H   3)      0.1745         0.028090   
     51. D(H   7,C   5,C   1,C   0)   -179.6813         0.028090   
     52. D(H   8,C   6,C   2,H   4)     -0.1771         0.028082   
     53. D(H   8,C   6,C   2,C   0)    179.6778         0.028082   
     54. D(C   9,C   6,C   2,C   0)      0.0480         0.028082   
     55. D(C   9,C   6,C   2,H   4)   -179.8069         0.028082   
     56. D(O  10,C   9,C   6,H   8)      0.3313         0.020366   
     57. D(C   5,C   9,C   6,H   8)   -179.4023         0.020366   
     58. D(C   5,C   9,C   6,C   2)      0.2349         0.020366   
     59. D(O  10,C   9,C   5,H   7)     -0.3293         0.020351   
     60. D(O  10,C   9,C   5,C   1)   -179.9669         0.020351   
     61. D(O  10,C   9,C   6,C   2)    179.9685         0.020366   
     62. D(C   6,C   9,C   5,H   7)    179.4044         0.020351   
     63. D(C   6,C   9,C   5,C   1)     -0.2332         0.020351   
     64. D(H  14,C  11,C   0,C   2)    151.5806         0.012744   
     65. D(H  14,C  11,C   0,C   1)    -30.0317         0.012744   
     66. D(H  13,C  11,C   0,C   2)     31.2280         0.012744   
     67. D(H  13,C  11,C   0,C   1)   -150.3843         0.012744   
     68. D(H  12,C  11,C   0,C   2)    -88.6008         0.012744   
     69. D(H  12,C  11,C   0,C   1)     89.7869         0.012744   
    -----------------------------------------------------------------

Number of atoms                         .... 15
Number of degrees of freedom            .... 69

         *************************************************************
         *                GEOMETRY OPTIMIZATION CYCLE   1            *
         *************************************************************
---------------------------------
CARTESIAN COORDINATES (ANGSTROEM)
---------------------------------
  C     -0.017614   -0.550088   -1.596490
  C     -0.013662    0.661002   -0.902917
  C     -0.013160   -1.710115   -0.820361
  H     -0.024922    1.590090   -1.469964
  H     -0.024003   -2.676590   -1.321014
  C      0.001138    0.720264    0.480854
  C      0.001610   -1.673411    0.564231
  H     -0.001518    1.685456    0.981813
  H     -0.000720   -2.602184    1.129928
  C      0.012328   -0.449628    1.297735
  O      0.025427   -0.404642    2.578661
  C      0.007889   -0.602104   -3.096754
  H      1.030339   -0.626131   -3.492667
  H     -0.500520   -1.493592   -3.473505
  H     -0.482611    0.271773   -3.533643

----------------------------
CARTESIAN COORDINATES (A.U.)
----------------------------
  NO LB      ZA    FRAG     MASS         X           Y           Z
   0 C     6.0000    0    12.011   -0.033286   -1.039516   -3.016929
   1 C     6.0000    0    12.011   -0.025817    1.249113   -1.706266
   2 C     6.0000    0    12.011   -0.024869   -3.231649   -1.550258
   3 H     1.0000    0     1.008   -0.047096    3.004835   -2.777829
   4 H     1.0000    0     1.008   -0.045359   -5.058022   -2.496355
   5 C     6.0000    0    12.011    0.002151    1.361102    0.908682
   6 C     6.0000    0    12.011    0.003042   -3.162288    1.066242
   7 H     1.0000    0     1.008   -0.002869    3.185050    1.855358
   8 H     1.0000    0     1.008   -0.001361   -4.917415    2.135254
   9 C     6.0000    0    12.011    0.023297   -0.849674    2.452364
  10 O     8.0000    0    15.999    0.048050   -0.764663    4.872963
  11 C     6.0000    0    12.011    0.014908   -1.137812   -5.852017
  12 H     1.0000    0     1.008    1.947059   -1.183216   -6.600184
  13 H     1.0000    0     1.008   -0.945846   -2.822480   -6.563973
  14 H     1.0000    0     1.008   -0.912003    0.513577   -6.677618

--------------------------------
INTERNAL COORDINATES (ANGSTROEM)
--------------------------------
 C      0   0   0     0.000000000000     0.00000000     0.00000000
 C      1   0   0     1.395635379579     0.00000000     0.00000000
 C      1   2   0     1.395728735638   116.41510280     0.00000000
 H      2   1   3     1.088518993657   118.80033404   180.48082014
 H      3   1   2     1.088505821153   118.82621038   179.51986085
 C      2   1   3     1.385118480523   122.25123452     0.33678269
 C      3   1   2     1.385157154615   122.26651589   359.66488115
 H      6   2   1     1.087456928288   119.87902561   180.31870180
 H      7   3   1     1.087491521915   119.82281189   179.67775547
 C      7   3   1     1.426810367438   122.45821748     0.04800572
 O     10   7   3     1.281782642055   122.95103652   179.96848500
 C      1   2   3     1.501382075609   121.77633039   181.53020168
 H     12   1   2     1.096689747740   112.16863930    89.78687165
 H     12   1   2     1.093239169361   111.39002562   209.61566309
 H     12   1   2     1.093216931560   111.34746377   329.96825894

---------------------------
INTERNAL COORDINATES (A.U.)
---------------------------
 C      0   0   0     0.000000000000     0.00000000     0.00000000
 C      1   0   0     2.637368650216     0.00000000     0.00000000
 C      1   2   0     2.637545067600   116.41510280     0.00000000
 H      2   1   3     2.057002789584   118.80033404   180.48082014
 H      3   1   2     2.056977897157   118.82621038   179.51986085
 C      2   1   3     2.617494591221   122.25123452     0.33678269
 C      3   1   2     2.617567674663   122.26651589   359.66488115
 H      6   2   1     2.054995776899   119.87902561   180.31870180
 H      7   3   1     2.055061149381   119.82281189   179.67775547
 C      7   3   1     2.696280839498   122.45821748     0.04800572
 O     10   7   3     2.422218156698   122.95103652   179.96848500
 C      1   2   3     2.837200945280   121.77633039   181.53020168
 H     12   1   2     2.072443277108   112.16863930    89.78687165
 H     12   1   2     2.065922628969   111.39002562   209.61566309
 H     12   1   2     2.065880605615   111.34746377   329.96825894

---------------------
BASIS SET INFORMATION
---------------------
There are 3 groups of distinct atoms

 Group   1 Type C   : 11s6p2d1f contracted to 5s3p2d1f pattern {62111/411/11/1}
 Group   2 Type H   : 5s1p contracted to 3s1p pattern {311/1}
 Group   3 Type O   : 11s6p2d1f contracted to 5s3p2d1f pattern {62111/411/11/1}

Atom   0C    basis set group =>   1
Atom   1C    basis set group =>   1
Atom   2C    basis set group =>   1
Atom   3H    basis set group =>   2
Atom   4H    basis set group =>   2
Atom   5C    basis set group =>   1
Atom   6C    basis set group =>   1
Atom   7H    basis set group =>   2
Atom   8H    basis set group =>   2
Atom   9C    basis set group =>   1
Atom  10O    basis set group =>   3
Atom  11C    basis set group =>   1
Atom  12H    basis set group =>   2
Atom  13H    basis set group =>   2
Atom  14H    basis set group =>   2
---------------------------------
AUXILIARY/J BASIS SET INFORMATION
---------------------------------
There are 3 groups of distinct atoms

 Group   1 Type C   : 12s5p4d2f1g contracted to 6s4p3d1f1g pattern {711111/2111/211/2/1}
 Group   2 Type H   : 5s2p1d contracted to 3s1p1d pattern {311/2/1}
 Group   3 Type O   : 12s5p4d2f1g contracted to 6s4p3d1f1g pattern {711111/2111/211/2/1}

Atom   0C    basis set group =>   1
Atom   1C    basis set group =>   1
Atom   2C    basis set group =>   1
Atom   3H    basis set group =>   2
Atom   4H    basis set group =>   2
Atom   5C    basis set group =>   1
Atom   6C    basis set group =>   1
Atom   7H    basis set group =>   2
Atom   8H    basis set group =>   2
Atom   9C    basis set group =>   1
Atom  10O    basis set group =>   3
Atom  11C    basis set group =>   1
Atom  12H    basis set group =>   2
Atom  13H    basis set group =>   2
Atom  14H    basis set group =>   2


           ************************************************************
           *        Program running with 24 parallel MPI-processes    *
           *              working on a common directory               *
           ************************************************************
------------------------------------------------------------------------------
                           ORCA GTO INTEGRAL CALCULATION
                           -- RI-GTO INTEGRALS CHOSEN --
------------------------------------------------------------------------------
------------------------------------------------------------------------------
                   ___                                                        
                  /   \      - P O W E R E D   B Y -                         
                 /     \                                                     
                 |  |  |   _    _      __       _____    __    __             
                 |  |  |  | |  | |    /  \     |  _  \  |  |  /  |          
                  \  \/   | |  | |   /    \    | | | |  |  | /  /          
                 / \  \   | |__| |  /  /\  \   | |_| |  |  |/  /          
                |  |  |   |  __  | /  /__\  \  |    /   |      \           
                |  |  |   | |  | | |   __   |  |    \   |  |\   \          
                \     /   | |  | | |  |  |  |  | |\  \  |  | \   \       
                 \___/    |_|  |_| |__|  |__|  |_| \__\ |__|  \__/        
                                                                              
                      - O R C A' S   B I G   F R I E N D -                    
                                      &                                       
                       - I N T E G R A L  F E E D E R -                       
                                                                              
 v1 FN, 2020, v2 2021                                                         
------------------------------------------------------------------------------


Reading SHARK input file Me-PhenO/Me-PhenO.SHARKINP.tmp ... ok
----------------------
SHARK INTEGRAL PACKAGE
----------------------

Number of atoms                             ...     15
Number of basis functions                   ...    290
Number of shells                            ...    116
Maximum angular momentum                    ...      3
Integral batch strategy                     ... SHARK/LIBINT Hybrid
RI-J (if used) integral strategy            ... SPLIT-RIJ (Revised 2003 algorithm where possible)
Printlevel                                  ...      1
Contraction scheme used                     ... SEGMENTED contraction
Coulomb Range Separation                    ... NOT USED
Exchange Range Separation                   ... NOT USED
Finite Nucleus Model                        ... NOT USED
Auxiliary Coulomb fitting basis             ... AVAILABLE
   # of basis functions in Aux-J            ...    469
   # of shells in Aux-J                     ...    155
   Maximum angular momentum in Aux-J        ...      4
Auxiliary J/K fitting basis                 ... NOT available
Auxiliary Correlation fitting basis         ... NOT available
Auxiliary 'external' fitting basis          ... NOT available
Integral threshold                          ...     2.500000e-11
Primitive cut-off                           ...     2.500000e-12
Primitive pair pre-selection threshold      ...     2.500000e-12

Calculating pre-screening integrals         ... done (  0.1 sec) Dimension = 116
Organizing shell pair data                  ... done (  0.1 sec)
Shell pair information
Total number of shell pairs                 ...      6786
Shell pairs after pre-screening             ...      6237
Total number of primitive shell pairs       ...     20700
Primitive shell pairs kept                  ...     14418
          la=0 lb=0:   1661 shell pairs
          la=1 lb=0:   1749 shell pairs
          la=1 lb=1:    472 shell pairs
          la=2 lb=0:    909 shell pairs
          la=2 lb=1:    473 shell pairs
          la=2 lb=2:    130 shell pairs
          la=3 lb=0:    446 shell pairs
          la=3 lb=1:    239 shell pairs
          la=3 lb=2:    123 shell pairs
          la=3 lb=3:     35 shell pairs

Calculating one electron integrals          ... done (  0.0 sec)
Calculating RI/J V-Matrix + Cholesky decomp.... done (  0.1 sec)
Calculating Nuclear repulsion               ... done (  0.0 sec) ENN=    331.058162776037 Eh

SHARK setup successfully completed in   0.6 seconds

Maximum memory used throughout the entire GTOINT-calculation: 19.7 MB


           ************************************************************
           *        Program running with 24 parallel MPI-processes    *
           *              working on a common directory               *
           ************************************************************
-------------------------------------------------------------------------------
                                 ORCA SCF
-------------------------------------------------------------------------------

------------
SCF SETTINGS
------------
Hamiltonian:
 Density Functional     Method          .... DFT(GTOs)
 Exchange Functional    Exchange        .... PBE
   PBE kappa parameter   XKappa         ....  0.804000
   PBE mue parameter    XMuePBE         ....  0.219520
 Correlation Functional Correlation     .... PBE
   PBE beta parameter  CBetaPBE         ....  0.066725
 LDA part of GGA corr.  LDAOpt          .... PW91-LDA
 Gradients option       PostSCFGGA      .... off
 Hybrid DFT is turned on
   Fraction HF Exchange ScalHFX         ....  0.250000
   Scaling of DF-GGA-X  ScalDFX         ....  0.750000
   Scaling of DF-GGA-C  ScalDFC         ....  1.000000
   Scaling of DF-LDA-C  ScalLDAC        ....  1.000000
   Perturbative correction              ....  0.000000
   Density functional embedding theory  .... OFF
   NL short-range parameter             ....  6.900000
 RI-approximation to the Coulomb term is turned on
   Number of AuxJ basis functions       .... 469
   RIJ-COSX (HFX calculated with COS-X)).... on


General Settings:
 Integral files         IntName         .... Me-PhenO/Me-PhenO
 Hartree-Fock type      HFTyp           .... RHF
 Total Charge           Charge          ....   -1
 Multiplicity           Mult            ....    1
 Number of Electrons    NEL             ....   58
 Basis Dimension        Dim             ....  290
 Nuclear Repulsion      ENuc            ....    331.0581627760 Eh

Convergence Acceleration:
 DIIS                   CNVDIIS         .... on
   Start iteration      DIISMaxIt       ....    12
   Startup error        DIISStart       ....  0.200000
   # of expansion vecs  DIISMaxEq       ....     5
   Bias factor          DIISBfac        ....   1.050
   Max. coefficient     DIISMaxC        ....  10.000
 Trust-Rad. Augm. Hess. CNVTRAH         .... auto
   Auto Start mean grad. ratio tolernc. ....  1.125000
   Auto Start start iteration           ....    20
   Auto Start num. interpolation iter.  ....    10
   Max. Number of Micro iterations      ....    16
   Max. Number of Macro iterations      .... Maxiter - #DIIS iter
   Number of Davidson start vectors     ....     2
   Converg. threshold I  (grad. norm)   ....   1.000e-05
   Converg. threshold II (energy diff.) ....   1.000e-08
   Grad. Scal. Fac. for Micro threshold ....   0.100
   Minimum threshold for Micro iter.    ....   0.010
   NR start threshold (gradient norm)   ....   0.001
   Initial trust radius                 ....   0.400
   Minimum AH scaling param. (alpha)    ....   1.000
   Maximum AH scaling param. (alpha)    .... 1000.000
   Orbital update algorithm             .... Taylor
   White noise on init. David. guess    .... on
   Maximum white noise                  ....   0.010
   Quad. conv. algorithm                .... NR
 SOSCF                  CNVSOSCF        .... on
   Start iteration      SOSCFMaxIt      ....   150
   Startup grad/error   SOSCFStart      ....  0.003300
 Level Shifting         CNVShift        .... on
   Level shift para.    LevelShift      ....    0.2500
   Turn off err/grad.   ShiftErr        ....    0.0010
 Zerner damping         CNVZerner       .... off
 Static damping         CNVDamp         .... on
   Fraction old density DampFac         ....    0.7000
   Max. Damping (<1)    DampMax         ....    0.9800
   Min. Damping (>=0)   DampMin         ....    0.0000
   Turn off err/grad.   DampErr         ....    0.1000
 Fernandez-Rico         CNVRico         .... off

SCF Procedure:
 Maximum # iterations   MaxIter         ....   800
 SCF integral mode      SCFMode         .... Direct
   Integral package                     .... SHARK and LIBINT hybrid scheme
 Reset frequency        DirectResetFreq ....    20
 Integral Threshold     Thresh          ....  2.500e-11 Eh
 Primitive CutOff       TCut            ....  2.500e-12 Eh

Convergence Tolerance:
 Convergence Check Mode ConvCheckMode   .... Total+1el-Energy
 Convergence forced     ConvForced      .... 0
 Energy Change          TolE            ....  1.000e-08 Eh
 1-El. energy change                    ....  1.000e-05 Eh
 Orbital Gradient       TolG            ....  1.000e-05
 Orbital Rotation angle TolX            ....  1.000e-05
 DIIS Error             TolErr          ....  5.000e-07


Diagonalization of the overlap matrix:
Smallest eigenvalue                        ... 1.064e-05
Time for diagonalization                   ...    0.031 sec
Threshold for overlap eigenvalues          ... 1.000e-08
Number of eigenvalues below threshold      ... 0
Time for construction of square roots      ...    0.018 sec
Total time needed                          ...    0.051 sec

Time for model grid setup =    0.117 sec

------------------------------
INITIAL GUESS: MODEL POTENTIAL
------------------------------
Loading Hartree-Fock densities                     ... done
Calculating cut-offs                               ... done
Initializing the effective Hamiltonian             ... done
Setting up the integral package (SHARK)            ... done
Starting the Coulomb interaction                   ... done (   0.1 sec)
Reading the grid                                   ... done
Mapping shells                                     ... done
Starting the XC term evaluation                    ... done (   0.1 sec)
  promolecular density results
     # of electrons  =     56.997707519
     EX              =    -45.970621768
     EC              =     -1.879070927
     EX+EC           =    -47.849692695
Transforming the Hamiltonian                       ... done (   0.0 sec)
Diagonalizing the Hamiltonian                      ... done (   0.0 sec)
Back transforming the eigenvectors                 ... done (   0.0 sec)
Now organizing SCF variables                       ... done
                      ------------------
                      INITIAL GUESS DONE (   0.4 sec)
                      ------------------
-------------------
DFT GRID GENERATION
-------------------

General Integration Accuracy     IntAcc      ... 4.388
Radial Grid Type                 RadialGrid  ... OptM3 with GC (2021)
Angular Grid (max. ang.)         AngularGrid ... 4 (Lebedev-302)
Angular grid pruning method      GridPruning ... 4 (adaptive)
Weight generation scheme         WeightScheme... Becke
Basis function cutoff            BFCut       ... 1.0000e-11
Integration weight cutoff        WCut        ... 1.0000e-14
Angular grids for H and He will be reduced by one unit
Partially contracted basis set               ... off
Rotationally invariant grid construction     ... off

Total number of grid points                  ...    70720
Total number of batches                      ...     1111
Average number of points per batch           ...       63
Average number of grid points per atom       ...     4715
Time for grid setup =    0.370 sec

--------------------
COSX GRID GENERATION
--------------------

GRIDX 1
-------
General Integration Accuracy     IntAcc      ... 3.816
Radial Grid Type                 RadialGrid  ... OptM3 with GC (2021)
Angular Grid (max. ang.)         AngularGrid ... 1 (Lebedev-50)
Angular grid pruning method      GridPruning ... 4 (adaptive)
Weight generation scheme         WeightScheme... Becke
Basis function cutoff            BFCut       ... 1.0000e-11
Integration weight cutoff        WCut        ... 1.0000e-14
Angular grids for H and He will be reduced by one unit
Partially contracted basis set               ... on
Rotationally invariant grid construction     ... off

Total number of grid points                  ...     9057
Total number of batches                      ...      147
Average number of points per batch           ...       61
Average number of grid points per atom       ...      604
UseSFitting                                  ... on

GRIDX 2
-------
General Integration Accuracy     IntAcc      ... 4.020
Radial Grid Type                 RadialGrid  ... OptM3 with GC (2021)
Angular Grid (max. ang.)         AngularGrid ... 2 (Lebedev-110)
Angular grid pruning method      GridPruning ... 4 (adaptive)
Weight generation scheme         WeightScheme... Becke
Basis function cutoff            BFCut       ... 1.0000e-11
Integration weight cutoff        WCut        ... 1.0000e-14
Angular grids for H and He will be reduced by one unit
Partially contracted basis set               ... on
Rotationally invariant grid construction     ... off

Total number of grid points                  ...    19751
Total number of batches                      ...      316
Average number of points per batch           ...       62
Average number of grid points per atom       ...     1317
UseSFitting                                  ... on

GRIDX 3
-------
General Integration Accuracy     IntAcc      ... 4.338
Radial Grid Type                 RadialGrid  ... OptM3 with GC (2021)
Angular Grid (max. ang.)         AngularGrid ... 3 (Lebedev-194)
Angular grid pruning method      GridPruning ... 4 (adaptive)
Weight generation scheme         WeightScheme... Becke
Basis function cutoff            BFCut       ... 1.0000e-11
Integration weight cutoff        WCut        ... 1.0000e-14
Angular grids for H and He will be reduced by one unit
Partially contracted basis set               ... on
Rotationally invariant grid construction     ... off

Total number of grid points                  ...    43458
Total number of batches                      ...      685
Average number of points per batch           ...       63
Average number of grid points per atom       ...     2897
UseSFitting                                  ... on

Time for X-Grid setup             =    0.532 sec


--------------------
CPCM SOLVATION MODEL
--------------------
CPCM parameters:
  Epsilon                                         ...      47.2000
  Refrac                                          ...       1.4790
  Rsolv                                           ...       1.3000
  Surface type                                    ... GAUSSIAN VDW
  Epsilon function type                           ...         CPCM
Radii:
 Radius for C  used is    3.8550 Bohr (=   2.0400 Ang.)
 Radius for H  used is    2.4944 Bohr (=   1.3200 Ang.)
 Radius for O  used is    3.4469 Bohr (=   1.8240 Ang.)
Calculating surface                               ...        done! (  0.0s)
GEPOL surface points                              ...          869
GEPOL Volume                                      ...     966.3359
GEPOL Surface-area                                ...     551.4099
Calculating surface distance matrix               ...        done! (  0.0s)
Performing Cholesky decomposition & store         ...        done! (  0.0s)
Overall time for CPCM initialization              ...                 0.1s
--------------
SCF ITERATIONS
--------------
ITER       Energy         Delta-E        Max-DP      RMS-DP      [F,P]     Damp
               ***  Starting incremental Fock matrix formation  ***
  0   -345.7239088356   0.000000000000 0.45871647  0.00581373  0.3376168 0.7000
  1   -345.8626498702  -0.138741034595 0.43788806  0.00546125  0.1455278 0.7000
                               ***Turning on DIIS***
  2   -345.9215400083  -0.058890138146 0.45493895  0.00624005  0.0452094 0.0000
  3   -346.0087965588  -0.087256550454 0.44122197  0.00532595  0.0842519 0.0000
  4   -346.0296944184  -0.020897859663 0.08391607  0.00102495  0.0149431 0.0000
  5   -346.0307867686  -0.001092350210 0.04843155  0.00060703  0.0114284 0.0000
                      *** Initiating the SOSCF procedure ***
                           *** Shutting down DIIS ***
                      *** Re-Reading the Fockian *** 
                      *** Removing any level shift *** 
ITER      Energy       Delta-E        Grad      Rot      Max-DP    RMS-DP
  6   -346.03093785  -0.0001510765  0.000366  0.000366  0.022278  0.000292
               *** Restarting incremental Fock matrix formation ***
  7   -346.03093858  -0.0000007346  0.000122  0.000308  0.005662  0.000068
  8   -346.03093803   0.0000005455  0.000195  0.000255  0.003182  0.000039
  9   -346.03093913  -0.0000010928  0.000025  0.000067  0.000099  0.000002
 10   -346.03093911   0.0000000170  0.000029  0.000040  0.000102  0.000001
                  ***Gradient check signals convergence***
              ***Rediagonalizing the Fockian in SOSCF/NRSCF***

               *****************************************************
               *                     SUCCESS                       *
               *           SCF CONVERGED AFTER  11 CYCLES          *
               *****************************************************

Old exchange energy                            =    -11.814847983 Eh
New exchange energy                            =    -11.814832437 Eh
Exchange energy change after final integration =      0.000015546 Eh
Total energy after final integration           =   -346.030923607 Eh
Final COS-X integration done in                =     1.297 sec

----------------
TOTAL SCF ENERGY
----------------

Total Energy       :         -346.03092361 Eh           -9415.98013 eV

Components:
Nuclear Repulsion  :          331.05816278 Eh            9008.55059 eV
Electronic Energy  :         -677.08908638 Eh          -18424.53073 eV
One Electron Energy:        -1135.49728815 Eh          -30898.45206 eV
Two Electron Energy:          458.40820177 Eh           12473.92133 eV
Max COSX asymmetry :            0.00000138 Eh               0.00004 eV
CPCM Dielectric    :           -0.10291202 Eh              -2.80038 eV

Virial components:
Potential Energy   :         -690.42669810 Eh          -18787.46559 eV
Kinetic Energy     :          344.39577450 Eh            9371.48546 eV
Virial Ratio       :            2.00474788


DFT components:
N(Alpha)           :       29.000011853904 electrons
N(Beta)            :       29.000011853904 electrons
N(Total)           :       58.000023707807 electrons
E(X)               :      -35.352551738765 Eh       
E(C)               :       -1.924007380904 Eh       
E(XC)              :      -37.276559119669 Eh       
DFET-embed. en.    :        0.000000000000 Eh       
CPCM Solvation Model Properties:
Surface-charge          :            0.96723976
Charge-correction       :           -0.00482391 Eh              -0.13127 eV
Free-energy (cav+disp)  :  This term is not implemented in the current solvation scheme

---------------
SCF CONVERGENCE
---------------

  Last Energy change         ...   -4.3324e-08  Tolerance :   1.0000e-08
  Last MAX-Density change    ...    1.4433e-15  Tolerance :   1.0000e-07
  Last RMS-Density change    ...    1.8462e-17  Tolerance :   5.0000e-09
  Last Orbital Gradient      ...    1.8299e-06  Tolerance :   1.0000e-05
  Last Orbital Rotation      ...    7.9733e-06  Tolerance :   1.0000e-05

             **** THE GBW FILE WAS UPDATED (Me-PhenO/Me-PhenO.gbw) ****
             **** DENSITY Me-PhenO/Me-PhenO.scfp WAS UPDATED ****
             **** ENERGY FILE WAS UPDATED (Me-PhenO/Me-PhenO.en.tmp) ****
             **** THE GBW FILE WAS UPDATED (Me-PhenO/Me-PhenO.gbw) ****
             **** DENSITY Me-PhenO/Me-PhenO.scfp WAS UPDATED ****
----------------
ORBITAL ENERGIES
----------------

  NO   OCC          E(Eh)            E(eV) 
   0   2.0000     -19.105937      -519.8990 
   1   2.0000     -10.237056      -278.5645 
   2   2.0000     -10.199501      -277.5425 
   3   2.0000     -10.199058      -277.5305 
   4   2.0000     -10.199021      -277.5295 
   5   2.0000     -10.195860      -277.4435 
   6   2.0000     -10.182897      -277.0907 
   7   2.0000     -10.182824      -277.0887 
   8   2.0000      -0.970328       -26.4040 
   9   2.0000      -0.844621       -22.9833 
  10   2.0000      -0.750830       -20.4311 
  11   2.0000      -0.738246       -20.0887 
  12   2.0000      -0.662205       -18.0195 
  13   2.0000      -0.596380       -16.2283 
  14   2.0000      -0.562581       -15.3086 
  15   2.0000      -0.473427       -12.8826 
  16   2.0000      -0.457508       -12.4494 
  17   2.0000      -0.435561       -11.8522 
  18   2.0000      -0.415192       -11.2980 
  19   2.0000      -0.399131       -10.8609 
  20   2.0000      -0.383713       -10.4414 
  21   2.0000      -0.380658       -10.3582 
  22   2.0000      -0.370492       -10.0816 
  23   2.0000      -0.338999        -9.2246 
  24   2.0000      -0.324136        -8.8202 
  25   2.0000      -0.296509        -8.0684 
  26   2.0000      -0.243813        -6.6345 
  27   2.0000      -0.214821        -5.8456 
  28   2.0000      -0.170873        -4.6497 
  29   0.0000       0.015890         0.4324 
  30   0.0000       0.047030         1.2798 
  31   0.0000       0.070345         1.9142 
  32   0.0000       0.093647         2.5483 
  33   0.0000       0.102412         2.7868 
  34   0.0000       0.116947         3.1823 
  35   0.0000       0.139010         3.7826 
  36   0.0000       0.143030         3.8920 
  37   0.0000       0.153783         4.1847 
  38   0.0000       0.159623         4.3436 
  39   0.0000       0.177183         4.8214 
  40   0.0000       0.179607         4.8873 
  41   0.0000       0.202119         5.4999 
  42   0.0000       0.216579         5.8934 
  43   0.0000       0.217948         5.9307 
  44   0.0000       0.244962         6.6658 
  45   0.0000       0.247006         6.7214 
  46   0.0000       0.266359         7.2480 
  47   0.0000       0.269379         7.3302 
  48   0.0000       0.288918         7.8619 
  49   0.0000       0.292188         7.9508 
  50   0.0000       0.314175         8.5491 
  51   0.0000       0.318446         8.6653 
  52   0.0000       0.341626         9.2961 
  53   0.0000       0.360773         9.8171 
  54   0.0000       0.366006         9.9595 
  55   0.0000       0.370691        10.0870 
  56   0.0000       0.374270        10.1844 
  57   0.0000       0.387344        10.5402 
  58   0.0000       0.390267        10.6197 
  59   0.0000       0.398194        10.8354 
  60   0.0000       0.428755        11.6670 
  61   0.0000       0.439259        11.9529 
  62   0.0000       0.450664        12.2632 
  63   0.0000       0.458134        12.4665 
  64   0.0000       0.463821        12.6212 
  65   0.0000       0.464902        12.6506 
  66   0.0000       0.481366        13.0986 
  67   0.0000       0.488478        13.2922 
  68   0.0000       0.508282        13.8311 
  69   0.0000       0.511439        13.9170 
  70   0.0000       0.523007        14.2317 
  71   0.0000       0.528359        14.3774 
  72   0.0000       0.539162        14.6714 
  73   0.0000       0.557310        15.1652 
  74   0.0000       0.592903        16.1337 
  75   0.0000       0.603082        16.4107 
  76   0.0000       0.609059        16.5734 
  77   0.0000       0.630815        17.1653 
  78   0.0000       0.666822        18.1451 
  79   0.0000       0.675144        18.3716 
  80   0.0000       0.678085        18.4516 
  81   0.0000       0.701054        19.0767 
  82   0.0000       0.752250        20.4698 
  83   0.0000       0.754363        20.5273 
  84   0.0000       0.755737        20.5646 
  85   0.0000       0.777536        21.1578 
  86   0.0000       0.797482        21.7006 
  87   0.0000       0.816274        22.2119 
  88   0.0000       0.826410        22.4878 
  89   0.0000       0.854116        23.2417 
  90   0.0000       0.873411        23.7667 
  91   0.0000       0.885677        24.1005 
  92   0.0000       0.899079        24.4652 
  93   0.0000       0.905455        24.6387 
  94   0.0000       0.910185        24.7674 
  95   0.0000       0.954683        25.9783 
  96   0.0000       0.955338        25.9961 
  97   0.0000       0.988708        26.9041 
  98   0.0000       1.039449        28.2848 
  99   0.0000       1.041857        28.3504 
 100   0.0000       1.062750        28.9189 
 101   0.0000       1.086944        29.5773 
 102   0.0000       1.096775        29.8448 
 103   0.0000       1.135765        30.9057 
 104   0.0000       1.150856        31.3164 
 105   0.0000       1.200050        32.6550 
 106   0.0000       1.228580        33.4314 
 107   0.0000       1.234492        33.5922 
 108   0.0000       1.257934        34.2301 
 109   0.0000       1.261035        34.3145 
 110   0.0000       1.267135        34.4805 
 111   0.0000       1.300440        35.3868 
 112   0.0000       1.316368        35.8202 
 113   0.0000       1.346399        36.6374 
 114   0.0000       1.359701        36.9993 
 115   0.0000       1.359950        37.0061 
 116   0.0000       1.447288        39.3827 
 117   0.0000       1.456885        39.6439 
 118   0.0000       1.483949        40.3803 
 119   0.0000       1.495843        40.7040 
 120   0.0000       1.523586        41.4589 
 121   0.0000       1.524443        41.4822 
 122   0.0000       1.552570        42.2476 
 123   0.0000       1.558900        42.4198 
 124   0.0000       1.569372        42.7048 
 125   0.0000       1.593099        43.3504 
 126   0.0000       1.600407        43.5493 
 127   0.0000       1.619423        44.0668 
 128   0.0000       1.645058        44.7643 
 129   0.0000       1.652926        44.9784 
 130   0.0000       1.654308        45.0160 
 131   0.0000       1.687815        45.9278 
 132   0.0000       1.708371        46.4871 
 133   0.0000       1.716528        46.7091 
 134   0.0000       1.768648        48.1273 
 135   0.0000       1.777852        48.3778 
 136   0.0000       1.783590        48.5340 
 137   0.0000       1.854135        50.4536 
 138   0.0000       1.868174        50.8356 
 139   0.0000       1.881765        51.2054 
 140   0.0000       1.888897        51.3995 
 141   0.0000       1.954407        53.1821 
 142   0.0000       1.967832        53.5474 
 143   0.0000       1.974846        53.7383 
 144   0.0000       2.016298        54.8663 
 145   0.0000       2.028812        55.2068 
 146   0.0000       2.031946        55.2921 
 147   0.0000       2.071185        56.3598 
 148   0.0000       2.102268        57.2056 
 149   0.0000       2.140945        58.2581 
 150   0.0000       2.165204        58.9182 
 151   0.0000       2.197245        59.7901 
 152   0.0000       2.204675        59.9923 
 153   0.0000       2.229559        60.6694 
 154   0.0000       2.244999        61.0895 
 155   0.0000       2.266505        61.6747 
 156   0.0000       2.285196        62.1833 
 157   0.0000       2.298966        62.5580 
 158   0.0000       2.335520        63.5527 
 159   0.0000       2.395152        65.1754 
 160   0.0000       2.408766        65.5458 
 161   0.0000       2.417112        65.7730 
 162   0.0000       2.462586        67.0104 
 163   0.0000       2.472128        67.2700 
 164   0.0000       2.499463        68.0138 
 165   0.0000       2.541783        69.1654 
 166   0.0000       2.547997        69.3345 
 167   0.0000       2.577998        70.1509 
 168   0.0000       2.590877        70.5013 
 169   0.0000       2.618237        71.2458 
 170   0.0000       2.620131        71.2974 
 171   0.0000       2.665284        72.5261 
 172   0.0000       2.678799        72.8938 
 173   0.0000       2.697102        73.3919 
 174   0.0000       2.701606        73.5144 
 175   0.0000       2.712097        73.7999 
 176   0.0000       2.733578        74.3844 
 177   0.0000       2.752103        74.8885 
 178   0.0000       2.805590        76.3440 
 179   0.0000       2.813219        76.5516 
 180   0.0000       2.819971        76.7353 
 181   0.0000       2.821820        76.7856 
 182   0.0000       2.855836        77.7112 
 183   0.0000       2.859599        77.8136 
 184   0.0000       2.882551        78.4382 
 185   0.0000       2.896407        78.8153 
 186   0.0000       2.932796        79.8054 
 187   0.0000       2.942528        80.0702 
 188   0.0000       2.949579        80.2621 
 189   0.0000       2.971163        80.8495 
 190   0.0000       2.976257        80.9881 
 191   0.0000       3.010059        81.9079 
 192   0.0000       3.051913        83.0468 
 193   0.0000       3.074130        83.6513 
 194   0.0000       3.077005        83.7296 
 195   0.0000       3.090431        84.0949 
 196   0.0000       3.117278        84.8255 
 197   0.0000       3.140539        85.4584 
 198   0.0000       3.146559        85.6222 
 199   0.0000       3.176540        86.4381 
 200   0.0000       3.180077        86.5343 
 201   0.0000       3.182267        86.5939 
 202   0.0000       3.204106        87.1882 
 203   0.0000       3.230593        87.9089 
 204   0.0000       3.236237        88.0625 
 205   0.0000       3.246796        88.3498 
 206   0.0000       3.254973        88.5723 
 207   0.0000       3.271199        89.0139 
 208   0.0000       3.299200        89.7758 
 209   0.0000       3.325447        90.4900 
 210   0.0000       3.337652        90.8221 
 211   0.0000       3.374253        91.8181 
 212   0.0000       3.375854        91.8617 
 213   0.0000       3.400680        92.5372 
 214   0.0000       3.413651        92.8902 
 215   0.0000       3.437491        93.5389 
 216   0.0000       3.438862        93.5762 
 217   0.0000       3.461159        94.1829 
 218   0.0000       3.480706        94.7148 
 219   0.0000       3.510660        95.5299 
 220   0.0000       3.521988        95.8382 
 221   0.0000       3.528811        96.0238 
 222   0.0000       3.533845        96.1608 
 223   0.0000       3.552597        96.6711 
 224   0.0000       3.580008        97.4170 
 225   0.0000       3.618712        98.4702 
 226   0.0000       3.642805        99.1258 
 227   0.0000       3.710532       100.9687 
 228   0.0000       3.720079       101.2285 
 229   0.0000       3.756700       102.2250 
 230   0.0000       3.801973       103.4570 
 231   0.0000       3.825365       104.0935 
 232   0.0000       3.836084       104.3852 
 233   0.0000       3.862081       105.0926 
 234   0.0000       3.926530       106.8463 
 235   0.0000       3.936802       107.1258 
 236   0.0000       3.952836       107.5621 
 237   0.0000       4.038229       109.8858 
 238   0.0000       4.059850       110.4741 
 239   0.0000       4.087840       111.2358 
 240   0.0000       4.124119       112.2230 
 241   0.0000       4.130020       112.3836 
 242   0.0000       4.149199       112.9054 
 243   0.0000       4.200035       114.2888 
 244   0.0000       4.206424       114.4626 
 245   0.0000       4.238912       115.3467 
 246   0.0000       4.273606       116.2907 
 247   0.0000       4.300828       117.0315 
 248   0.0000       4.318782       117.5200 
 249   0.0000       4.322072       117.6096 
 250   0.0000       4.346609       118.2772 
 251   0.0000       4.445542       120.9694 
 252   0.0000       4.483886       122.0127 
 253   0.0000       4.550342       123.8211 
 254   0.0000       4.585952       124.7901 
 255   0.0000       4.607995       125.3899 
 256   0.0000       4.681195       127.3818 
 257   0.0000       4.705129       128.0331 
 258   0.0000       4.726316       128.6096 
 259   0.0000       4.752204       129.3140 
 260   0.0000       4.863985       132.3558 
 261   0.0000       4.917117       133.8016 
 262   0.0000       4.960143       134.9723 
 263   0.0000       4.996848       135.9711 
 264   0.0000       5.156844       140.3249 
 265   0.0000       5.171230       140.7163 
 266   0.0000       5.284921       143.8100 
 267   0.0000       5.326249       144.9346 
 268   0.0000       5.330464       145.0493 
 269   0.0000       5.463499       148.6694 
 270   0.0000       5.505463       149.8113 
 271   0.0000       5.604739       152.5127 
 272   0.0000       5.639087       153.4474 
 273   0.0000       5.791382       157.5915 
 274   0.0000       6.085330       165.5903 
 275   0.0000       6.393670       173.9806 
 276   0.0000       6.467168       175.9806 
 277   0.0000       6.641913       180.7357 
 278   0.0000       6.674544       181.6236 
 279   0.0000       6.885289       187.3582 
 280   0.0000       7.121942       193.7979 
 281   0.0000       7.130937       194.0427 
 282   0.0000      22.151911       602.7841 
 283   0.0000      22.496318       612.1559 
 284   0.0000      22.744518       618.9098 
 285   0.0000      22.842453       621.5748 
 286   0.0000      22.848012       621.7260 
 287   0.0000      23.086729       628.2218 
 288   0.0000      23.519558       639.9997 
 289   0.0000      44.082359      1199.5420 

                    ********************************
                    * MULLIKEN POPULATION ANALYSIS *
                    ********************************

-----------------------
MULLIKEN ATOMIC CHARGES
-----------------------
   0 C :    0.110237
   1 C :   -0.250500
   2 C :   -0.250770
   3 H :    0.122320
   4 H :    0.122291
   5 C :   -0.282424
   6 C :   -0.282438
   7 H :    0.092931
   8 H :    0.092887
   9 C :    0.231932
  10 O :   -0.684078
  11 C :   -0.415760
  12 H :    0.126814
  13 H :    0.133255
  14 H :    0.133302
Sum of atomic charges:   -1.0000000

--------------------------------
MULLIKEN REDUCED ORBITAL CHARGES
--------------------------------
  0 C s       :     3.128715  s :     3.128715
      pz      :     0.764804  p :     2.608274
      px      :     1.018677
      py      :     0.824793
      dz2     :     0.035989  d :     0.143032
      dxz     :     0.024055
      dyz     :     0.044126
      dx2y2   :     0.016673
      dxy     :     0.022188
      f0      :     0.001256  f :     0.009743
      f+1     :     0.001012
      f-1     :     0.003273
      f+2     :     0.000849
      f-2     :     0.001129
      f+3     :     0.001452
      f-3     :     0.000770
  1 C s       :     3.217108  s :     3.217108
      pz      :     0.967152  p :     2.924834
      px      :     0.993638
      py      :     0.964045
      dz2     :     0.018581  d :     0.101284
      dxz     :     0.024298
      dyz     :     0.038727
      dx2y2   :     0.008985
      dxy     :     0.010692
      f0      :     0.000805  f :     0.007275
      f+1     :     0.001485
      f-1     :     0.002158
      f+2     :     0.000746
      f-2     :     0.000452
      f+3     :     0.000976
      f-3     :     0.000652
  2 C s       :     3.217940  s :     3.217940
      pz      :     0.962950  p :     2.924533
      px      :     0.993485
      py      :     0.968097
      dz2     :     0.020387  d :     0.101025
      dxz     :     0.025825
      dyz     :     0.036342
      dx2y2   :     0.009357
      dxy     :     0.009114
      f0      :     0.000887  f :     0.007272
      f+1     :     0.001471
      f-1     :     0.002107
      f+2     :     0.000703
      f-2     :     0.000578
      f+3     :     0.000863
      f-3     :     0.000664
  3 H s       :     0.856010  s :     0.856010
      pz      :     0.006266  p :     0.021670
      px      :     0.004827
      py      :     0.010576
  4 H s       :     0.856036  s :     0.856036
      pz      :     0.005703  p :     0.021673
      px      :     0.004828
      py      :     0.011142
  5 C s       :     3.235368  s :     3.235368
      pz      :     0.917682  p :     2.960332
      px      :     1.099519
      py      :     0.943131
      dz2     :     0.017154  d :     0.079686
      dxz     :     0.017836
      dyz     :     0.030267
      dx2y2   :     0.008123
      dxy     :     0.006306
      f0      :     0.001027  f :     0.007039
      f+1     :     0.001447
      f-1     :     0.002053
      f+2     :     0.000764
      f-2     :     0.000453
      f+3     :     0.000687
      f-3     :     0.000608
  6 C s       :     3.235503  s :     3.235503
      pz      :     0.917454  p :     2.960214
      px      :     1.099372
      py      :     0.943388
      dz2     :     0.016761  d :     0.079683
      dxz     :     0.017070
      dyz     :     0.030695
      dx2y2   :     0.008095
      dxy     :     0.007061
      f0      :     0.000939  f :     0.007038
      f+1     :     0.001436
      f-1     :     0.002112
      f+2     :     0.000793
      f-2     :     0.000381
      f+3     :     0.000768
      f-3     :     0.000610
  7 H s       :     0.884774  s :     0.884774
      pz      :     0.005511  p :     0.022294
      px      :     0.005678
      py      :     0.011105
  8 H s       :     0.884824  s :     0.884824
      pz      :     0.006061  p :     0.022290
      px      :     0.005676
      py      :     0.010553
  9 C s       :     2.943496  s :     2.943496
      pz      :     0.873097  p :     2.646787
      px      :     0.852744
      py      :     0.920946
      dz2     :     0.031563  d :     0.161101
      dxz     :     0.056352
      dyz     :     0.043449
      dx2y2   :     0.012373
      dxy     :     0.017365
      f0      :     0.002713  f :     0.016683
      f+1     :     0.003355
      f-1     :     0.006947
      f+2     :     0.000768
      f-2     :     0.001056
      f+3     :     0.001259
      f-3     :     0.000586
 10 O s       :     3.779304  s :     3.779304
      pz      :     1.374341  p :     4.876468
      px      :     1.646055
      py      :     1.856072
      dz2     :     0.012336  d :     0.026740
      dxz     :     0.007808
      dyz     :     0.006439
      dx2y2   :     0.000097
      dxy     :     0.000060
      f0      :     0.000671  f :     0.001566
      f+1     :     0.000462
      f-1     :     0.000416
      f+2     :     0.000007
      f-2     :     0.000006
      f+3     :     0.000002
      f-3     :     0.000002
 11 C s       :     3.272835  s :     3.272835
      pz      :     0.926176  p :     3.077588
      px      :     1.070583
      py      :     1.080829
      dz2     :     0.007401  d :     0.061852
      dxz     :     0.026271
      dyz     :     0.018831
      dx2y2   :     0.004743
      dxy     :     0.004606
      f0      :     0.001079  f :     0.003485
      f+1     :     0.000868
      f-1     :     0.000859
      f+2     :     0.000016
      f-2     :     0.000013
      f+3     :     0.000644
      f-3     :     0.000005
 12 H s       :     0.852054  s :     0.852054
      pz      :     0.005635  p :     0.021131
      px      :     0.010963
      py      :     0.004534
 13 H s       :     0.845656  s :     0.845656
      pz      :     0.005537  p :     0.021088
      px      :     0.006097
      py      :     0.009454
 14 H s       :     0.845603  s :     0.845603
      pz      :     0.005889  p :     0.021094
      px      :     0.005984
      py      :     0.009221


                     *******************************
                     * LOEWDIN POPULATION ANALYSIS *
                     *******************************

----------------------
LOEWDIN ATOMIC CHARGES
----------------------
   0 C :   -0.243279
   1 C :   -0.171306
   2 C :   -0.171065
   3 H :    0.144516
   4 H :    0.144543
   5 C :   -0.198144
   6 C :   -0.198080
   7 H :    0.133041
   8 H :    0.133049
   9 C :   -0.445256
  10 O :   -0.218972
  11 C :   -0.286042
  12 H :    0.123617
  13 H :    0.126655
  14 H :    0.126723

-------------------------------
LOEWDIN REDUCED ORBITAL CHARGES
-------------------------------
  0 C s       :     2.710702  s :     2.710702
      pz      :     0.983536  p :     2.944340
      px      :     0.913060
      py      :     1.047744
      dz2     :     0.145290  d :     0.530272
      dxz     :     0.073585
      dyz     :     0.164480
      dx2y2   :     0.069640
      dxy     :     0.077276
      f0      :     0.006552  f :     0.057966
      f+1     :     0.005828
      f-1     :     0.021909
      f+2     :     0.006591
      f-2     :     0.007734
      f+3     :     0.004047
      f-3     :     0.005305
  1 C s       :     2.761193  s :     2.761193
      pz      :     1.048847  p :     2.951712
      px      :     0.904284
      py      :     0.998582
      dz2     :     0.098564  d :     0.415326
      dxz     :     0.081640
      dyz     :     0.154170
      dx2y2   :     0.045605
      dxy     :     0.035348
      f0      :     0.007204  f :     0.043075
      f+1     :     0.006639
      f-1     :     0.014478
      f+2     :     0.004528
      f-2     :     0.002912
      f+3     :     0.003577
      f-3     :     0.003738
  2 C s       :     2.761207  s :     2.761207
      pz      :     1.052887  p :     2.951599
      px      :     0.904226
      py      :     0.994486
      dz2     :     0.105755  d :     0.415195
      dxz     :     0.087156
      dyz     :     0.145767
      dx2y2   :     0.046784
      dxy     :     0.029733
      f0      :     0.007395  f :     0.043065
      f+1     :     0.006252
      f-1     :     0.014498
      f+2     :     0.004486
      f-2     :     0.003848
      f+3     :     0.003023
      f-3     :     0.003563
  3 H s       :     0.796706  s :     0.796706
      pz      :     0.017160  p :     0.058777
      px      :     0.013874
      py      :     0.027743
  4 H s       :     0.796679  s :     0.796679
      pz      :     0.015790  p :     0.058778
      px      :     0.013872
      py      :     0.029116
  5 C s       :     2.775573  s :     2.775573
      pz      :     1.052372  p :     3.015586
      px      :     0.975543
      py      :     0.987671
      dz2     :     0.098529  d :     0.367366
      dxz     :     0.061671
      dyz     :     0.142390
      dx2y2   :     0.044616
      dxy     :     0.020159
      f0      :     0.007504  f :     0.039620
      f+1     :     0.005865
      f-1     :     0.013509
      f+2     :     0.004534
      f-2     :     0.002900
      f+3     :     0.002010
      f-3     :     0.003296
  6 C s       :     2.775585  s :     2.775585
      pz      :     1.048932  p :     3.015471
      px      :     0.975366
      py      :     0.991173
      dz2     :     0.092938  d :     0.367400
      dxz     :     0.058406
      dyz     :     0.148614
      dx2y2   :     0.044012
      dxy     :     0.023430
      f0      :     0.007226  f :     0.039625
      f+1     :     0.006026
      f-1     :     0.013626
      f+2     :     0.004511
      f-2     :     0.002348
      f+3     :     0.002403
      f-3     :     0.003485
  7 H s       :     0.806436  s :     0.806436
      pz      :     0.015410  p :     0.060524
      px      :     0.016019
      py      :     0.029094
  8 H s       :     0.806433  s :     0.806433
      pz      :     0.016730  p :     0.060517
      px      :     0.016013
      py      :     0.027774
  9 C s       :     2.731541  s :     2.731541
      pz      :     0.947174  p :     2.807249
      px      :     0.807460
      py      :     1.052615
      dz2     :     0.204014  d :     0.800281
      dxz     :     0.183776
      dyz     :     0.287453
      dx2y2   :     0.060156
      dxy     :     0.064882
      f0      :     0.020246  f :     0.106185
      f+1     :     0.020562
      f-1     :     0.042432
      f+2     :     0.005826
      f-2     :     0.006900
      f+3     :     0.005293
      f-3     :     0.004926
 10 O s       :     3.433234  s :     3.433234
      pz      :     1.464731  p :     4.720320
      px      :     1.548014
      py      :     1.707575
      dz2     :     0.027010  d :     0.060578
      dxz     :     0.014544
      dyz     :     0.018832
      dx2y2   :     0.000118
      dxy     :     0.000073
      f0      :     0.002088  f :     0.004841
      f+1     :     0.001120
      f-1     :     0.001602
      f+2     :     0.000013
      f-2     :     0.000015
      f+3     :     0.000001
      f-3     :     0.000002
 11 C s       :     2.820421  s :     2.820421
      pz      :     1.033380  p :     3.173615
      px      :     1.073463
      py      :     1.066772
      dz2     :     0.053946  d :     0.267148
      dxz     :     0.085835
      dyz     :     0.072968
      dx2y2   :     0.029234
      dxy     :     0.025165
      f0      :     0.005063  f :     0.024858
      f+1     :     0.005885
      f-1     :     0.005631
      f+2     :     0.002706
      f-2     :     0.002711
      f+3     :     0.002840
      f-3     :     0.000022
 12 H s       :     0.814934  s :     0.814934
      pz      :     0.015177  p :     0.061449
      px      :     0.032596
      py      :     0.013676
 13 H s       :     0.812014  s :     0.812014
      pz      :     0.014596  p :     0.061331
      px      :     0.018520
      py      :     0.028215
 14 H s       :     0.811963  s :     0.811963
      pz      :     0.015441  p :     0.061314
      px      :     0.018184
      py      :     0.027688


                      *****************************
                      * MAYER POPULATION ANALYSIS *
                      *****************************

  NA   - Mulliken gross atomic population
  ZA   - Total nuclear charge
  QA   - Mulliken gross atomic charge
  VA   - Mayer's total valence
  BVA  - Mayer's bonded valence
  FA   - Mayer's free valence

  ATOM       NA         ZA         QA         VA         BVA        FA
  0 C      5.8898     6.0000     0.1102     3.6329     3.6329     0.0000
  1 C      6.2505     6.0000    -0.2505     3.8647     3.8647    -0.0000
  2 C      6.2508     6.0000    -0.2508     3.8637     3.8637     0.0000
  3 H      0.8777     1.0000     0.1223     0.9680     0.9680    -0.0000
  4 H      0.8777     1.0000     0.1223     0.9680     0.9680    -0.0000
  5 C      6.2824     6.0000    -0.2824     3.6946     3.6946    -0.0000
  6 C      6.2824     6.0000    -0.2824     3.6953     3.6953     0.0000
  7 H      0.9071     1.0000     0.0929     0.9955     0.9955    -0.0000
  8 H      0.9071     1.0000     0.0929     0.9954     0.9954     0.0000
  9 C      5.7681     6.0000     0.2319     4.1984     4.1984     0.0000
 10 O      8.6841     8.0000    -0.6841     1.7932     1.7932     0.0000
 11 C      6.4158     6.0000    -0.4158     3.8705     3.8705    -0.0000
 12 H      0.8732     1.0000     0.1268     0.9545     0.9545     0.0000
 13 H      0.8667     1.0000     0.1333     0.9660     0.9660    -0.0000
 14 H      0.8667     1.0000     0.1333     0.9664     0.9664    -0.0000

  Mayer bond orders larger than 0.100000
B(  0-C ,  1-C ) :   1.3431 B(  0-C ,  2-C ) :   1.3417 B(  0-C , 11-C ) :   0.9339 
B(  1-C ,  3-H ) :   0.9713 B(  1-C ,  5-C ) :   1.4018 B(  2-C ,  4-H ) :   0.9718 
B(  2-C ,  6-C ) :   1.4019 B(  5-C ,  7-H ) :   0.9904 B(  5-C ,  9-C ) :   1.2206 
B(  6-C ,  8-H ) :   0.9903 B(  6-C ,  9-C ) :   1.2205 B(  9-C , 10-O ) :   1.6625 
B( 11-C , 12-H ) :   0.9543 B( 11-C , 13-H ) :   0.9823 B( 11-C , 14-H ) :   0.9827 


-------
TIMINGS
-------

Total SCF time: 0 days 0 hours 0 min 22 sec 

Total time                  ....      22.087 sec
Sum of individual times     ....      18.976 sec  ( 85.9%)

Fock matrix formation       ....      16.875 sec  ( 76.4%)
  Split-RI-J                ....       1.858 sec  ( 11.0% of F)
  Chain of spheres X        ....       7.523 sec  ( 44.6% of F)
  XC integration            ....       3.338 sec  ( 19.8% of F)
    Basis function eval.    ....       0.328 sec  (  9.8% of XC)
    Density eval.           ....       0.292 sec  (  8.7% of XC)
    XC-Functional eval.     ....       0.060 sec  (  1.8% of XC)
    XC-Potential eval.      ....       0.345 sec  ( 10.3% of XC)
Diagonalization             ....       0.294 sec  (  1.3%)
Density matrix formation    ....       0.023 sec  (  0.1%)
Population analysis         ....       0.075 sec  (  0.3%)
Initial guess               ....       0.245 sec  (  1.1%)
Orbital Transformation      ....       0.000 sec  (  0.0%)
Orbital Orthonormalization  ....       0.000 sec  (  0.0%)
DIIS solution               ....       0.278 sec  (  1.3%)
SOSCF solution              ....       0.166 sec  (  0.8%)
Grid generation             ....       1.020 sec  (  4.6%)

Maximum memory used throughout the entire SCF-calculation: 75.5 MB


-------------------------------------------------------------------------------
                          DFT DISPERSION CORRECTION                            
                                                                               
                              DFTD3 V3.1  Rev 1                                
                          USING Becke-Johnson damping                          
-------------------------------------------------------------------------------
The PBE0 functional is recognized
Active option DFTDOPT                   ...         4   

molecular C6(AA) [au] = 2521.693617 


            DFT-D V3
 parameters
 s6 scaling factor         :     1.0000 
 a1 scaling factor         :     0.4145 
 s8 scaling factor         :     1.2177 
 a2 scaling factor         :     4.8593 
 ad hoc parameters k1-k3   :    16.0000     1.3333    -4.0000 

 Edisp/kcal,au: -7.962561348875  -0.012689147859 
 E6   /kcal   :  -4.964994708 
 E8   /kcal   :  -2.997566641 
 % E8         :  37.645758811 

-------------------------   ----------------
Dispersion correction           -0.012689148
-------------------------   ----------------


-------------------------   --------------------
FINAL SINGLE POINT ENERGY      -346.043612755068
-------------------------   --------------------



           ************************************************************
           *        Program running with 24 parallel MPI-processes    *
           *              working on a common directory               *
           ************************************************************
------------------------------------------------------------------------------
                         ORCA SCF GRADIENT CALCULATION
------------------------------------------------------------------------------

 ... reading COSX grid (gridx3)
Gradient of the Kohn-Sham DFT energy:
Kohn-Sham wavefunction type      ... RKS
Hartree-Fock exchange scaling    ...    0.250
Number of operators              ...    1
Number of atoms                  ...   15
Basis set dimensions             ...  290
Integral neglect threshold       ... 2.5e-11
Integral primitive cutoff        ... 2.5e-12
SHARK Integral package           ... ON

Nuc. rep. gradient       (SHARK) ... done (  0.0 sec)
HCore & Overlap gradient (SHARK) ... done (  0.0 sec)
RI-J gradient            (SHARK) ... done (  0.4 sec)
COSX-gradient                    ... done (  1.6 sec)
Exchange-correlation gradient    ... done
Dispersion correction            ... done

------------------
CARTESIAN GRADIENT
------------------

   1   C   :   -0.000014465   -0.000051489    0.000142601
   2   C   :    0.000018465   -0.000082446    0.000243483
   3   C   :    0.000004860    0.000171980    0.000135295
   4   H   :   -0.000003379    0.000003351   -0.000098576
   5   H   :   -0.000006882   -0.000013646   -0.000094578
   6   C   :    0.000024881   -0.000050980   -0.000350397
   7   C   :    0.000025602    0.000126698   -0.000122370
   8   H   :    0.000003694   -0.000013234    0.000125959
   9   H   :   -0.000001047   -0.000060576   -0.000008826
  10   C   :   -0.000070782   -0.000056693    0.000153677
  11   O   :    0.000019924    0.000005099   -0.000212698
  12   C   :    0.000016746    0.000020277    0.000049324
  13   H   :    0.000044390    0.000019132   -0.000016203
  14   H   :   -0.000015497   -0.000025062   -0.000020525
  15   H   :   -0.000020660    0.000053834   -0.000015340

Difference to translation invariance:
           :    0.0000258512    0.0000462447   -0.0000891724

Difference to rotation invariance:
           :    0.0008657162   -0.0001311158   -0.0000118222

Norm of the cartesian gradient     ...    0.0006496157
RMS gradient                       ...    0.0000968390
MAX gradient                       ...    0.0003503966

-------
TIMINGS
-------

Total SCF gradient time            ...        3.927 sec

One electron gradient       ....       0.039 sec  (  1.0%)
RI-J Coulomb gradient       ....       0.395 sec  ( 10.1%)
COSX gradient               ....       1.594 sec  ( 40.6%)
XC gradient                 ....       0.725 sec  ( 18.5%)
CPCM gradient               ....       0.193 sec  (  4.9%)
   A-Matrix (El+Nuc)        ....       0.067 sec  (  1.7%)
   Potential                ....       0.126 sec  (  3.2%)

Maximum memory used throughout the entire SCFGRAD-calculation: 48.7 MB
------------------------------------------------------------------------------
                         ORCA GEOMETRY RELAXATION STEP
------------------------------------------------------------------------------

Reading the OPT-File                    .... done
Getting information on internals        .... done
Copying old internal coords+grads       .... done
Making the new internal coordinates     .... (new redundants).... done
Validating the new internal coordinates .... (new redundants).... done
Calculating the B-matrix                .... done
Calculating the G,G- and P matrices     .... done
Transforming gradient to internals      .... done
Projecting the internal gradient        .... done
Number of atoms                         ....  15
Number of internal coordinates          ....  69
Current Energy                          ....  -346.043612755 Eh
Current gradient norm                   ....     0.000649616 Eh/bohr
Maximum allowed component of the step   ....  0.200
Current trust radius                    ....  0.300
Evaluating the initial hessian          ....  (Almloef) done
Projecting the Hessian                  .... done
Forming the augmented Hessian           .... done
Diagonalizing the augmented Hessian     .... done
Last element of RFO vector              ....  0.999997731
Lowest eigenvalues of augmented Hessian:
 -0.000000550  0.012744039  0.020012434  0.020359454  0.022447255
Length of the computed step             ....  0.002130289
The final length of the internal step   ....  0.002130289
Converting the step to cartesian space:
 Initial RMS(Int)=    0.0002564567
Transforming coordinates:
 Iter   0:  RMS(Cart)=    0.0003060079 RMS(Int)=    0.0002564531
 Iter   1:  RMS(Cart)=    0.0000000707 RMS(Int)=    0.0000000517
done
Storing new coordinates                 .... done

                                .--------------------.
          ----------------------|Geometry convergence|-------------------------
          Item                value                   Tolerance       Converged
          ---------------------------------------------------------------------
          RMS gradient        0.0000607148            0.0000300000      NO
          MAX gradient        0.0002174030            0.0001000000      NO
          RMS step            0.0002564567            0.0006000000      YES
          MAX step            0.0006484345            0.0010000000      YES
          ........................................................
          Max(Bonds)      0.0002      Max(Angles)    0.02
          Max(Dihed)        0.04      Max(Improp)    0.00
          ---------------------------------------------------------------------

The optimization has not yet converged - more geometry cycles are needed


    ---------------------------------------------------------------------------
                         Redundant Internal Coordinates
                            (Angstroem and degrees)

        Definition                    Value    dE/dq     Step     New-Value
    ----------------------------------------------------------------------------
     1. B(C   1,C   0)                1.3956 -0.000128  0.0001    1.3957   
     2. B(C   2,C   0)                1.3957 -0.000181  0.0002    1.3959   
[...]
      3      -0.000917   0.000369  -0.000445   0.001679  -0.001362  -0.000212
      4       0.087543  -0.027441   0.004342   0.002627  -0.021077  -0.096353
      5      -0.060737   0.004884  -0.163360   0.005303  -0.076949  -0.074416
      6      -0.000883   0.000346   0.000442   0.001756   0.001316  -0.000208
      7      -0.090686   0.027520   0.015672  -0.002471  -0.015601   0.090619
      8      -0.052480   0.001926   0.162997   0.006382   0.077911  -0.078698
      9      -0.001624  -0.000283  -0.002221  -0.000683   0.002279   0.000390
     10      -0.079694   0.030917   0.231666  -0.008535   0.116516   0.156696
     11      -0.368782   0.111076   0.183145  -0.014783   0.140347   0.364468
     12      -0.001520  -0.000340   0.002243  -0.000890  -0.002205   0.000357
     13       0.059886  -0.025338   0.217847   0.008321   0.105633  -0.128604
     14      -0.380687   0.115510  -0.197346  -0.016262  -0.146414   0.371688
     15       0.001596  -0.000258   0.002145  -0.000031   0.000295  -0.001731
     16      -0.070352   0.025217  -0.005865  -0.001837   0.024514   0.080544
     17       0.148579  -0.031592   0.177538  -0.002244   0.053580  -0.131471
     18       0.001500  -0.000253  -0.002118  -0.000029  -0.000295  -0.001718
     19       0.081140  -0.027696  -0.017914   0.001931   0.020750  -0.089916
     20       0.142244  -0.029130  -0.176573  -0.003026  -0.054828  -0.128087
     21      -0.002011   0.000631  -0.004564  -0.000743   0.000284   0.006380
     22       0.169459  -0.054354   0.204141  -0.000033   0.069581  -0.183199
     23      -0.283457   0.118045  -0.201820  -0.007276  -0.018604   0.426921
     24      -0.001710   0.000509   0.004246  -0.000841  -0.000377   0.006226
     25      -0.188048   0.062249   0.218376   0.000374   0.070511   0.217424
     26      -0.272588   0.115161   0.187519  -0.007096   0.013637   0.419680
     27       0.002954  -0.000400  -0.000008  -0.000626   0.000011   0.003329
     28       0.008545  -0.001062  -0.047340  -0.000530  -0.055381   0.010551
     29       0.291662  -0.044094  -0.001138  -0.005250   0.001328   0.332751
     30      -0.002376   0.000399   0.000016   0.000240  -0.000008  -0.001360
     31      -0.007402   0.001331   0.023431   0.000188   0.011122  -0.004261
     32      -0.229808   0.042051   0.000943   0.003531  -0.000040  -0.137035
     33      -0.007024  -0.005149  -0.000139  -0.053259   0.000551  -0.002589
     34       0.005259   0.004606   0.070158  -0.000690  -0.039645  -0.001691
     35       0.125614   0.139916  -0.002273  -0.008748   0.001783  -0.056382
     36      -0.137624  -0.230238  -0.007896  -0.158155   0.009702   0.019161
     37      -0.010501  -0.014147  -0.549006   0.002645   0.656969  -0.001055
     38      -0.260165  -0.506855   0.015448  -0.354696  -0.016696  -0.001258
     39       0.103109   0.148044   0.303286   0.469406  -0.375782   0.011267
     40       0.088823   0.169579  -0.062847  -0.385484   0.068150  -0.041148
     41      -0.248103  -0.499887  -0.150916   0.219028   0.304073   0.016901
     42       0.097601   0.143892  -0.293648   0.492463   0.358368   0.011260
     43      -0.108568  -0.206498  -0.038956   0.390720   0.023366   0.041959
     44      -0.242225  -0.486232   0.154511   0.181616  -0.315718   0.014652
                 36         37         38         39         40         41    
      0      -0.000118  -0.005310  -0.000245   0.000412  -0.000005   0.000013
      1       0.383358   0.011210   0.000019  -0.000047   0.001429   0.001351
      2      -0.014327   0.257527   0.000263  -0.001210  -0.000016   0.000583
      3       0.000959  -0.002016   0.000010  -0.000021   0.000332   0.000603
      4      -0.224466  -0.126530  -0.000142   0.001012  -0.002110  -0.051555
      5      -0.086236  -0.318904   0.001126  -0.000749   0.001391   0.030740
      6      -0.000838  -0.002062   0.000005  -0.000043  -0.000328  -0.000405
      7      -0.218845   0.101824   0.000223  -0.001056  -0.002043  -0.038570
      8       0.105137  -0.326731   0.001121  -0.000677  -0.001163  -0.020076
      9       0.001285  -0.002545  -0.000342   0.001253  -0.001339  -0.007235
     10       0.001973   0.272870   0.007538  -0.011713   0.020833   0.602918
     11       0.305130   0.352839  -0.005521   0.007955  -0.014625  -0.364077
     12      -0.001130  -0.002597  -0.000328   0.001299   0.001301   0.004868
     13      -0.016132  -0.248690  -0.007922   0.012169   0.020023   0.452898
     14      -0.308858   0.368034  -0.004969   0.007056   0.012096   0.232751
     15      -0.001856   0.002940   0.000046  -0.000040   0.000038  -0.000122
     16       0.168113  -0.019630  -0.000210   0.000139   0.000833   0.030077
     17      -0.093046   0.267219  -0.000775   0.000046   0.000091   0.013790
     18       0.001738   0.002928   0.000045  -0.000042  -0.000038   0.000078
     19       0.174035   0.039740   0.000151  -0.000133   0.000788   0.020060
     20       0.078692   0.267426  -0.000801   0.000063  -0.000117  -0.010876
     21       0.003278  -0.005266  -0.000192   0.000235  -0.000279   0.001100
     22      -0.021503   0.194411   0.003086  -0.000073  -0.009762  -0.356705
     23       0.285612  -0.125992   0.001118   0.000304  -0.004897  -0.181574
     24      -0.003149  -0.005108  -0.000187   0.000253   0.000280  -0.000635
     25      -0.040790  -0.205413  -0.003037   0.000117  -0.008828  -0.236049
     26      -0.285482  -0.116994   0.001332   0.000290   0.005204   0.141902
     27       0.000068  -0.000769   0.000034  -0.000093   0.000001  -0.000001
     28      -0.259095  -0.006463   0.000034  -0.000006  -0.000218  -0.000099
     29       0.009303  -0.163928   0.000701  -0.000069   0.000005   0.000271
     30       0.000009  -0.000016  -0.000010   0.000036   0.000001   0.000001
     31       0.020440   0.000716  -0.000018   0.000003   0.000011  -0.000146
     32      -0.000656   0.022813  -0.000463   0.000046   0.000002   0.000022
     33      -0.000020   0.004097   0.033978   0.084518   0.000003   0.000196
     34      -0.028466  -0.001589  -0.002042   0.000924   0.092238  -0.003346
     35       0.001135  -0.036456  -0.046220   0.021255  -0.003464   0.000216
     36      -0.003212  -0.035374  -0.782660  -0.495325   0.005617  -0.000537
     37      -0.212142  -0.004403   0.018173   0.012439   0.022682  -0.000839
     38       0.003958  -0.112473   0.280397   0.193009  -0.002860   0.000065
     39       0.149681   0.027424   0.193942  -0.268101  -0.332884   0.011002
     40       0.001560  -0.007902   0.316789  -0.502065  -0.563086   0.019080
     41      -0.273421  -0.044757   0.122615  -0.202315  -0.236709   0.008517
     42      -0.146097   0.026002   0.186314  -0.249327   0.327271  -0.012890
     43       0.026540   0.004892  -0.310881   0.479152  -0.565375   0.022448
     44       0.275641  -0.041133   0.143637  -0.229376   0.280755  -0.012480
                 42         43         44    
      0      -0.000077   0.000000  -0.000041
      1       0.000100   0.002482  -0.000036
      2      -0.003706  -0.000022  -0.002598
      3      -0.000433   0.000331  -0.000368
      4       0.035982  -0.025959   0.027814
      5      -0.019613   0.018090  -0.018488
      6      -0.000572  -0.000296  -0.000363
      7      -0.052578  -0.025819  -0.030285
      8      -0.024902  -0.015490  -0.017278
      9       0.005141  -0.003640   0.003977
     10      -0.414708   0.297834  -0.316759
     11       0.248709  -0.183176   0.193361
     12       0.006797   0.003258   0.003915
     13       0.610555   0.294716   0.343867
     14       0.311464   0.154225   0.178446
     15       0.000085   0.000092  -0.000093
     16      -0.023761  -0.048451   0.044611
     17      -0.011120  -0.026658   0.023823
     18       0.000105  -0.000062  -0.000071
     19       0.031152  -0.044417  -0.044942
     20      -0.017230   0.028665   0.028217
     21      -0.000835  -0.001530   0.001446
     22       0.284961   0.559791  -0.515273
     23       0.143903   0.288889  -0.264144
     24      -0.000933   0.001169   0.001220
     25      -0.371350   0.514600   0.519967
     26       0.221496  -0.312482  -0.313844
     27       0.000004  -0.000003   0.000059
     28      -0.000074   0.002743   0.000223
     29      -0.001648  -0.000205   0.004681
     30      -0.000009   0.000000  -0.000018
     31      -0.000027  -0.000190  -0.000051
     32      -0.000063   0.000026  -0.001211
     33      -0.001131   0.000015  -0.000550
     34      -0.000448  -0.000567  -0.000008
     35      -0.000516   0.000034  -0.000634
     36       0.001791   0.000027  -0.003347
     37      -0.000140  -0.000316   0.000115
     38       0.000344  -0.000032   0.002641
     39       0.007815   0.001175   0.005098
     40       0.012836   0.002034   0.008417
     41       0.007688   0.000702   0.005453
     42       0.004433  -0.001385   0.004997
     43      -0.007015   0.002418  -0.008289
     44       0.005586  -0.001152   0.006119


-----------
IR SPECTRUM
-----------

 Mode   freq       eps      Int      T**2         TX        TY        TZ
       cm**-1   L/(mol*cm) km/mol    a.u.
----------------------------------------------------------------------------
  7:    131.02   0.000238    1.20  0.000568  (-0.023462  0.000025  0.004174)
  8:    301.11   0.001969    9.95  0.002041  ( 0.044901  0.000032  0.004945)
  9:    305.12   0.000010    0.05  0.000010  (-0.001374 -0.002786 -0.000795)
 10:    428.76   0.000003    0.02  0.000002  ( 0.000676  0.001411  0.000052)
 11:    457.34   0.001250    6.32  0.000853  ( 0.000170  0.029204  0.000354)
 12:    468.51   0.003121   15.77  0.002079  ( 0.001473 -0.001235 -0.045551)
 13:    516.28   0.008103   40.95  0.004898  ( 0.069938 -0.000191 -0.002492)
 14:    647.68   0.000001    0.01  0.000001  (-0.000031 -0.000728 -0.000037)
 15:    725.69   0.001285    6.49  0.000553  ( 0.023250  0.000146  0.003467)
 16:    762.95   0.008016   40.51  0.003279  (-0.000358 -0.002019 -0.057225)
 17:    810.60   0.000019    0.10  0.000007  (-0.000376  0.002698 -0.000029)
 18:    846.09   0.020422  103.21  0.007532  (-0.086789 -0.000022  0.000196)
 19:    853.14   0.000071    0.36  0.000026  ( 0.003600 -0.000041 -0.003585)
 20:    933.86   0.000152    0.77  0.000051  (-0.002647 -0.000179 -0.006603)
 21:    952.50   0.000009    0.05  0.000003  ( 0.000216 -0.001733  0.000142)
 22:    990.42   0.000232    1.17  0.000073  (-0.000044  0.008532  0.000538)
 23:   1003.27   0.003800   19.20  0.001182  (-0.001107  0.000754  0.034352)
 24:   1051.61   0.004337   21.92  0.001287  ( 0.016780 -0.001118 -0.031691)
 25:   1106.92   0.008604   43.48  0.002426  ( 0.000042 -0.049227  0.001531)
 26:   1167.89   0.009491   47.97  0.002536  ( 0.000369  0.001335  0.050341)
 27:   1242.14   0.000416    2.10  0.000105  ( 0.002427  0.000273  0.009931)
 28:   1269.55   0.002169   10.96  0.000533  ( 0.000007 -0.023022  0.001755)
 29:   1323.03   0.006234   31.50  0.001470  ( 0.000005  0.038312 -0.001604)
 30:   1388.76   0.075892  383.53  0.017053  ( 0.001351  0.004036  0.130520)
 31:   1392.97   0.001282    6.48  0.000287  (-0.002741 -0.000209 -0.016720)
 32:   1445.73   0.008308   41.98  0.001793  (-0.000015 -0.042339 -0.000773)
 33:   1459.06   0.001876    9.48  0.000401  ( 0.019987 -0.000047  0.001282)
 34:   1473.84   0.000004    0.02  0.000001  (-0.000093  0.000116 -0.000906)
 35:   1539.37   0.157558  796.24  0.031940  ( 0.001279  0.006111  0.178610)
 36:   1574.40   0.011458   57.91  0.002271  ( 0.000013 -0.047602  0.002280)
 37:   1655.48   0.046157  233.26  0.008701  (-0.001560 -0.003392 -0.093203)
 38:   3018.21   0.023040  116.44  0.002382  ( 0.013226 -0.001759 -0.046949)
 39:   3077.41   0.007914   39.99  0.000803  ( 0.026591  0.000432  0.009760)
 40:   3112.19   0.007003   35.39  0.000702  (-0.000005  0.026486 -0.000814)
 41:   3137.94   0.002687   13.58  0.000267  ( 0.000118 -0.014812  0.006912)
 42:   3138.55   0.015036   75.99  0.001495  (-0.000604 -0.003658 -0.038487)
 43:   3159.39   0.022983  116.15  0.002270  ( 0.000023 -0.047624  0.001422)
 44:   3163.93   0.001502    7.59  0.000148  (-0.000213 -0.000791  0.012144)

* The epsilon (eps) is given for a Dirac delta lineshape.
** The dipole moment derivative (T) already includes vibrational overlap.

The first frequency considered to be a vibration is 7
The total number of vibrations considered is 38


--------------------------
THERMOCHEMISTRY AT 298.15K
--------------------------

Temperature         ... 298.15 K
Pressure            ... 1.00 atm
Total Mass          ... 107.13 AMU

Throughout the following assumptions are being made:
  (1) The electronic state is orbitally nondegenerate
  (2) There are no thermally accessible electronically excited states
  (3) Hindered rotations indicated by low frequency modes are not
      treated as such but are treated as vibrations and this may
      cause some error
  (4) All equations used are the standard statistical mechanics
      equations for an ideal gas
  (5) All vibrations are strictly harmonic

freq.     131.02  E(vib)   ...       0.42 
freq.     301.11  E(vib)   ...       0.26 
freq.     305.12  E(vib)   ...       0.26 
freq.     428.76  E(vib)   ...       0.18 
freq.     457.34  E(vib)   ...       0.16 
freq.     468.51  E(vib)   ...       0.16 
freq.     516.28  E(vib)   ...       0.13 
freq.     647.68  E(vib)   ...       0.09 
freq.     725.69  E(vib)   ...       0.06 
freq.     762.95  E(vib)   ...       0.06 
freq.     810.60  E(vib)   ...       0.05 
freq.     846.09  E(vib)   ...       0.04 
freq.     853.14  E(vib)   ...       0.04 
freq.     933.86  E(vib)   ...       0.03 
freq.     952.50  E(vib)   ...       0.03 
freq.     990.42  E(vib)   ...       0.02 
freq.    1003.27  E(vib)   ...       0.02 
freq.    1051.61  E(vib)   ...       0.02 
freq.    1106.92  E(vib)   ...       0.02 
freq.    1167.89  E(vib)   ...       0.01 
freq.    1242.14  E(vib)   ...       0.01 
freq.    1269.55  E(vib)   ...       0.01 
freq.    1323.03  E(vib)   ...       0.01 
freq.    1388.76  E(vib)   ...       0.00 
freq.    1392.97  E(vib)   ...       0.00 
freq.    1445.73  E(vib)   ...       0.00 
freq.    1459.06  E(vib)   ...       0.00 
freq.    1473.84  E(vib)   ...       0.00 
freq.    1539.37  E(vib)   ...       0.00 
freq.    1574.40  E(vib)   ...       0.00 
freq.    1655.48  E(vib)   ...       0.00 
freq.    3018.21  E(vib)   ...       0.00 
freq.    3077.41  E(vib)   ...       0.00 
freq.    3112.19  E(vib)   ...       0.00 
freq.    3137.94  E(vib)   ...       0.00 
freq.    3138.55  E(vib)   ...       0.00 
freq.    3159.39  E(vib)   ...       0.00 
freq.    3163.93  E(vib)   ...       0.00 

------------
INNER ENERGY
------------

The inner energy is: U= E(el) + E(ZPE) + E(vib) + E(rot) + E(trans)
    E(el)   - is the total energy from the electronic structure calculation
              = E(kin-el) + E(nuc-el) + E(el-el) + E(nuc-nuc)
    E(ZPE)  - the the zero temperature vibrational energy from the frequency calculation
    E(vib)  - the the finite temperature correction to E(ZPE) due to population
              of excited vibrational states
    E(rot)  - is the rotational thermal energy
    E(trans)- is the translational thermal energy

Summary of contributions to the inner energy U:
Electronic energy                ...   -346.04361313 Eh
Zero point energy                ...      0.11853924 Eh      74.38 kcal/mol
Thermal vibrational correction   ...      0.00336459 Eh       2.11 kcal/mol
Thermal rotational correction    ...      0.00141627 Eh       0.89 kcal/mol
Thermal translational correction ...      0.00141627 Eh       0.89 kcal/mol
-----------------------------------------------------------------------
Total thermal energy                   -345.91887676 Eh


Summary of corrections to the electronic energy:
(perhaps to be used in another calculation)
Total thermal correction                  0.00619714 Eh       3.89 kcal/mol
Non-thermal (ZPE) correction              0.11853924 Eh      74.38 kcal/mol
-----------------------------------------------------------------------
Total correction                          0.12473637 Eh      78.27 kcal/mol


--------
ENTHALPY
--------

The enthalpy is H = U + kB*T
                kB is Boltzmann's constant
Total free energy                 ...   -345.91887676 Eh 
Thermal Enthalpy correction       ...      0.00094421 Eh       0.59 kcal/mol
-----------------------------------------------------------------------
Total Enthalpy                    ...   -345.91793255 Eh


Note: Only C1 symmetry has been detected, increase convergence thresholds 
      if your molecule has a higher symmetry. Symmetry factor of 1.0 is   
      used for the rotational entropy correction. 
 

Note: Rotational entropy computed according to Herzberg 
Infrared and Raman Spectra, Chapter V,1, Van Nostrand Reinhold, 1945 
Point Group:  C1, Symmetry Number:   1  
Rotational constants in cm-1:     0.187563     0.049763     0.039619 

Vibrational entropy computed according to the QRRHO of S. Grimme
Chem.Eur.J. 2012 18 9955


-------
ENTROPY
-------

The entropy contributions are T*S = T*(S(el)+S(vib)+S(rot)+S(trans))
     S(el)   - electronic entropy
     S(vib)  - vibrational entropy
     S(rot)  - rotational entropy
     S(trans)- translational entropy
The entropies will be listed as multiplied by the temperature to get
units of energy

Electronic entropy                ...      0.00000000 Eh      0.00 kcal/mol
Vibrational entropy               ...      0.00517392 Eh      3.25 kcal/mol
Rotational entropy                ...      0.01324154 Eh      8.31 kcal/mol
Translational entropy             ...      0.01896881 Eh     11.90 kcal/mol
-----------------------------------------------------------------------
Final entropy term                ...      0.03738428 Eh     23.46 kcal/mol

In case the symmetry of your molecule has not been determined correctly
or in case you have a reason to use a different symmetry number we print 
out the resulting rotational entropy values for sn=1,12 :
 --------------------------------------------------------
|  sn= 1 | S(rot)=       0.01324154 Eh      8.31 kcal/mol|
|  sn= 2 | S(rot)=       0.01258709 Eh      7.90 kcal/mol|
|  sn= 3 | S(rot)=       0.01220425 Eh      7.66 kcal/mol|
|  sn= 4 | S(rot)=       0.01193263 Eh      7.49 kcal/mol|
|  sn= 5 | S(rot)=       0.01172194 Eh      7.36 kcal/mol|
|  sn= 6 | S(rot)=       0.01154980 Eh      7.25 kcal/mol|
|  sn= 7 | S(rot)=       0.01140425 Eh      7.16 kcal/mol|
|  sn= 8 | S(rot)=       0.01127817 Eh      7.08 kcal/mol|
|  sn= 9 | S(rot)=       0.01116697 Eh      7.01 kcal/mol|
|  sn=10 | S(rot)=       0.01106749 Eh      6.94 kcal/mol|
|  sn=11 | S(rot)=       0.01097750 Eh      6.89 kcal/mol|
|  sn=12 | S(rot)=       0.01089534 Eh      6.84 kcal/mol|
 --------------------------------------------------------


-------------------
GIBBS FREE ENERGY
-------------------

The Gibbs free energy is G = H - T*S

Total enthalpy                    ...   -345.91793255 Eh 
Total entropy correction          ...     -0.03738428 Eh    -23.46 kcal/mol
-----------------------------------------------------------------------
Final Gibbs free energy         ...   -345.95531683 Eh

For completeness - the Gibbs free energy minus the electronic energy
G-E(el)                           ...      0.08829631 Eh     55.41 kcal/mol


Timings for individual modules:

Sum of individual times         ...      206.273 sec (=   3.438 min)
GTO integral calculation        ...        4.247 sec (=   0.071 min)   2.1 %
SCF iterations                  ...       48.168 sec (=   0.803 min)  23.4 %
SCF Gradient evaluation         ...        9.332 sec (=   0.156 min)   4.5 %
Geometry relaxation             ...        0.189 sec (=   0.003 min)   0.1 %
Analytical frequency calculation...      144.338 sec (=   2.406 min)  70.0 %
                             ****ORCA TERMINATED NORMALLY****
TOTAL RUN TIME: 0 days 0 hours 3 minutes 33 seconds 173 msec
