
                                 *****************
                                 * O   R   C   A *
                                 *****************

                                            #,                                       
                                            ###                                      
                                            ####                                     
                                            #####                                    
                                            ######                                   
                                           ########,                                 
                                     ,,################,,,,,                         
                               ,,#################################,,                 
                          ,,##########################################,,             
                       ,#########################################, ''#####,          
                    ,#############################################,,   '####,        
                  ,##################################################,,,,####,       
                ,###########''''           ''''###############################       
              ,#####''   ,,,,##########,,,,          '''####'''          '####       
            ,##' ,,,,###########################,,,                        '##       
           ' ,,###''''                  '''############,,,                           
         ,,##''                                '''############,,,,        ,,,,,,###''
      ,#''                                            '''#######################'''  
     '                                                          ''''####''''         
             ,#######,   #######,   ,#######,      ##                                
            ,#'     '#,  ##    ##  ,#'     '#,    #''#        ######   ,####,        
            ##       ##  ##   ,#'  ##            #'  '#       #        #'  '#        
            ##       ##  #######   ##           ,######,      #####,   #    #        
            '#,     ,#'  ##    ##  '#,     ,#' ,#      #,         ##   #,  ,#        
             '#######'   ##     ##  '#######'  #'      '#     #####' # '####'        



                  #######################################################
                  #                        -***-                        #
                  #          Department of theory and spectroscopy      #
                  #    Directorship and core code : Frank Neese         #
                  #        Max Planck Institute fuer Kohlenforschung    #
                  #                Kaiser Wilhelm Platz 1               #
                  #                 D-45470 Muelheim/Ruhr               #
                  #                      Germany                        #
                  #                                                     #
                  #                  All rights reserved                #
                  #                        -***-                        #
                  #######################################################


                         Program Version 5.0.4 -  RELEASE  -


 With contributions from (in alphabetic order):
   Daniel Aravena         : Magnetic Suceptibility
   Michael Atanasov       : Ab Initio Ligand Field Theory (pilot matlab implementation)
   Alexander A. Auer      : GIAO ZORA, VPT2 properties, NMR spectrum
   Ute Becker             : Parallelization
   Giovanni Bistoni       : ED, misc. LED, open-shell LED, HFLD
   Martin Brehm           : Molecular dynamics
   Dmytro Bykov           : SCF Hessian
   Vijay G. Chilkuri      : MRCI spin determinant printing, contributions to CSF-ICE
   Dipayan Datta          : RHF DLPNO-CCSD density
   Achintya Kumar Dutta   : EOM-CC, STEOM-CC
   Dmitry Ganyushin       : Spin-Orbit,Spin-Spin,Magnetic field MRCI
   Miquel Garcia          : C-PCM and meta-GGA Hessian, CC/C-PCM, Gaussian charge scheme
   Yang Guo               : DLPNO-NEVPT2, F12-NEVPT2, CIM, IAO-localization
   Andreas Hansen         : Spin unrestricted coupled pair/coupled cluster methods
   Benjamin Helmich-Paris : MC-RPA, TRAH-SCF, COSX integrals
   Lee Huntington         : MR-EOM, pCC
   Robert Izsak           : Overlap fitted RIJCOSX, COSX-SCS-MP3, EOM
   Marcus Kettner         : VPT2
   Christian Kollmar      : KDIIS, OOCD, Brueckner-CCSD(T), CCSD density, CASPT2, CASPT2-K
   Simone Kossmann        : Meta GGA functionals, TD-DFT gradient, OOMP2, MP2 Hessian
   Martin Krupicka        : Initial AUTO-CI
   Lucas Lang             : DCDCAS
   Marvin Lechner         : AUTO-CI (C++ implementation), FIC-MRCC
   Dagmar Lenk            : GEPOL surface, SMD
   Dimitrios Liakos       : Extrapolation schemes; Compound Job, initial MDCI parallelization
   Dimitrios Manganas     : Further ROCIS development; embedding schemes
   Dimitrios Pantazis     : SARC Basis sets
   Anastasios Papadopoulos: AUTO-CI, single reference methods and gradients
   Taras Petrenko         : DFT Hessian,TD-DFT gradient, ASA, ECA, R-Raman, ABS, FL, XAS/XES, NRVS
   Peter Pinski           : DLPNO-MP2, DLPNO-MP2 Gradient
   Christoph Reimann      : Effective Core Potentials
   Marius Retegan         : Local ZFS, SOC
   Christoph Riplinger    : Optimizer, TS searches, QM/MM, DLPNO-CCSD(T), (RO)-DLPNO pert. Triples
   Tobias Risthaus        : Range-separated hybrids, TD-DFT gradient, RPA, STAB
   Michael Roemelt        : Original ROCIS implementation
   Masaaki Saitow         : Open-shell DLPNO-CCSD energy and density
   Barbara Sandhoefer     : DKH picture change effects
   Avijit Sen             : IP-ROCIS
   Kantharuban Sivalingam : CASSCF convergence, NEVPT2, FIC-MRCI
   Bernardo de Souza      : ESD, SOC TD-DFT
   Georgi Stoychev        : AutoAux, RI-MP2 NMR, DLPNO-MP2 response
   Willem Van den Heuvel  : Paramagnetic NMR
   Boris Wezisla          : Elementary symmetry handling
   Frank Wennmohs         : Technical directorship


 We gratefully acknowledge several colleagues who have allowed us to
 interface, adapt or use parts of their codes:
   Stefan Grimme, W. Hujo, H. Kruse, P. Pracht,  : VdW corrections, initial TS optimization,
                  C. Bannwarth, S. Ehlert          DFT functionals, gCP, sTDA/sTD-DF
   Ed Valeev, F. Pavosevic, A. Kumar             : LibInt (2-el integral package), F12 methods
   Garnet Chan, S. Sharma, J. Yang, R. Olivares  : DMRG
   Ulf Ekstrom                                   : XCFun DFT Library
   Mihaly Kallay                                 : mrcc  (arbitrary order and MRCC methods)
   Jiri Pittner, Ondrej Demel                    : Mk-CCSD
   Frank Weinhold                                : gennbo (NPA and NBO analysis)
   Christopher J. Cramer and Donald G. Truhlar   : smd solvation model
   Lars Goerigk                                  : TD-DFT with DH, B97 family of functionals
   V. Asgeirsson, H. Jonsson                     : NEB implementation
   FAccTs GmbH                                   : IRC, NEB, NEB-TS, DLPNO-Multilevel, CI-OPT
                                                   MM, QMMM, 2- and 3-layer-ONIOM, Crystal-QMMM,
                                                   LR-CPCM, SF, NACMEs, symmetry and pop. for TD-DFT,
                                                   nearIR, NL-DFT gradient (VV10), updates on ESD,
                                                   ML-optimized integration grids
   S Lehtola, MJT Oliveira, MAL Marques          : LibXC Library
   Liviu Ungur et al                             : ANISO software


 Your calculation uses the libint2 library for the computation of 2-el integrals
 For citations please refer to: http://libint.valeyev.net

 Your ORCA version has been built with support for libXC version: 5.1.0
 For citations please refer to: https://tddft.org/programs/libxc/

 This ORCA versions uses:
   CBLAS   interface :  Fast vector & matrix operations
   LAPACKE interface :  Fast linear algebra routines
   SCALAPACK package :  Parallel linear algebra routines
   Shared memory     :  Shared parallel matrices
   BLAS/LAPACK       :  OpenBLAS 0.3.15  USE64BITINT DYNAMIC_ARCH NO_AFFINITY Haswell SINGLE_THREADED
        Core in use  :  Haswell
   Copyright (c) 2011-2014, The OpenBLAS Project


Your calculation utilizes the atom-pairwise dispersion correction
with the Becke-Johnson damping scheme (D3BJ)
Cite in your paper:
S.Grimme, S.Ehrlich, L.Goerigk, J Comput Chem, (2011), 32, 1456–1465 
S.Grimme, J.Antony, S.Ehrlich and H.Krieg, J.Chem.Phys., 132, (2010), 154104 
   

================================================================================

----- Orbital basis set information -----
Your calculation utilizes the basis: def2-TZVP
   F. Weigend and R. Ahlrichs, Phys. Chem. Chem. Phys. 7, 3297 (2005).

----- AuxJ basis set information -----
Your calculation utilizes the auxiliary basis: def2/J
   F. Weigend, Phys. Chem. Chem. Phys. 8, 1057 (2006).

================================================================================
                                        WARNINGS
                       Please study these warnings very carefully!
================================================================================


WARNING: Geometry Optimization
  ===> : Switching off AutoStart
         For restart on a previous wavefunction, please use MOREAD

INFO   : the flag for use of the SHARK integral package has been found!

================================================================================
                                       INPUT FILE
================================================================================
NAME = Me-PhenOH/Me-PhenOH.inp
|  1> %pal nprocs 24 end
|  2> %maxcore 3500
|  3> ! PBE0 D3BJ def2-TZVP TightSCF OPT FREQ TightOpt
|  4> ! CPCM(dmso)
|  5> %scf
|  6> MaxIter 800
|  7> end
|  8> %geom
|  9> MaxIter 800
| 10> MaxStep 0.2
| 11> end
| 12> *xyz 0 1
| 13> 
| 14> C      -0.01505100     -0.54559800     -1.58456900
| 15> C      -0.01379400      0.67200800     -0.90985800
| 16> C      -0.01102000     -1.70768300     -0.81560100
| 17> H      -0.02518600      1.59660700     -1.47865700
| 18> H      -0.02016400     -2.67342500     -1.31154600
| 19> C      -0.00203700      0.73494800      0.47580700
| 20> C       0.00058000     -1.66500100      0.56975800
| 21> H      -0.00427900      1.69488000      0.98343300
| 22> H       0.00037600     -2.57860400      1.15375400
| 23> C       0.00685200     -0.43759400      1.22204400
| 24> O       0.01554100     -0.43696000      2.58045500
| 25> H       0.01633400      0.47203700      2.90160400
| 26> C       0.00456500     -0.60356700     -3.08279200
| 27> H       1.03077700     -0.63133200     -3.46340200
| 28> H      -0.50299300     -1.49719700     -3.45129900
| 29> H      -0.48050000      0.27207200     -3.51862300
| 30> *
| 31> 
| 32>                          ****END OF INPUT****
================================================================================

                       *****************************
                       * Geometry Optimization Run *
                       *****************************

Geometry optimization settings:
Update method            Update   .... BFGS
Choice of coordinates    CoordSys .... Z-matrix Internals
Initial Hessian          InHess   .... Almoef's Model

Convergence Tolerances:
Energy Change            TolE     ....  1.0000e-06 Eh
Max. Gradient            TolMAXG  ....  1.0000e-04 Eh/bohr
RMS Gradient             TolRMSG  ....  3.0000e-05 Eh/bohr
Max. Displacement        TolMAXD  ....  1.0000e-03 bohr
RMS Displacement         TolRMSD  ....  6.0000e-04 bohr
Strict Convergence                ....  False
------------------------------------------------------------------------------
                        ORCA OPTIMIZATION COORDINATE SETUP
------------------------------------------------------------------------------

The optimization will be done in new redundant internal coordinates
Making redundant internal coordinates   ...  (new redundants) done
Evaluating the initial hessian          ...  (Almloef) done
Evaluating the coordinates              ...  done
Calculating the B-matrix                .... done
Calculating the G-matrix                .... done
Diagonalizing the G-matrix              .... done
The first mode is                       ....   31
The number of degrees of freedom        ....   42

    -----------------------------------------------------------------
                    Redundant Internal Coordinates


    -----------------------------------------------------------------
         Definition                    Initial Value    Approx d2E/dq
    -----------------------------------------------------------------
      1. B(C   1,C   0)                  1.3920         0.620111   
      2. B(C   2,C   0)                  1.3935         0.616874   
      3. B(H   3,C   1)                  1.0856         0.365957   
      4. B(H   4,C   2)                  1.0857         0.365859   
      5. B(C   5,C   1)                  1.3871         0.631387   
      6. B(C   6,C   2)                  1.3861         0.633894   
      7. B(H   7,C   5)                  1.0859         0.365577   
      8. B(H   8,C   6)                  1.0843         0.367710   
      9. B(C   9,C   6)                  1.3900         0.624842   
     10. B(C   9,C   5)                  1.3899         0.625041   
     11. B(O  10,C   9)                  1.3584         0.628390   
     12. B(H  11,O  10)                  0.9641         0.512257   
     13. B(C  12,C   0)                  1.4995         0.417910   
     14. B(H  13,C  12)                  1.0949         0.353712   
     15. B(H  14,C  12)                  1.0918         0.357751   
     16. B(H  15,C  12)                  1.0918         0.357755   
     17. A(C   2,C   0,C  12)          121.2717         0.404233   
     18. A(C   1,C   0,C   2)          117.5144         0.433685   
     19. A(C   1,C   0,C  12)          121.2041         0.404607   
     20. A(H   3,C   1,C   5)          119.0014         0.354968   
     21. A(C   0,C   1,H   3)          119.4063         0.353885   
     22. A(C   0,C   1,C   5)          121.5921         0.435504   
     23. A(H   4,C   2,C   6)          118.9493         0.355190   
     24. A(C   0,C   2,C   6)          121.7287         0.435405   
     25. A(C   0,C   2,H   4)          119.3217         0.353556   
     26. A(H   7,C   5,C   9)          119.6558         0.354298   
     27. A(C   1,C   5,C   9)          119.8748         0.436126   
     28. A(C   1,C   5,H   7)          120.4688         0.354905   
     29. A(H   8,C   6,C   9)          119.4244         0.354628   
     30. A(C   2,C   6,C   9)          119.7534         0.436413   
     31. A(C   2,C   6,H   8)          120.8217         0.355495   
     32. A(C   5,C   9,O  10)          122.4483         0.432899   
     33. A(C   5,C   9,C   6)          119.5356         0.435308   
     34. A(C   6,C   9,O  10)          118.0154         0.432874   
     35. A(C   9,O  10,H  11)          109.4850         0.370022   
     36. A(H  14,C  12,H  15)          108.3718         0.290243   
     37. A(H  13,C  12,H  15)          107.3372         0.289726   
     38. A(C   0,C  12,H  15)          111.2257         0.330012   
     39. A(H  13,C  12,H  14)          107.3162         0.289726   
     40. A(C   0,C  12,H  14)          111.2728         0.330011   
     41. A(C   0,C  12,H  13)          111.1359         0.329392   
     42. D(C   5,C   1,C   0,C  12)   -178.5540         0.026609   
     43. D(C   5,C   1,C   0,C   2)      0.3245         0.026609   
     44. D(H   3,C   1,C   0,C  12)      1.6270         0.026609   
     45. D(H   3,C   1,C   0,C   2)   -179.4945         0.026609   
     46. D(H   4,C   2,C   0,C  12)     -1.6242         0.026316   
     47. D(C   6,C   2,C   0,C   1)     -0.3166         0.026316   
     48. D(H   4,C   2,C   0,C   1)    179.4981         0.026316   
     49. D(C   6,C   2,C   0,C  12)    178.5610         0.026316   
     50. D(C   9,C   5,C   1,H   3)    179.7254         0.027648   
     51. D(C   9,C   5,C   1,C   0)     -0.0943         0.027648   
     52. D(H   7,C   5,C   1,H   3)      0.0047         0.027648   
     53. D(H   7,C   5,C   1,C   0)   -179.8150         0.027648   
     54. D(C   9,C   6,C   2,C   0)      0.0779         0.027883   
     55. D(H   8,C   6,C   2,H   4)     -0.0124         0.027883   
     56. D(H   8,C   6,C   2,C   0)    179.8030         0.027883   
     57. D(C   9,C   6,C   2,H   4)   -179.7375         0.027883   
     58. D(O  10,C   9,C   6,H   8)      0.1441         0.027042   
     59. D(C   5,C   9,C   6,H   8)   -179.5658         0.027042   
     60. D(C   5,C   9,C   6,C   2)      0.1631         0.027042   
     61. D(O  10,C   9,C   5,H   7)     -0.1288         0.027061   
     62. D(O  10,C   9,C   5,C   1)   -179.8518         0.027061   
     63. D(O  10,C   9,C   6,C   2)    179.8730         0.027042   
     64. D(C   6,C   9,C   5,H   7)    179.5677         0.027061   
     65. D(C   6,C   9,C   5,C   1)     -0.1552         0.027061   
     66. D(H  11,O  10,C   9,C   6)   -179.8225         0.029028   
     67. D(H  11,O  10,C   9,C   5)     -0.1215         0.029028   
     68. D(H  14,C  12,C   0,C   2)     30.9154         0.012918   
     69. D(H  14,C  12,C   0,C   1)   -150.2484         0.012918   
     70. D(H  13,C  12,C   0,C   2)    -88.6198         0.012918   
     71. D(H  15,C  12,C   0,C   1)    -29.3139         0.012918   
     72. D(H  13,C  12,C   0,C   1)     90.2165         0.012918   
     73. D(H  15,C  12,C   0,C   2)    151.8498         0.012918   
    -----------------------------------------------------------------

Number of atoms                         .... 16
Number of degrees of freedom            .... 73

         *************************************************************
         *                GEOMETRY OPTIMIZATION CYCLE   1            *
         *************************************************************
---------------------------------
CARTESIAN COORDINATES (ANGSTROEM)
---------------------------------
  C     -0.015051   -0.545598   -1.584569
  C     -0.013794    0.672008   -0.909858
  C     -0.011020   -1.707683   -0.815601
  H     -0.025186    1.596607   -1.478657
  H     -0.020164   -2.673425   -1.311546
  C     -0.002037    0.734948    0.475807
  C      0.000580   -1.665001    0.569758
  H     -0.004279    1.694880    0.983433
  H      0.000376   -2.578604    1.153754
  C      0.006852   -0.437594    1.222044
  O      0.015541   -0.436960    2.580455
  H      0.016334    0.472037    2.901604
  C      0.004565   -0.603567   -3.082792
  H      1.030777   -0.631332   -3.463402
  H     -0.502993   -1.497197   -3.451299
  H     -0.480500    0.272072   -3.518623

----------------------------
CARTESIAN COORDINATES (A.U.)
----------------------------
  NO LB      ZA    FRAG     MASS         X           Y           Z
   0 C     6.0000    0    12.011   -0.028442   -1.031031   -2.994401
   1 C     6.0000    0    12.011   -0.026067    1.269911   -1.719382
   2 C     6.0000    0    12.011   -0.020825   -3.227053   -1.541263
   3 H     1.0000    0     1.008   -0.047595    3.017150   -2.794257
   4 H     1.0000    0     1.008   -0.038104   -5.052041   -2.478463
   5 C     6.0000    0    12.011   -0.003849    1.388850    0.899145
   6 C     6.0000    0    12.011    0.001096   -3.146396    1.076687
   7 H     1.0000    0     1.008   -0.008086    3.202859    1.858419
   8 H     1.0000    0     1.008    0.000711   -4.872855    2.180279
   9 C     6.0000    0    12.011    0.012948   -0.826933    2.309328
  10 O     8.0000    0    15.999    0.029368   -0.825735    4.876353
  11 H     1.0000    0     1.008    0.030867    0.892021    5.483237
  12 C     6.0000    0    12.011    0.008627   -1.140576   -5.825633
  13 H     1.0000    0     1.008    1.947886   -1.193045   -6.544881
  14 H     1.0000    0     1.008   -0.950519   -2.829292   -6.522010
  15 H     1.0000    0     1.008   -0.908013    0.514142   -6.649234

--------------------------------
INTERNAL COORDINATES (ANGSTROEM)
--------------------------------
 C      0   0   0     0.000000000000     0.00000000     0.00000000
 C      1   0   0     1.392049167525     0.00000000     0.00000000
 C      1   2   0     1.393473925558   117.51441174     0.00000000
 H      2   1   3     1.085608304531   119.40628380   180.50551133
 H      3   1   2     1.085680738673   119.32174434   179.49808424
 C      2   1   3     1.387143526415   121.59206471     0.32447072
 C      3   1   2     1.386064887372   121.72872205   359.68337741
 H      6   2   1     1.085890706777   120.46880578   180.18503191
 H      7   3   1     1.084307065015   120.82165713   179.80296511
 C      6   2   1     1.389893311105   119.87477458   359.90569875
 O     10   6   2     1.358438937015   122.44830888   180.14824806
 H     11  10   6     0.964060607565   109.48497408   359.87845883
 C      1   2   3     1.499472357246   121.20411334   181.12152654
 H     13   1   2     1.094872566224   111.13592943    90.21645228
 H     13   1   2     1.091781621623   111.27276740   209.75163532
 H     13   1   2     1.091778536658   111.22569697   330.68606495

---------------------------
INTERNAL COORDINATES (A.U.)
---------------------------
 C      0   0   0     0.000000000000     0.00000000     0.00000000
 C      1   0   0     2.630591691575     0.00000000     0.00000000
 C      1   2   0     2.633284094065   117.51441174     0.00000000
 H      2   1   3     2.051502384274   119.40628380   180.50551133
 H      3   1   2     2.051639264965   119.32174434   179.49808424
 C      2   1   3     2.621321373365   121.59206471     0.32447072
 C      3   1   2     2.619283040977   121.72872205   359.68337741
 H      6   2   1     2.052036047178   120.46880578   180.18503191
 H      7   3   1     2.049043397954   120.82165713   179.80296511
 C      6   2   1     2.626517713357   119.87477458   359.90569875
 O     10   6   2     2.567077560613   122.44830888   180.14824806
 H     11  10   6     1.821810524800   109.48497408   359.87845883
 C      1   2   3     2.833592100581   121.20411334   181.12152654
 H     13   1   2     2.069009301706   111.13592943    90.21645228
 H     13   1   2     2.063168262915   111.27276740   209.75163532
 H     13   1   2     2.063162433177   111.22569697   330.68606495

---------------------
BASIS SET INFORMATION
---------------------
There are 3 groups of distinct atoms

 Group   1 Type C   : 11s6p2d1f contracted to 5s3p2d1f pattern {62111/411/11/1}
 Group   2 Type H   : 5s1p contracted to 3s1p pattern {311/1}
 Group   3 Type O   : 11s6p2d1f contracted to 5s3p2d1f pattern {62111/411/11/1}

Atom   0C    basis set group =>   1
Atom   1C    basis set group =>   1
Atom   2C    basis set group =>   1
Atom   3H    basis set group =>   2
Atom   4H    basis set group =>   2
Atom   5C    basis set group =>   1
Atom   6C    basis set group =>   1
Atom   7H    basis set group =>   2
Atom   8H    basis set group =>   2
Atom   9C    basis set group =>   1
Atom  10O    basis set group =>   3
Atom  11H    basis set group =>   2
Atom  12C    basis set group =>   1
Atom  13H    basis set group =>   2
Atom  14H    basis set group =>   2
Atom  15H    basis set group =>   2
---------------------------------
AUXILIARY/J BASIS SET INFORMATION
---------------------------------
There are 3 groups of distinct atoms

 Group   1 Type C   : 12s5p4d2f1g contracted to 6s4p3d1f1g pattern {711111/2111/211/2/1}
 Group   2 Type H   : 5s2p1d contracted to 3s1p1d pattern {311/2/1}
 Group   3 Type O   : 12s5p4d2f1g contracted to 6s4p3d1f1g pattern {711111/2111/211/2/1}

Atom   0C    basis set group =>   1
Atom   1C    basis set group =>   1
Atom   2C    basis set group =>   1
Atom   3H    basis set group =>   2
Atom   4H    basis set group =>   2
Atom   5C    basis set group =>   1
Atom   6C    basis set group =>   1
Atom   7H    basis set group =>   2
Atom   8H    basis set group =>   2
Atom   9C    basis set group =>   1
Atom  10O    basis set group =>   3
Atom  11H    basis set group =>   2
Atom  12C    basis set group =>   1
Atom  13H    basis set group =>   2
Atom  14H    basis set group =>   2
Atom  15H    basis set group =>   2


           ************************************************************
           *        Program running with 24 parallel MPI-processes    *
           *              working on a common directory               *
           ************************************************************
------------------------------------------------------------------------------
                           ORCA GTO INTEGRAL CALCULATION
                           -- RI-GTO INTEGRALS CHOSEN --
------------------------------------------------------------------------------
------------------------------------------------------------------------------
                   ___                                                        
                  /   \      - P O W E R E D   B Y -                         
                 /     \                                                     
                 |  |  |   _    _      __       _____    __    __             
                 |  |  |  | |  | |    /  \     |  _  \  |  |  /  |          
                  \  \/   | |  | |   /    \    | | | |  |  | /  /          
                 / \  \   | |__| |  /  /\  \   | |_| |  |  |/  /          
                |  |  |   |  __  | /  /__\  \  |    /   |      \           
                |  |  |   | |  | | |   __   |  |    \   |  |\   \          
                \     /   | |  | | |  |  |  |  | |\  \  |  | \   \       
                 \___/    |_|  |_| |__|  |__|  |_| \__\ |__|  \__/        
                                                                              
                      - O R C A' S   B I G   F R I E N D -                    
                                      &                                       
                       - I N T E G R A L  F E E D E R -                       
                                                                              
 v1 FN, 2020, v2 2021                                                         
------------------------------------------------------------------------------


Reading SHARK input file Me-PhenOH/Me-PhenOH.SHARKINP.tmp ... ok
----------------------
SHARK INTEGRAL PACKAGE
----------------------

Number of atoms                             ...     16
Number of basis functions                   ...    296
Number of shells                            ...    120
Maximum angular momentum                    ...      3
Integral batch strategy                     ... SHARK/LIBINT Hybrid
RI-J (if used) integral strategy            ... SPLIT-RIJ (Revised 2003 algorithm where possible)
Printlevel                                  ...      1
Contraction scheme used                     ... SEGMENTED contraction
Coulomb Range Separation                    ... NOT USED
Exchange Range Separation                   ... NOT USED
Finite Nucleus Model                        ... NOT USED
Auxiliary Coulomb fitting basis             ... AVAILABLE
   # of basis functions in Aux-J            ...    480
   # of shells in Aux-J                     ...    160
   Maximum angular momentum in Aux-J        ...      4
Auxiliary J/K fitting basis                 ... NOT available
Auxiliary Correlation fitting basis         ... NOT available
Auxiliary 'external' fitting basis          ... NOT available
Integral threshold                          ...     2.500000e-11
Primitive cut-off                           ...     2.500000e-12
Primitive pair pre-selection threshold      ...     2.500000e-12

Calculating pre-screening integrals         ... done (  0.1 sec) Dimension = 120
Organizing shell pair data                  ... done (  0.1 sec)
Shell pair information
Total number of shell pairs                 ...      7260
Shell pairs after pre-screening             ...      6649
Total number of primitive shell pairs       ...     21936
Primitive shell pairs kept                  ...     15221
          la=0 lb=0:   1824 shell pairs
          la=1 lb=0:   1881 shell pairs
          la=1 lb=1:    498 shell pairs
          la=2 lb=0:    954 shell pairs
          la=2 lb=1:    489 shell pairs
          la=2 lb=2:    130 shell pairs
          la=3 lb=0:    468 shell pairs
          la=3 lb=1:    247 shell pairs
          la=3 lb=2:    123 shell pairs
          la=3 lb=3:     35 shell pairs

Calculating one electron integrals          ... done (  0.0 sec)
Calculating RI/J V-Matrix + Cholesky decomp.... done (  0.1 sec)
Calculating Nuclear repulsion               ... done (  0.0 sec) ENN=    343.656825290491 Eh

SHARK setup successfully completed in   0.6 seconds

Maximum memory used throughout the entire GTOINT-calculation: 20.0 MB


           ************************************************************
           *        Program running with 24 parallel MPI-processes    *
           *              working on a common directory               *
           ************************************************************
-------------------------------------------------------------------------------
                                 ORCA SCF
-------------------------------------------------------------------------------

------------
SCF SETTINGS
------------
Hamiltonian:
 Density Functional     Method          .... DFT(GTOs)
 Exchange Functional    Exchange        .... PBE
   PBE kappa parameter   XKappa         ....  0.804000
   PBE mue parameter    XMuePBE         ....  0.219520
 Correlation Functional Correlation     .... PBE
   PBE beta parameter  CBetaPBE         ....  0.066725
 LDA part of GGA corr.  LDAOpt          .... PW91-LDA
 Gradients option       PostSCFGGA      .... off
 Hybrid DFT is turned on
   Fraction HF Exchange ScalHFX         ....  0.250000
   Scaling of DF-GGA-X  ScalDFX         ....  0.750000
   Scaling of DF-GGA-C  ScalDFC         ....  1.000000
   Scaling of DF-LDA-C  ScalLDAC        ....  1.000000
   Perturbative correction              ....  0.000000
   Density functional embedding theory  .... OFF
   NL short-range parameter             ....  6.900000
 RI-approximation to the Coulomb term is turned on
   Number of AuxJ basis functions       .... 480
   RIJ-COSX (HFX calculated with COS-X)).... on


General Settings:
 Integral files         IntName         .... Me-PhenOH/Me-PhenOH
 Hartree-Fock type      HFTyp           .... RHF
 Total Charge           Charge          ....    0
 Multiplicity           Mult            ....    1
 Number of Electrons    NEL             ....   58
 Basis Dimension        Dim             ....  296
 Nuclear Repulsion      ENuc            ....    343.6568252905 Eh

Convergence Acceleration:
 DIIS                   CNVDIIS         .... on
   Start iteration      DIISMaxIt       ....    12
   Startup error        DIISStart       ....  0.200000
   # of expansion vecs  DIISMaxEq       ....     5
   Bias factor          DIISBfac        ....   1.050
   Max. coefficient     DIISMaxC        ....  10.000
 Trust-Rad. Augm. Hess. CNVTRAH         .... auto
   Auto Start mean grad. ratio tolernc. ....  1.125000
   Auto Start start iteration           ....    20
   Auto Start num. interpolation iter.  ....    10
   Max. Number of Micro iterations      ....    16
   Max. Number of Macro iterations      .... Maxiter - #DIIS iter
   Number of Davidson start vectors     ....     2
   Converg. threshold I  (grad. norm)   ....   1.000e-05
   Converg. threshold II (energy diff.) ....   1.000e-08
   Grad. Scal. Fac. for Micro threshold ....   0.100
   Minimum threshold for Micro iter.    ....   0.010
   NR start threshold (gradient norm)   ....   0.001
   Initial trust radius                 ....   0.400
   Minimum AH scaling param. (alpha)    ....   1.000
   Maximum AH scaling param. (alpha)    .... 1000.000
   Orbital update algorithm             .... Taylor
   White noise on init. David. guess    .... on
   Maximum white noise                  ....   0.010
   Quad. conv. algorithm                .... NR
 SOSCF                  CNVSOSCF        .... on
   Start iteration      SOSCFMaxIt      ....   150
   Startup grad/error   SOSCFStart      ....  0.003300
 Level Shifting         CNVShift        .... on
   Level shift para.    LevelShift      ....    0.2500
   Turn off err/grad.   ShiftErr        ....    0.0010
 Zerner damping         CNVZerner       .... off
 Static damping         CNVDamp         .... on
   Fraction old density DampFac         ....    0.7000
   Max. Damping (<1)    DampMax         ....    0.9800
   Min. Damping (>=0)   DampMin         ....    0.0000
   Turn off err/grad.   DampErr         ....    0.1000
 Fernandez-Rico         CNVRico         .... off

SCF Procedure:
 Maximum # iterations   MaxIter         ....   800
 SCF integral mode      SCFMode         .... Direct
   Integral package                     .... SHARK and LIBINT hybrid scheme
 Reset frequency        DirectResetFreq ....    20
 Integral Threshold     Thresh          ....  2.500e-11 Eh
 Primitive CutOff       TCut            ....  2.500e-12 Eh

Convergence Tolerance:
 Convergence Check Mode ConvCheckMode   .... Total+1el-Energy
 Convergence forced     ConvForced      .... 0
 Energy Change          TolE            ....  1.000e-08 Eh
 1-El. energy change                    ....  1.000e-05 Eh
 Orbital Gradient       TolG            ....  1.000e-05
 Orbital Rotation angle TolX            ....  1.000e-05
 DIIS Error             TolErr          ....  5.000e-07


Diagonalization of the overlap matrix:
Smallest eigenvalue                        ... 8.592e-06
Time for diagonalization                   ...    0.033 sec
Threshold for overlap eigenvalues          ... 1.000e-08
Number of eigenvalues below threshold      ... 0
Time for construction of square roots      ...    0.078 sec
Total time needed                          ...    0.114 sec

Time for model grid setup =    0.121 sec

------------------------------
INITIAL GUESS: MODEL POTENTIAL
------------------------------
Loading Hartree-Fock densities                     ... done
Calculating cut-offs                               ... done
Initializing the effective Hamiltonian             ... done
Setting up the integral package (SHARK)            ... done
Starting the Coulomb interaction                   ... done (   0.1 sec)
Reading the grid                                   ... done
Mapping shells                                     ... done
Starting the XC term evaluation                    ... done (   0.1 sec)
  promolecular density results
     # of electrons  =     57.995821595
     EX              =    -46.332451443
     EC              =     -1.917710909
     EX+EC           =    -48.250162353
Transforming the Hamiltonian                       ... done (   0.0 sec)
Diagonalizing the Hamiltonian                      ... done (   0.0 sec)
Back transforming the eigenvectors                 ... done (   0.0 sec)
Now organizing SCF variables                       ... done
                      ------------------
                      INITIAL GUESS DONE (   0.4 sec)
                      ------------------
-------------------
DFT GRID GENERATION
-------------------

General Integration Accuracy     IntAcc      ... 4.388
Radial Grid Type                 RadialGrid  ... OptM3 with GC (2021)
Angular Grid (max. ang.)         AngularGrid ... 4 (Lebedev-302)
Angular grid pruning method      GridPruning ... 4 (adaptive)
Weight generation scheme         WeightScheme... Becke
Basis function cutoff            BFCut       ... 1.0000e-11
Integration weight cutoff        WCut        ... 1.0000e-14
Angular grids for H and He will be reduced by one unit
Partially contracted basis set               ... off
Rotationally invariant grid construction     ... off

Total number of grid points                  ...    73887
Total number of batches                      ...     1160
Average number of points per batch           ...       63
Average number of grid points per atom       ...     4618
Time for grid setup =    0.379 sec

--------------------
COSX GRID GENERATION
--------------------

GRIDX 1
-------
General Integration Accuracy     IntAcc      ... 3.816
Radial Grid Type                 RadialGrid  ... OptM3 with GC (2021)
Angular Grid (max. ang.)         AngularGrid ... 1 (Lebedev-50)
Angular grid pruning method      GridPruning ... 4 (adaptive)
Weight generation scheme         WeightScheme... Becke
Basis function cutoff            BFCut       ... 1.0000e-11
Integration weight cutoff        WCut        ... 1.0000e-14
Angular grids for H and He will be reduced by one unit
Partially contracted basis set               ... on
Rotationally invariant grid construction     ... off

Total number of grid points                  ...     9483
Total number of batches                      ...      154
Average number of points per batch           ...       61
Average number of grid points per atom       ...      593
UseSFitting                                  ... on

GRIDX 2
-------
General Integration Accuracy     IntAcc      ... 4.020
Radial Grid Type                 RadialGrid  ... OptM3 with GC (2021)
Angular Grid (max. ang.)         AngularGrid ... 2 (Lebedev-110)
Angular grid pruning method      GridPruning ... 4 (adaptive)
Weight generation scheme         WeightScheme... Becke
Basis function cutoff            BFCut       ... 1.0000e-11
Integration weight cutoff        WCut        ... 1.0000e-14
Angular grids for H and He will be reduced by one unit
Partially contracted basis set               ... on
Rotationally invariant grid construction     ... off

Total number of grid points                  ...    20484
Total number of batches                      ...      328
Average number of points per batch           ...       62
Average number of grid points per atom       ...     1280
UseSFitting                                  ... on

GRIDX 3
-------
General Integration Accuracy     IntAcc      ... 4.338
Radial Grid Type                 RadialGrid  ... OptM3 with GC (2021)
Angular Grid (max. ang.)         AngularGrid ... 3 (Lebedev-194)
Angular grid pruning method      GridPruning ... 4 (adaptive)
Weight generation scheme         WeightScheme... Becke
Basis function cutoff            BFCut       ... 1.0000e-11
Integration weight cutoff        WCut        ... 1.0000e-14
Angular grids for H and He will be reduced by one unit
Partially contracted basis set               ... on
Rotationally invariant grid construction     ... off

Total number of grid points                  ...    45006
Total number of batches                      ...      712
Average number of points per batch           ...       63
Average number of grid points per atom       ...     2813
UseSFitting                                  ... on

Time for X-Grid setup             =    0.567 sec


--------------------
CPCM SOLVATION MODEL
--------------------
CPCM parameters:
  Epsilon                                         ...      47.2000
  Refrac                                          ...       1.4790
  Rsolv                                           ...       1.3000
  Surface type                                    ... GAUSSIAN VDW
  Epsilon function type                           ...         CPCM
Radii:
 Radius for C  used is    3.8550 Bohr (=   2.0400 Ang.)
 Radius for H  used is    2.4944 Bohr (=   1.3200 Ang.)
 Radius for O  used is    3.4469 Bohr (=   1.8240 Ang.)
Calculating surface                               ...        done! (  0.0s)
GEPOL surface points                              ...          920
GEPOL Volume                                      ...     976.4386
GEPOL Surface-area                                ...     557.4125
Calculating surface distance matrix               ...        done! (  0.0s)
Performing Cholesky decomposition & store         ...        done! (  0.1s)
Overall time for CPCM initialization              ...                 0.1s
--------------
SCF ITERATIONS
--------------
ITER       Energy         Delta-E        Max-DP      RMS-DP      [F,P]     Damp
               ***  Starting incremental Fock matrix formation  ***
  0   -346.3069557316   0.000000000000 0.07353763  0.00117509  0.2115962 0.7000
  1   -346.4006932530  -0.093737521380 0.08324645  0.00107749  0.1008365 0.7000
                               ***Turning on DIIS***
  2   -346.4429454395  -0.042252186487 0.13646609  0.00198082  0.0426302 0.0000
  3   -346.5035154248  -0.060569985296 0.07217539  0.00078895  0.0505635 0.0000
  4   -346.5184051694  -0.014889744601 0.01848438  0.00024648  0.0091242 0.0000
  5   -346.5190160026  -0.000610833209 0.01054501  0.00012862  0.0059866 0.0000
                      *** Initiating the SOSCF procedure ***
                           *** Shutting down DIIS ***
                      *** Re-Reading the Fockian *** 
                      *** Removing any level shift *** 
ITER      Energy       Delta-E        Grad      Rot      Max-DP    RMS-DP
  6   -346.51907865  -0.0000626436  0.000246  0.000246  0.002998  0.000063
               *** Restarting incremental Fock matrix formation ***
  7   -346.51906755   0.0000110923  0.000232  0.000959  0.001392  0.000020
  8   -346.51906651   0.0000010403  0.000360  0.000560  0.000943  0.000011
  9   -346.51906825  -0.0000017398  0.000010  0.000035  0.000096  0.000002
 10   -346.51906825   0.0000000006  0.000014  0.000023  0.000047  0.000001
                  ***Gradient check signals convergence***
              ***Rediagonalizing the Fockian in SOSCF/NRSCF***

               *****************************************************
               *                     SUCCESS                       *
               *           SCF CONVERGED AFTER  11 CYCLES          *
               *****************************************************

Old exchange energy                            =    -11.853905293 Eh
New exchange energy                            =    -11.853907736 Eh
Exchange energy change after final integration =     -0.000002443 Eh
Total energy after final integration           =   -346.519070701 Eh
Final COS-X integration done in                =     1.398 sec

----------------
TOTAL SCF ENERGY
----------------

Total Energy       :         -346.51907070 Eh           -9429.26329 eV

Components:
Nuclear Repulsion  :          343.65682529 Eh            9351.37763 eV
Electronic Energy  :         -690.17589599 Eh          -18780.64092 eV
One Electron Energy:        -1149.90475858 Eh          -31290.49926 eV
Two Electron Energy:          459.72886259 Eh           12509.85834 eV
Max COSX asymmetry :            0.00000114 Eh               0.00003 eV
CPCM Dielectric    :           -0.01180983 Eh              -0.32136 eV

Virial components:
Potential Energy   :         -691.40597650 Eh          -18814.11311 eV
Kinetic Energy     :          344.88690580 Eh            9384.84982 eV
Virial Ratio       :            2.00473246


DFT components:
N(Alpha)           :       29.000018730202 electrons
N(Beta)            :       29.000018730202 electrons
N(Total)           :       58.000037460404 electrons
E(X)               :      -35.453989808466 Eh       
E(C)               :       -1.927583434543 Eh       
E(XC)              :      -37.381573243009 Eh       
DFET-embed. en.    :        0.000000000000 Eh       
CPCM Solvation Model Properties:
Surface-charge          :           -0.02400786
Charge-correction       :            0.00012883 Eh               0.00351 eV
Free-energy (cav+disp)  :  This term is not implemented in the current solvation scheme

---------------
SCF CONVERGENCE
---------------

  Last Energy change         ...   -5.5242e-09  Tolerance :   1.0000e-08
  Last MAX-Density change    ...    1.6653e-15  Tolerance :   1.0000e-07
  Last RMS-Density change    ...    1.8358e-17  Tolerance :   5.0000e-09
  Last Orbital Gradient      ...    1.2075e-06  Tolerance :   1.0000e-05
  Last Orbital Rotation      ...    2.8272e-06  Tolerance :   1.0000e-05

             **** THE GBW FILE WAS UPDATED (Me-PhenOH/Me-PhenOH.gbw) ****
             **** DENSITY Me-PhenOH/Me-PhenOH.scfp WAS UPDATED ****
             **** ENERGY FILE WAS UPDATED (Me-PhenOH/Me-PhenOH.en.tmp) ****
             **** THE GBW FILE WAS UPDATED (Me-PhenOH/Me-PhenOH.gbw) ****
             **** DENSITY Me-PhenOH/Me-PhenOH.scfp WAS UPDATED ****
----------------
ORBITAL ENERGIES
----------------

  NO   OCC          E(Eh)            E(eV) 
   0   2.0000     -19.235054      -523.4124 
   1   2.0000     -10.284182      -279.8468 
   2   2.0000     -10.227677      -278.3092 
   3   2.0000     -10.223848      -278.2050 
   4   2.0000     -10.223417      -278.1933 
   5   2.0000     -10.222421      -278.1662 
   6   2.0000     -10.220482      -278.1135 
   7   2.0000     -10.209841      -277.8239 
   8   2.0000      -1.092448       -29.7270 
   9   2.0000      -0.883570       -24.0432 
  10   2.0000      -0.790400       -21.5079 
  11   2.0000      -0.772198       -21.0126 
  12   2.0000      -0.701231       -19.0815 
  13   2.0000      -0.641080       -17.4447 
  14   2.0000      -0.608189       -16.5497 
  15   2.0000      -0.561583       -15.2814 
  16   2.0000      -0.503074       -13.6893 
  17   2.0000      -0.478496       -13.0205 
  18   2.0000      -0.448316       -12.1993 
  19   2.0000      -0.437943       -11.9170 
  20   2.0000      -0.432595       -11.7715 
  21   2.0000      -0.419973       -11.4280 
  22   2.0000      -0.415833       -11.3154 
  23   2.0000      -0.382999       -10.4219 
  24   2.0000      -0.366121        -9.9627 
  25   2.0000      -0.345255        -9.3949 
  26   2.0000      -0.345153        -9.3921 
  27   2.0000      -0.270226        -7.3532 
  28   2.0000      -0.232128        -6.3165 
  29   0.0000      -0.010212        -0.2779 
  30   0.0000       0.009716         0.2644 
  31   0.0000       0.063578         1.7301 
  32   0.0000       0.065469         1.7815 
  33   0.0000       0.085184         2.3180 
  34   0.0000       0.096502         2.6260 
  35   0.0000       0.121042         3.2937 
  36   0.0000       0.130626         3.5545 
  37   0.0000       0.142105         3.8669 
  38   0.0000       0.144970         3.9448 
  39   0.0000       0.154937         4.2160 
  40   0.0000       0.165126         4.4933 
  41   0.0000       0.178162         4.8480 
  42   0.0000       0.192878         5.2485 
  43   0.0000       0.205912         5.6032 
  44   0.0000       0.226135         6.1534 
  45   0.0000       0.232683         6.3316 
  46   0.0000       0.236079         6.4240 
  47   0.0000       0.245891         6.6910 
  48   0.0000       0.261085         7.1045 
  49   0.0000       0.270428         7.3587 
  50   0.0000       0.284599         7.7443 
  51   0.0000       0.298787         8.1304 
  52   0.0000       0.303754         8.2656 
  53   0.0000       0.320307         8.7160 
  54   0.0000       0.342466         9.3190 
  55   0.0000       0.350887         9.5481 
  56   0.0000       0.353043         9.6068 
  57   0.0000       0.361926         9.8485 
  58   0.0000       0.366301         9.9676 
  59   0.0000       0.374201        10.1825 
  60   0.0000       0.382906        10.4194 
  61   0.0000       0.393861        10.7175 
  62   0.0000       0.415391        11.3034 
  63   0.0000       0.434886        11.8339 
  64   0.0000       0.443926        12.0798 
  65   0.0000       0.448173        12.1954 
  66   0.0000       0.458936        12.4883 
  67   0.0000       0.466800        12.7023 
  68   0.0000       0.478296        13.0151 
  69   0.0000       0.480533        13.0760 
  70   0.0000       0.497681        13.5426 
  71   0.0000       0.507652        13.8139 
  72   0.0000       0.513737        13.9795 
  73   0.0000       0.529571        14.4104 
  74   0.0000       0.538247        14.6464 
  75   0.0000       0.554988        15.1020 
  76   0.0000       0.566110        15.4046 
  77   0.0000       0.583565        15.8796 
  78   0.0000       0.609927        16.5970 
  79   0.0000       0.635194        17.2845 
  80   0.0000       0.641742        17.4627 
  81   0.0000       0.657778        17.8990 
  82   0.0000       0.666019        18.1233 
  83   0.0000       0.687832        18.7169 
  84   0.0000       0.722413        19.6578 
  85   0.0000       0.729844        19.8601 
  86   0.0000       0.746609        20.3163 
  87   0.0000       0.751238        20.4422 
  88   0.0000       0.779624        21.2147 
  89   0.0000       0.785439        21.3729 
  90   0.0000       0.801753        21.8168 
  91   0.0000       0.834654        22.7121 
  92   0.0000       0.846322        23.0296 
  93   0.0000       0.861932        23.4544 
  94   0.0000       0.875197        23.8153 
  95   0.0000       0.886241        24.1158 
  96   0.0000       0.899186        24.4681 
  97   0.0000       0.934217        25.4213 
  98   0.0000       0.947173        25.7739 
  99   0.0000       0.975247        26.5378 
 100   0.0000       1.022329        27.8190 
 101   0.0000       1.024729        27.8843 
 102   0.0000       1.042863        28.3777 
 103   0.0000       1.067176        29.0393 
 104   0.0000       1.073803        29.2197 
 105   0.0000       1.113702        30.3054 
 106   0.0000       1.137083        30.9416 
 107   0.0000       1.154437        31.4138 
 108   0.0000       1.188659        32.3451 
 109   0.0000       1.204938        32.7880 
 110   0.0000       1.208006        32.8715 
 111   0.0000       1.236225        33.6394 
 112   0.0000       1.243444        33.8358 
 113   0.0000       1.281433        34.8696 
 114   0.0000       1.304506        35.4974 
 115   0.0000       1.324431        36.0396 
 116   0.0000       1.333426        36.2844 
 117   0.0000       1.345528        36.6137 
 118   0.0000       1.367317        37.2066 
 119   0.0000       1.420225        38.6463 
 120   0.0000       1.434943        39.0468 
 121   0.0000       1.445566        39.3359 
 122   0.0000       1.495529        40.6954 
 123   0.0000       1.513474        41.1837 
 124   0.0000       1.522004        41.4158 
 125   0.0000       1.538284        41.8588 
 126   0.0000       1.559438        42.4345 
 127   0.0000       1.570579        42.7376 
 128   0.0000       1.581785        43.0426 
 129   0.0000       1.588672        43.2300 
 130   0.0000       1.624892        44.2156 
 131   0.0000       1.629480        44.3404 
 132   0.0000       1.640370        44.6367 
 133   0.0000       1.651385        44.9365 
 134   0.0000       1.682644        45.7871 
 135   0.0000       1.695336        46.1324 
 136   0.0000       1.728125        47.0247 
 137   0.0000       1.742474        47.4151 
 138   0.0000       1.750141        47.6237 
 139   0.0000       1.763537        47.9883 
 140   0.0000       1.768610        48.1263 
 141   0.0000       1.839795        50.0634 
 142   0.0000       1.863358        50.7045 
 143   0.0000       1.884873        51.2900 
 144   0.0000       1.901619        51.7457 
 145   0.0000       1.915577        52.1255 
 146   0.0000       1.952790        53.1381 
 147   0.0000       1.975898        53.7669 
 148   0.0000       2.010949        54.7207 
 149   0.0000       2.017264        54.8926 
 150   0.0000       2.040106        55.5141 
 151   0.0000       2.061887        56.1068 
 152   0.0000       2.077121        56.5213 
 153   0.0000       2.146395        58.4064 
 154   0.0000       2.151829        58.5542 
 155   0.0000       2.162774        58.8521 
 156   0.0000       2.178794        59.2880 
 157   0.0000       2.193668        59.6927 
 158   0.0000       2.218768        60.3757 
 159   0.0000       2.234494        60.8037 
 160   0.0000       2.255037        61.3627 
 161   0.0000       2.279404        62.0257 
 162   0.0000       2.306382        62.7599 
 163   0.0000       2.335874        63.5624 
 164   0.0000       2.377668        64.6996 
 165   0.0000       2.393057        65.1184 
 166   0.0000       2.412384        65.6443 
 167   0.0000       2.428512        66.0832 
 168   0.0000       2.464368        67.0589 
 169   0.0000       2.475873        67.3719 
 170   0.0000       2.531170        68.8766 
 171   0.0000       2.541774        69.1652 
 172   0.0000       2.563020        69.7433 
 173   0.0000       2.581904        70.2572 
 174   0.0000       2.593188        70.5642 
 175   0.0000       2.603770        70.8522 
 176   0.0000       2.654522        72.2332 
 177   0.0000       2.664935        72.5166 
 178   0.0000       2.680764        72.9473 
 179   0.0000       2.688064        73.1459 
 180   0.0000       2.698223        73.4224 
 181   0.0000       2.717811        73.9554 
 182   0.0000       2.734297        74.4040 
 183   0.0000       2.752185        74.8908 
 184   0.0000       2.777977        75.5926 
 185   0.0000       2.792953        76.0001 
 186   0.0000       2.800416        76.2032 
 187   0.0000       2.816072        76.6292 
 188   0.0000       2.840469        77.2931 
 189   0.0000       2.864782        77.9547 
 190   0.0000       2.893404        78.7335 
 191   0.0000       2.905245        79.0557 
 192   0.0000       2.913755        79.2873 
 193   0.0000       2.935679        79.8839 
 194   0.0000       2.942676        80.0743 
 195   0.0000       2.966263        80.7161 
 196   0.0000       2.986601        81.2695 
 197   0.0000       2.991014        81.3896 
 198   0.0000       3.026226        82.3478 
 199   0.0000       3.045966        82.8849 
 200   0.0000       3.063406        83.3595 
 201   0.0000       3.102717        84.4292 
 202   0.0000       3.121822        84.9491 
 203   0.0000       3.135059        85.3093 
 204   0.0000       3.141671        85.4892 
 205   0.0000       3.149473        85.7015 
 206   0.0000       3.169600        86.2492 
 207   0.0000       3.176146        86.4273 
 208   0.0000       3.194762        86.9339 
 209   0.0000       3.202973        87.1573 
 210   0.0000       3.226298        87.7920 
 211   0.0000       3.235745        88.0491 
 212   0.0000       3.263255        88.7977 
 213   0.0000       3.274971        89.1165 
 214   0.0000       3.311103        90.0997 
 215   0.0000       3.337301        90.8126 
 216   0.0000       3.342912        90.9652 
 217   0.0000       3.351426        91.1969 
 218   0.0000       3.357291        91.3565 
 219   0.0000       3.389668        92.2375 
 220   0.0000       3.412360        92.8550 
 221   0.0000       3.421130        93.0937 
 222   0.0000       3.427467        93.2661 
 223   0.0000       3.445846        93.7662 
 224   0.0000       3.484346        94.8139 
 225   0.0000       3.495944        95.1295 
 226   0.0000       3.505414        95.3872 
 227   0.0000       3.527836        95.9973 
 228   0.0000       3.532641        96.1280 
 229   0.0000       3.551901        96.6521 
 230   0.0000       3.570482        97.1578 
 231   0.0000       3.631869        98.8282 
 232   0.0000       3.676940       100.0546 
 233   0.0000       3.699061       100.6566 
 234   0.0000       3.739649       101.7610 
 235   0.0000       3.774820       102.7181 
 236   0.0000       3.793701       103.2319 
 237   0.0000       3.800544       103.4180 
 238   0.0000       3.840626       104.5088 
 239   0.0000       3.902254       106.1857 
 240   0.0000       3.913576       106.4938 
 241   0.0000       3.924784       106.7988 
 242   0.0000       3.988339       108.5282 
 243   0.0000       4.020554       109.4048 
 244   0.0000       4.052404       110.2715 
 245   0.0000       4.105991       111.7297 
 246   0.0000       4.135911       112.5439 
 247   0.0000       4.143256       112.7437 
 248   0.0000       4.170101       113.4742 
 249   0.0000       4.205615       114.4406 
 250   0.0000       4.221000       114.8593 
 251   0.0000       4.237620       115.3115 
 252   0.0000       4.269995       116.1925 
 253   0.0000       4.284414       116.5848 
 254   0.0000       4.314230       117.3962 
 255   0.0000       4.340750       118.1178 
 256   0.0000       4.386454       119.3615 
 257   0.0000       4.433381       120.6384 
 258   0.0000       4.478852       121.8758 
 259   0.0000       4.521791       123.0442 
 260   0.0000       4.562790       124.1598 
 261   0.0000       4.595127       125.0398 
 262   0.0000       4.677103       127.2704 
 263   0.0000       4.715958       128.3277 
 264   0.0000       4.721863       128.4884 
 265   0.0000       4.801040       130.6430 
 266   0.0000       4.889398       133.0473 
 267   0.0000       4.921982       133.9340 
 268   0.0000       4.947849       134.6378 
 269   0.0000       4.962088       135.0253 
 270   0.0000       5.158665       140.3744 
 271   0.0000       5.215129       141.9109 
 272   0.0000       5.278643       143.6392 
 273   0.0000       5.331359       145.0736 
 274   0.0000       5.429446       147.7427 
 275   0.0000       5.500001       149.6626 
 276   0.0000       5.501255       149.6968 
 277   0.0000       5.519749       150.2000 
 278   0.0000       5.632828       153.2771 
 279   0.0000       5.816272       158.2688 
 280   0.0000       6.025352       163.9582 
 281   0.0000       6.345122       172.6595 
 282   0.0000       6.426037       174.8613 
 283   0.0000       6.439795       175.2357 
 284   0.0000       6.733784       183.2356 
 285   0.0000       6.824089       185.6929 
 286   0.0000       7.003743       190.5815 
 287   0.0000       7.302012       198.6978 
 288   0.0000      22.111679       601.6894 
 289   0.0000      22.497811       612.1966 
 290   0.0000      22.776030       619.7673 
 291   0.0000      22.801039       620.4478 
 292   0.0000      22.816347       620.8644 
 293   0.0000      23.034349       626.7965 
 294   0.0000      23.419432       637.2752 
 295   0.0000      44.020304      1197.8534 

                    ********************************
                    * MULLIKEN POPULATION ANALYSIS *
                    ********************************

-----------------------
MULLIKEN ATOMIC CHARGES
-----------------------
   0 C :    0.130300
   1 C :   -0.229093
   2 C :   -0.215866
   3 H :    0.146333
   4 H :    0.142911
   5 C :   -0.232900
   6 C :   -0.234128
   7 H :    0.154604
   8 H :    0.140945
   9 C :    0.252971
  10 O :   -0.439333
  11 H :    0.366035
  12 C :   -0.414328
  13 H :    0.142643
  14 H :    0.144493
  15 H :    0.144414
Sum of atomic charges:    0.0000000

--------------------------------
MULLIKEN REDUCED ORBITAL CHARGES
--------------------------------
  0 C s       :     3.144149  s :     3.144149
      pz      :     0.790662  p :     2.568227
      px      :     0.945005
      py      :     0.832561
      dz2     :     0.036377  d :     0.147488
      dxz     :     0.026148
      dyz     :     0.045869
      dx2y2   :     0.017124
      dxy     :     0.021971
      f0      :     0.001233  f :     0.009836
      f+1     :     0.001035
      f-1     :     0.003341
      f+2     :     0.000846
      f-2     :     0.001091
      f+3     :     0.001531
      f-3     :     0.000758
  1 C s       :     3.218427  s :     3.218427
      pz      :     0.969406  p :     2.906542
      px      :     0.973393
      py      :     0.963743
      dz2     :     0.018913  d :     0.096734
      dxz     :     0.021431
      dyz     :     0.037190
      dx2y2   :     0.009159
      dxy     :     0.010042
      f0      :     0.000874  f :     0.007390
      f+1     :     0.001511
      f-1     :     0.002186
      f+2     :     0.000751
      f-2     :     0.000406
      f+3     :     0.001000
      f-3     :     0.000661
  2 C s       :     3.222779  s :     3.222779
      pz      :     0.949319  p :     2.889395
      px      :     0.972292
      py      :     0.967783
      dz2     :     0.021452  d :     0.096359
      dxz     :     0.022283
      dyz     :     0.034646
      dx2y2   :     0.009296
      dxy     :     0.008683
      f0      :     0.000925  f :     0.007333
      f+1     :     0.001489
      f-1     :     0.002153
      f+2     :     0.000695
      f-2     :     0.000529
      f+3     :     0.000870
      f-3     :     0.000671
  3 H s       :     0.831713  s :     0.831713
      pz      :     0.006384  p :     0.021955
      px      :     0.004674
      py      :     0.010897
  4 H s       :     0.835158  s :     0.835158
      pz      :     0.005687  p :     0.021931
      px      :     0.004666
      py      :     0.011578
  5 C s       :     3.222982  s :     3.222982
      pz      :     0.925669  p :     2.918069
      px      :     1.035646
      py      :     0.956755
      dz2     :     0.017321  d :     0.084648
      dxz     :     0.018725
      dyz     :     0.030796
      dx2y2   :     0.009156
      dxy     :     0.008650
      f0      :     0.000873  f :     0.007200
      f+1     :     0.001454
      f-1     :     0.002010
      f+2     :     0.000769
      f-2     :     0.000469
      f+3     :     0.000939
      f-3     :     0.000688
  6 C s       :     3.243437  s :     3.243437
      pz      :     0.927259  p :     2.898641
      px      :     1.025860
      py      :     0.945522
      dz2     :     0.016363  d :     0.084609
      dxz     :     0.017978
      dyz     :     0.031835
      dx2y2   :     0.007795
      dxy     :     0.010639
      f0      :     0.000822  f :     0.007441
      f+1     :     0.001457
      f-1     :     0.002182
      f+2     :     0.000810
      f-2     :     0.000415
      f+3     :     0.001072
      f-3     :     0.000683
  7 H s       :     0.823259  s :     0.823259
      pz      :     0.005552  p :     0.022137
      px      :     0.005053
      py      :     0.011532
  8 H s       :     0.836885  s :     0.836885
      pz      :     0.006441  p :     0.022170
      px      :     0.004995
      py      :     0.010734
  9 C s       :     3.004593  s :     3.004593
      pz      :     0.718401  p :     2.549038
      px      :     0.928559
      py      :     0.902077
      dz2     :     0.033551  d :     0.177740
      dxz     :     0.046297
      dyz     :     0.057601
      dx2y2   :     0.015288
      dxy     :     0.025003
      f0      :     0.002561  f :     0.015658
      f+1     :     0.003331
      f-1     :     0.005373
      f+2     :     0.000733
      f-2     :     0.001106
      f+3     :     0.001728
      f-3     :     0.000826
 10 O s       :     3.751863  s :     3.751863
      pz      :     1.347092  p :     4.653491
      px      :     1.826492
      py      :     1.479906
      dz2     :     0.011550  d :     0.032238
      dxz     :     0.005723
      dyz     :     0.007216
      dx2y2   :     0.006435
      dxy     :     0.001314
      f0      :     0.000532  f :     0.001741
      f+1     :     0.000304
      f-1     :     0.000255
      f+2     :     0.000226
      f-2     :     0.000021
      f+3     :     0.000055
      f-3     :     0.000348
 11 H s       :     0.588592  s :     0.588592
      pz      :     0.010943  p :     0.045373
      px      :     0.015044
      py      :     0.019386
 12 C s       :     3.276402  s :     3.276402
      pz      :     0.910739  p :     3.076717
      px      :     1.078301
      py      :     1.087677
      dz2     :     0.008151  d :     0.057763
      dxz     :     0.021963
      dyz     :     0.017970
      dx2y2   :     0.004944
      dxy     :     0.004736
      f0      :     0.001085  f :     0.003446
      f+1     :     0.000797
      f-1     :     0.000871
      f+2     :     0.000006
      f-2     :     0.000007
      f+3     :     0.000673
      f-3     :     0.000006
 13 H s       :     0.836026  s :     0.836026
      pz      :     0.005532  p :     0.021331
      px      :     0.011241
      py      :     0.004558
 14 H s       :     0.834288  s :     0.834288
      pz      :     0.005455  p :     0.021219
      px      :     0.006131
      py      :     0.009634
 15 H s       :     0.834356  s :     0.834356
      pz      :     0.005868  p :     0.021231
      px      :     0.005987
      py      :     0.009376


                     *******************************
                     * LOEWDIN POPULATION ANALYSIS *
                     *******************************

----------------------
LOEWDIN ATOMIC CHARGES
----------------------
   0 C :   -0.197487
   1 C :   -0.125399
   2 C :   -0.124462
   3 H :    0.155575
   4 H :    0.155532
   5 C :   -0.147122
   6 C :   -0.138078
   7 H :    0.156250
   8 H :    0.154656
   9 C :   -0.298714
  10 O :    0.070749
  11 H :    0.205963
  12 C :   -0.266192
  13 H :    0.133607
  14 H :    0.132566
  15 H :    0.132554

-------------------------------
LOEWDIN REDUCED ORBITAL CHARGES
-------------------------------
  0 C s       :     2.711286  s :     2.711286
      pz      :     0.990637  p :     2.893874
      px      :     0.853759
      py      :     1.049479
      dz2     :     0.144813  d :     0.533743
      dxz     :     0.076627
      dyz     :     0.166077
      dx2y2   :     0.071167
      dxy     :     0.075059
      f0      :     0.006522  f :     0.058584
      f+1     :     0.005860
      f-1     :     0.022270
      f+2     :     0.006597
      f-2     :     0.007564
      f+3     :     0.004314
      f-3     :     0.005458
  1 C s       :     2.757655  s :     2.757655
      pz      :     1.037404  p :     2.927541
      px      :     0.886377
      py      :     1.003759
      dz2     :     0.099189  d :     0.397079
      dxz     :     0.068995
      dyz     :     0.152572
      dx2y2   :     0.045147
      dxy     :     0.031176
      f0      :     0.007250  f :     0.043123
      f+1     :     0.006587
      f-1     :     0.014860
      f+2     :     0.004550
      f-2     :     0.002598
      f+3     :     0.003418
      f-3     :     0.003860
  2 C s       :     2.757667  s :     2.757667
      pz      :     1.042628  p :     2.927088
      px      :     0.885466
      py      :     0.998993
      dz2     :     0.106904  d :     0.396658
      dxz     :     0.073283
      dyz     :     0.143998
      dx2y2   :     0.046184
      dxy     :     0.026288
      f0      :     0.007457  f :     0.043049
      f+1     :     0.006184
      f-1     :     0.014915
      f+2     :     0.004512
      f-2     :     0.003508
      f+3     :     0.002838
      f-3     :     0.003636
  3 H s       :     0.784689  s :     0.784689
      pz      :     0.017416  p :     0.059736
      px      :     0.013472
      py      :     0.028847
  4 H s       :     0.784809  s :     0.784809
      pz      :     0.015748  p :     0.059658
      px      :     0.013429
      py      :     0.030482
  5 C s       :     2.761331  s :     2.761331
      pz      :     1.044474  p :     2.967912
      px      :     0.931329
      py      :     0.992110
      dz2     :     0.094845  d :     0.375136
      dxz     :     0.065052
      dyz     :     0.146010
      dx2y2   :     0.043663
      dxy     :     0.025566
      f0      :     0.007490  f :     0.042743
      f+1     :     0.005960
      f-1     :     0.014231
      f+2     :     0.004849
      f-2     :     0.003520
      f+3     :     0.002999
      f-3     :     0.003694
  6 C s       :     2.760363  s :     2.760363
      pz      :     1.042505  p :     2.963368
      px      :     0.923822
      py      :     0.997042
      dz2     :     0.088508  d :     0.371653
      dxz     :     0.059852
      dyz     :     0.150017
      dx2y2   :     0.043270
      dxy     :     0.030007
      f0      :     0.007336  f :     0.042693
      f+1     :     0.006234
      f-1     :     0.014152
      f+2     :     0.004818
      f-2     :     0.002627
      f+3     :     0.003572
      f-3     :     0.003954
  7 H s       :     0.782871  s :     0.782871
      pz      :     0.015679  p :     0.060879
      px      :     0.014575
      py      :     0.030625
  8 H s       :     0.784424  s :     0.784424
      pz      :     0.017775  p :     0.060919
      px      :     0.014405
      py      :     0.028740
  9 C s       :     2.715007  s :     2.715007
      pz      :     0.839120  p :     2.785339
      px      :     0.857803
      py      :     1.088415
      dz2     :     0.205655  d :     0.699531
      dxz     :     0.144829
      dyz     :     0.197192
      dx2y2   :     0.069372
      dxy     :     0.082484
      f0      :     0.019580  f :     0.098837
      f+1     :     0.019681
      f-1     :     0.034521
      f+2     :     0.006267
      f-2     :     0.007755
      f+3     :     0.005330
      f-3     :     0.005704
 10 O s       :     3.320031  s :     3.320031
      pz      :     1.383781  p :     4.532672
      px      :     1.710661
      py      :     1.438230
      dz2     :     0.024526  d :     0.071709
      dxz     :     0.014907
      dyz     :     0.022376
      dx2y2   :     0.009404
      dxy     :     0.000496
      f0      :     0.001405  f :     0.004839
      f+1     :     0.001037
      f-1     :     0.001427
      f+2     :     0.000391
      f-2     :     0.000010
      f+3     :     0.000001
      f-3     :     0.000568
 11 H s       :     0.640370  s :     0.640370
      pz      :     0.029826  p :     0.153667
      px      :     0.041902
      py      :     0.081939
 12 C s       :     2.818731  s :     2.818731
      pz      :     1.023744  p :     3.168191
      px      :     1.075548
      py      :     1.068899
      dz2     :     0.056525  d :     0.254626
      dxz     :     0.073384
      dyz     :     0.071088
      dx2y2   :     0.028754
      dxy     :     0.024875
      f0      :     0.005302  f :     0.024644
      f+1     :     0.005482
      f-1     :     0.005758
      f+2     :     0.002582
      f-2     :     0.002612
      f+3     :     0.002882
      f-3     :     0.000026
 13 H s       :     0.804377  s :     0.804377
      pz      :     0.014910  p :     0.062016
      px      :     0.033363
      py      :     0.013743
 14 H s       :     0.805553  s :     0.805553
      pz      :     0.014388  p :     0.061881
      px      :     0.018672
      py      :     0.028821
 15 H s       :     0.805596  s :     0.805596
      pz      :     0.015369  p :     0.061850
      px      :     0.018237
      py      :     0.028244


                      *****************************
                      * MAYER POPULATION ANALYSIS *
                      *****************************

  NA   - Mulliken gross atomic population
  ZA   - Total nuclear charge
  QA   - Mulliken gross atomic charge
  VA   - Mayer's total valence
  BVA  - Mayer's bonded valence
  FA   - Mayer's free valence

  ATOM       NA         ZA         QA         VA         BVA        FA
  0 C      5.8697     6.0000     0.1303     3.7037     3.7037    -0.0000
  1 C      6.2291     6.0000    -0.2291     3.9023     3.9023    -0.0000
  2 C      6.2159     6.0000    -0.2159     3.9357     3.9357    -0.0000
  3 H      0.8537     1.0000     0.1463     0.9649     0.9649    -0.0000
  4 H      0.8571     1.0000     0.1429     0.9635     0.9635    -0.0000
  5 C      6.2329     6.0000    -0.2329     3.8473     3.8473     0.0000
  6 C      6.2341     6.0000    -0.2341     3.9466     3.9466     0.0000
  7 H      0.8454     1.0000     0.1546     0.9665     0.9665    -0.0000
  8 H      0.8591     1.0000     0.1409     0.9784     0.9784     0.0000
  9 C      5.7470     6.0000     0.2530     3.9741     3.9741     0.0000
 10 O      8.4393     8.0000    -0.4393     2.0540     2.0540    -0.0000
 11 H      0.6340     1.0000     0.3660     0.8789     0.8789    -0.0000
 12 C      6.4143     6.0000    -0.4143     3.8606     3.8606    -0.0000
 13 H      0.8574     1.0000     0.1426     0.9584     0.9584    -0.0000
 14 H      0.8555     1.0000     0.1445     0.9658     0.9658    -0.0000
 15 H      0.8556     1.0000     0.1444     0.9661     0.9661    -0.0000

  Mayer bond orders larger than 0.100000
B(  0-C ,  1-C ) :   1.3696 B(  0-C ,  2-C ) :   1.3634 B(  0-C , 12-C ) :   0.9394 
B(  1-C ,  3-H ) :   0.9660 B(  1-C ,  5-C ) :   1.3893 B(  2-C ,  4-H ) :   0.9807 
B(  2-C ,  6-C ) :   1.4423 B(  5-C ,  7-H ) :   0.9642 B(  5-C ,  9-C ) :   1.3581 
B(  6-C ,  8-H ) :   0.9810 B(  6-C ,  9-C ) :   1.3767 B(  9-C , 10-O ) :   1.1179 
B( 10-O , 11-H ) :   0.8533 B( 12-C , 13-H ) :   0.9513 B( 12-C , 14-H ) :   0.9775 
B( 12-C , 15-H ) :   0.9781 

-------
TIMINGS
-------

Total SCF time: 0 days 0 hours 0 min 21 sec 

Total time                  ....      21.605 sec
Sum of individual times     ....      20.249 sec  ( 93.7%)

Fock matrix formation       ....      18.138 sec  ( 84.0%)
  Split-RI-J                ....       1.964 sec  ( 10.8% of F)
  Chain of spheres X        ....       8.102 sec  ( 44.7% of F)
  XC integration            ....       3.736 sec  ( 20.6% of F)
    Basis function eval.    ....       0.340 sec  (  9.1% of XC)
    Density eval.           ....       0.313 sec  (  8.4% of XC)
    XC-Functional eval.     ....       0.063 sec  (  1.7% of XC)
    XC-Potential eval.      ....       0.353 sec  (  9.4% of XC)
Diagonalization             ....       0.303 sec  (  1.4%)
Density matrix formation    ....       0.027 sec  (  0.1%)
Population analysis         ....       0.074 sec  (  0.3%)
Initial guess               ....       0.265 sec  (  1.2%)
Orbital Transformation      ....       0.000 sec  (  0.0%)
Orbital Orthonormalization  ....       0.000 sec  (  0.0%)
DIIS solution               ....       0.200 sec  (  0.9%)
SOSCF solution              ....       0.173 sec  (  0.8%)
Grid generation             ....       1.068 sec  (  4.9%)

Maximum memory used throughout the entire SCF-calculation: 76.4 MB


-------------------------------------------------------------------------------
                          DFT DISPERSION CORRECTION                            
                                                                               
                              DFTD3 V3.1  Rev 1                                
                          USING Becke-Johnson damping                          
-------------------------------------------------------------------------------
The PBE0 functional is recognized
Active option DFTDOPT                   ...         4   

molecular C6(AA) [au] = 2657.819316 


            DFT-D V3
 parameters
 s6 scaling factor         :     1.0000 
 a1 scaling factor         :     0.4145 
 s8 scaling factor         :     1.2177 
 a2 scaling factor         :     4.8593 
 ad hoc parameters k1-k3   :    16.0000     1.3333    -4.0000 

 Edisp/kcal,au: -8.342243604930  -0.013294209984 
 E6   /kcal   :  -5.226938793 
 E8   /kcal   :  -3.115304812 
 % E8         :  37.343728616 

-------------------------   ----------------
Dispersion correction           -0.013294210
-------------------------   ----------------


-------------------------   --------------------
FINAL SINGLE POINT ENERGY      -346.532364911303
-------------------------   --------------------



           ************************************************************
           *        Program running with 24 parallel MPI-processes    *
           *              working on a common directory               *
           ************************************************************
------------------------------------------------------------------------------
                         ORCA SCF GRADIENT CALCULATION
------------------------------------------------------------------------------

 ... reading COSX grid (gridx3)
Gradient of the Kohn-Sham DFT energy:
Kohn-Sham wavefunction type      ... RKS
Hartree-Fock exchange scaling    ...    0.250
Number of operators              ...    1
Number of atoms                  ...   16
Basis set dimensions             ...  296
Integral neglect threshold       ... 2.5e-11
Integral primitive cutoff        ... 2.5e-12
SHARK Integral package           ... ON

Nuc. rep. gradient       (SHARK) ... done (  0.0 sec)
HCore & Overlap gradient (SHARK) ... done (  0.0 sec)
RI-J gradient            (SHARK) ... done (  0.5 sec)
COSX-gradient                    ... done (  1.7 sec)
Exchange-correlation gradient    ... done
Dispersion correction            ... done

------------------
CARTESIAN GRADIENT
------------------

   1   C   :   -0.000001972   -0.000158016    0.000037134
   2   C   :    0.000030211   -0.000084608    0.000326641
   3   C   :   -0.000012146    0.000289265    0.000024105
   4   H   :   -0.000003402    0.000015368   -0.000051444
   5   H   :   -0.000007602   -0.000050625   -0.000030194
   6   C   :   -0.000000837   -0.000050931   -0.000307862
   7   C   :   -0.000000057    0.000050370    0.000060990
   8   H   :    0.000003620   -0.000034901    0.000130192
   9   H   :   -0.000002026   -0.000096638   -0.000065587
  10   C   :    0.000005641   -0.000035227   -0.000066520
  11   O   :    0.000001570   -0.000036118   -0.000151732
  12   H   :    0.000003356   -0.000020539    0.000101559
  13   C   :    0.000010161    0.000043551    0.000071395
  14   H   :    0.000035371    0.000047768   -0.000036718
  15   H   :   -0.000006885   -0.000005365   -0.000042496
  16   H   :   -0.000023465    0.000051895   -0.000033252

Difference to translation invariance:
           :    0.0000315385   -0.0000747525   -0.0000337886

Difference to rotation invariance:
           :    0.0020078638   -0.0000393318   -0.0000272926

Norm of the cartesian gradient     ...    0.0006529843
RMS gradient                       ...    0.0000942502
MAX gradient                       ...    0.0003266414

-------
TIMINGS
-------

Total SCF gradient time            ...        4.291 sec

One electron gradient       ....       0.043 sec  (  1.0%)
RI-J Coulomb gradient       ....       0.453 sec  ( 10.6%)
COSX gradient               ....       1.744 sec  ( 40.6%)
XC gradient                 ....       0.766 sec  ( 17.9%)
CPCM gradient               ....       0.207 sec  (  4.8%)
   A-Matrix (El+Nuc)        ....       0.074 sec  (  1.7%)
   Potential                ....       0.132 sec  (  3.1%)

Maximum memory used throughout the entire SCFGRAD-calculation: 49.5 MB
------------------------------------------------------------------------------
                         ORCA GEOMETRY RELAXATION STEP
------------------------------------------------------------------------------

Reading the OPT-File                    .... done
Getting information on internals        .... done
Copying old internal coords+grads       .... done
Making the new internal coordinates     .... (new redundants).... done
Validating the new internal coordinates .... (new redundants).... done
Calculating the B-matrix                .... done
Calculating the G,G- and P matrices     .... done
Transforming gradient to internals      .... done
Projecting the internal gradient        .... done
Number of atoms                         ....  16
Number of internal coordinates          ....  73
Current Energy                          ....  -346.532364911 Eh
Current gradient norm                   ....     0.000652984 Eh/bohr
Maximum allowed component of the step   ....  0.200
Current trust radius                    ....  0.300
Evaluating the initial hessian          ....  (Almloef) done
Projecting the Hessian                  .... done
Forming the augmented Hessian           .... done
Diagonalizing the augmented Hessian     .... done
Last element of RFO vector              ....  0.999995877
Lowest eigenvalues of augmented Hessian:
 -0.000000528  0.012918350  0.020917267  0.026589178  0.027015548
Length of the computed step             ....  0.002871688
The final length of the internal step   ....  0.002871688
Converting the step to cartesian space:
 Initial RMS(Int)=    0.0003361057
Transforming coordinates:
 Iter   0:  RMS(Cart)=    0.0005286402 RMS(Int)=    0.0003361033
 Iter   1:  RMS(Cart)=    0.0000002334 RMS(Int)=    0.0000001811
[...]
     36       0.001539  -0.000095  -0.000932   0.011686  -0.002011   0.050939
     37      -0.002573   0.052719   0.018998  -0.006814  -0.063854  -0.001002
     38      -0.042119   0.000669   0.004945  -0.152926   0.006987   0.021985
     39       0.002408   0.000135  -0.019098   0.253051   0.003455   0.137134
     40       0.003915  -0.192264  -0.119810   0.020693   0.654592   0.020078
     41      -0.036508   0.022158  -0.037058   0.556914  -0.039538   0.312460
     42      -0.002602   0.077660   0.054371  -0.211405  -0.346634  -0.463018
     43       0.000250  -0.043660  -0.013344  -0.128532   0.061676   0.400217
     44      -0.044331   0.104642  -0.003152   0.485494   0.234517  -0.260582
     45      -0.003417  -0.077377  -0.025340  -0.201442   0.374801  -0.465219
     46       0.000336  -0.037343  -0.038608   0.172643   0.045568  -0.402669
     47      -0.030343  -0.074089  -0.080769   0.471985  -0.233764  -0.237363
                 36         37         38         39         40         41    
      0      -0.000074  -0.000521  -0.000141  -0.002606   0.000042  -0.000639
      1       0.125210   0.043490  -0.304122   0.075234  -0.000049   0.000057
      2      -0.023693   0.184223   0.073144   0.222065  -0.000876   0.001135
      3       0.001524   0.000106  -0.000668  -0.001576   0.000002   0.000046
      4      -0.019863  -0.126010   0.159447  -0.142808   0.000088  -0.000708
      5       0.091934  -0.088080   0.022386  -0.315948  -0.000775   0.000464
      6      -0.001464  -0.000533  -0.000748  -0.001789   0.000004   0.000070
      7      -0.047273   0.082835   0.204276   0.040139  -0.000143   0.000730
      8      -0.082337  -0.102019  -0.189395  -0.279173  -0.000781   0.000412
      9      -0.001385  -0.000231  -0.002087  -0.001943   0.000451  -0.001048
     10      -0.185403   0.163457   0.040776   0.242406  -0.005331   0.007344
     11      -0.157145   0.413958  -0.187133   0.310707   0.004352  -0.005247
     12       0.001785   0.000099   0.001119  -0.001976   0.000418  -0.001092
     13      -0.143853  -0.165257  -0.066451  -0.218079   0.005678  -0.007659
     14       0.075408   0.403985   0.356826   0.214530   0.003919  -0.004591
     15      -0.000567  -0.001408   0.002037   0.002287  -0.000046   0.000044
     16      -0.030191   0.111449  -0.212065  -0.020091   0.000156  -0.000096
     17      -0.082657  -0.131009   0.139871   0.276716   0.000434   0.000034
     18       0.000906  -0.000692  -0.000392   0.002557  -0.000042   0.000048
     19       0.000630  -0.103327  -0.199603   0.137791  -0.000081   0.000088
     20       0.116994  -0.084894  -0.002579   0.301316   0.000444   0.000028
     21       0.001278   0.004314  -0.002516  -0.004437   0.000157  -0.000153
     22      -0.155507  -0.182096  -0.027563   0.236408  -0.001309  -0.000098
     23       0.133580   0.471313  -0.246966  -0.200560  -0.000152  -0.000299
     24      -0.001449   0.002835   0.000879  -0.004268   0.000157  -0.000163
     25      -0.205234   0.151424  -0.102640  -0.214252   0.000958   0.000159
     26      -0.186219   0.350898   0.199309  -0.256349  -0.000095  -0.000353
     27      -0.000264   0.001589  -0.000645  -0.000854  -0.000028   0.000037
     28       0.105536   0.015153   0.395800  -0.106406  -0.000021   0.000003
     29      -0.012948   0.207445  -0.032072  -0.206138  -0.000346   0.000020
     30       0.000147  -0.000262   0.000150  -0.000063   0.000010  -0.000025
     31      -0.034294  -0.012346  -0.051690   0.018396  -0.000036   0.000004
     32       0.014235  -0.042745   0.019713   0.016462   0.000180  -0.000030
     33      -0.001616  -0.001000  -0.002143   0.001076   0.000011  -0.000036
     34       0.074857   0.037910   0.121119  -0.054487   0.000626  -0.000109
     35      -0.270216  -0.168399  -0.410733   0.182951   0.000090  -0.000003
     36       0.000627  -0.002717   0.000102   0.000757  -0.024460  -0.088134
     37       0.010209  -0.005068   0.023232  -0.006365   0.002384  -0.000600
     38       0.006314  -0.049233  -0.010647  -0.032919   0.048305  -0.015933
     39      -0.011891   0.003795  -0.001863  -0.017030   0.721455   0.587886
     40      -0.512782  -0.031143   0.089053  -0.020381  -0.021435  -0.018574
     41       0.015237  -0.029069  -0.017890  -0.064516  -0.251088  -0.219719
     42       0.299147   0.040964  -0.060849   0.035018  -0.221774   0.247338
     43      -0.038066  -0.036142  -0.012179  -0.015568  -0.371229   0.464218
     44      -0.320720  -0.035790   0.153032  -0.053597  -0.142668   0.184607
     45      -0.296410   0.003143   0.070496   0.009139  -0.208761   0.222543
     46      -0.008621   0.037090  -0.019613   0.020142   0.364793  -0.439075
     47       0.321990   0.029010  -0.167770   0.011652  -0.170164   0.210981
                 42         43         44         45         46         47    
      0       0.000004  -0.000044  -0.000051  -0.000032   0.000017   0.000030
      1      -0.001340  -0.001031   0.001879  -0.002126  -0.001176   0.000042
      2       0.000012  -0.001902  -0.002275  -0.002076   0.001427   0.000061
      3      -0.000262  -0.000647   0.000073  -0.000666   0.000071  -0.000004
      4       0.001346   0.052863  -0.006324   0.051131  -0.005214  -0.000069
      5      -0.000882  -0.030044   0.004831  -0.033793   0.003057  -0.000138
      6       0.000258  -0.000041  -0.000628  -0.000033   0.000268  -0.000002
      7       0.001325  -0.004039  -0.071899  -0.003339   0.027353  -0.000132
      8       0.000740  -0.001270  -0.035925  -0.000762   0.017231  -0.000061
      9       0.001249   0.007708  -0.000856   0.007463  -0.000778   0.000010
     10      -0.012095  -0.608651   0.077122  -0.584239   0.056974  -0.000688
     11       0.009406   0.370951  -0.048247   0.360492  -0.034687   0.000925
     12      -0.001185   0.000485   0.007388   0.000404  -0.002821   0.000010
     13      -0.011907   0.043758   0.827915   0.034990  -0.309504   0.000795
     14      -0.007857   0.021638   0.423443   0.016909  -0.161493   0.000260
     15      -0.000049   0.000165  -0.000002  -0.000099   0.000011   0.000004
     16      -0.000404  -0.053472  -0.000885   0.055756  -0.003932   0.000684
     17       0.000095  -0.025572  -0.000604   0.031064  -0.001595   0.000857
     18       0.000049   0.000004   0.000032  -0.000007  -0.000060   0.000004
     19      -0.000317   0.002696   0.025335   0.007146   0.068994   0.000649
     20      -0.000134  -0.001066  -0.012920  -0.004988  -0.044418   0.000563
     21       0.000117  -0.001669  -0.000013   0.001694  -0.000125   0.000074
     22       0.004402   0.616744   0.009744  -0.632570   0.041971  -0.003894
     23       0.002220   0.316833   0.005039  -0.329843   0.021306  -0.003169
     24      -0.000125   0.000014   0.000099   0.000048   0.000277   0.000029
     25       0.003001  -0.029700  -0.293289  -0.084688  -0.785570   0.000416
     26      -0.001818   0.017738   0.181899   0.054024   0.496426   0.000019
     27      -0.000004  -0.000013  -0.000002   0.000024  -0.000019   0.000001
     28       0.000250   0.001239  -0.000231  -0.002705  -0.002914  -0.002155
     29      -0.000013  -0.002115  -0.000607   0.002617  -0.003125  -0.000529
     30       0.000005  -0.000006  -0.000003  -0.000006   0.000003  -0.000032
     31      -0.000003  -0.000137   0.000036   0.000429   0.000277  -0.058027
     32      -0.000000   0.000103  -0.000061  -0.000409   0.000389  -0.022335
     33      -0.000070   0.000072  -0.000035  -0.000042   0.000004   0.000326
     34       0.000011   0.001285  -0.000846  -0.003207   0.000216   0.935904
     35       0.000038   0.005798   0.000167  -0.005368   0.002527   0.346675
     36      -0.000166  -0.000518  -0.000550  -0.000448   0.000233  -0.000036
     37      -0.092795   0.001189  -0.001501   0.000667   0.000207   0.000010
     38       0.003875  -0.000281  -0.000221  -0.000323   0.000173  -0.000024
     39      -0.008509   0.001291   0.000550  -0.000257   0.000681  -0.000264
     40      -0.020744   0.000253  -0.000412   0.000307   0.000095   0.000034
     41       0.003814   0.000024   0.000556   0.001045  -0.001014   0.000542
     42       0.333131  -0.001532   0.008305   0.001038  -0.002162   0.000190
     43       0.563293  -0.003191   0.013975   0.001267  -0.003416   0.000177
     44       0.232336  -0.000522   0.007825   0.001989  -0.002369   0.000295
     45      -0.322674   0.006775  -0.001948   0.004756  -0.001343   0.000179
     46       0.569551  -0.011727   0.004213  -0.008021   0.002041  -0.000144
     47      -0.282150   0.007654  -0.001082   0.005689  -0.002170   0.000276


-----------
IR SPECTRUM
-----------

 Mode   freq       eps      Int      T**2         TX        TY        TZ
       cm**-1   L/(mol*cm) km/mol    a.u.
----------------------------------------------------------------------------
  7:    144.45   0.000416    2.10  0.000900  ( 0.029956 -0.000031  0.001539)
  8:    305.63   0.000750    3.79  0.000766  ( 0.001436  0.014938 -0.023252)
  9:    334.73   0.000329    1.66  0.000306  ( 0.017482 -0.000080  0.000800)
 10:    354.38   0.035465  179.22  0.031230  ( 0.176719  0.000027 -0.000420)
 11:    423.57   0.000295    1.49  0.000217  (-0.004830 -0.001182 -0.013882)
 12:    431.09   0.002232   11.28  0.001616  ( 0.003143 -0.007600 -0.039346)
 13:    468.16   0.000480    2.43  0.000320  ( 0.000327 -0.001404  0.017828)
 14:    520.56   0.007428   37.54  0.004453  (-0.066686 -0.000072  0.002396)
 15:    654.78   0.000116    0.59  0.000055  (-0.000289 -0.000786  0.007397)
 16:    725.80   0.000458    2.31  0.000197  (-0.012596 -0.000290 -0.006170)
 17:    756.15   0.005027   25.40  0.002075  ( 0.001897  0.000498  0.045506)
 18:    829.39   0.003195   16.14  0.001202  ( 0.034628  0.001648 -0.000410)
 19:    840.94   0.015170   76.66  0.005629  ( 0.075022 -0.000525 -0.000865)
 20:    863.57   0.003323   16.79  0.001201  ( 0.003447  0.002214  0.034409)
 21:    947.83   0.000245    1.24  0.000081  (-0.007409  0.000195  0.005062)
 22:    970.33   0.000024    0.12  0.000008  (-0.002551  0.000851  0.000735)
 23:   1001.37   0.000345    1.74  0.000108  ( 0.000283 -0.006473  0.008097)
 24:   1034.50   0.000287    1.45  0.000087  ( 0.002811  0.002383  0.008544)
 25:   1057.06   0.003779   19.10  0.001116  (-0.021892  0.001484  0.025184)
 26:   1125.38   0.005612   28.36  0.001556  ( 0.000065  0.037767  0.011398)
 27:   1187.27   0.005178   26.17  0.001361  (-0.000193 -0.005142 -0.036532)
 28:   1196.23   0.048969  247.47  0.012775  ( 0.000860 -0.009936  0.112584)
 29:   1246.46   0.001111    5.62  0.000278  (-0.002736  0.002580  0.016252)
 30:   1298.62   0.031955  161.49  0.007679  (-0.001141 -0.008352 -0.087223)
 31:   1337.53   0.001203    6.08  0.000281  ( 0.000114  0.011167 -0.012487)
 32:   1376.17   0.006325   31.96  0.001434  ( 0.000038  0.014155  0.035127)
 33:   1396.63   0.000039    0.20  0.000009  (-0.001632  0.000668  0.002352)
 34:   1451.12   0.003867   19.54  0.000832  ( 0.000764  0.021744 -0.018925)
 35:   1461.71   0.002331   11.78  0.000498  (-0.022193  0.001009  0.002029)
 36:   1487.49   0.005491   27.75  0.001152  (-0.000230 -0.017279 -0.029212)
 37:   1555.59   0.044571  225.24  0.008941  (-0.000158  0.002384  0.094528)
 38:   1654.85   0.004478   22.63  0.000844  (-0.000334  0.020459 -0.020634)
 39:   1678.04   0.010335   52.23  0.001922  (-0.000949 -0.007528 -0.043179)
 40:   3041.41   0.008808   44.51  0.000904  (-0.006072  0.001378  0.029411)
 41:   3104.44   0.004462   22.55  0.000449  (-0.019913 -0.000319 -0.007204)
 42:   3134.21   0.004496   22.72  0.000448  (-0.000043 -0.021142  0.000818)
 43:   3176.67   0.003335   16.86  0.000328  (-0.000182  0.004075 -0.017635)
 44:   3181.02   0.003032   15.32  0.000297  (-0.000120 -0.012612 -0.011762)
 45:   3191.99   0.002067   10.44  0.000202  (-0.000107  0.014208  0.000414)
 46:   3204.32   0.001472    7.44  0.000143  ( 0.000017  0.010005 -0.006579)
 47:   3823.65   0.034843  176.08  0.002844  ( 0.000081  0.036853  0.038543)

* The epsilon (eps) is given for a Dirac delta lineshape.
** The dipole moment derivative (T) already includes vibrational overlap.

The first frequency considered to be a vibration is 7
The total number of vibrations considered is 41


--------------------------
THERMOCHEMISTRY AT 298.15K
--------------------------

Temperature         ... 298.15 K
Pressure            ... 1.00 atm
Total Mass          ... 108.14 AMU

Throughout the following assumptions are being made:
  (1) The electronic state is orbitally nondegenerate
  (2) There are no thermally accessible electronically excited states
  (3) Hindered rotations indicated by low frequency modes are not
      treated as such but are treated as vibrations and this may
      cause some error
  (4) All equations used are the standard statistical mechanics
      equations for an ideal gas
  (5) All vibrations are strictly harmonic

freq.     144.45  E(vib)   ...       0.41 
freq.     305.63  E(vib)   ...       0.26 
freq.     334.73  E(vib)   ...       0.24 
freq.     354.38  E(vib)   ...       0.22 
freq.     423.57  E(vib)   ...       0.18 
freq.     431.09  E(vib)   ...       0.18 
freq.     468.16  E(vib)   ...       0.16 
freq.     520.56  E(vib)   ...       0.13 
freq.     654.78  E(vib)   ...       0.08 
freq.     725.80  E(vib)   ...       0.06 
freq.     756.15  E(vib)   ...       0.06 
freq.     829.39  E(vib)   ...       0.04 
freq.     840.94  E(vib)   ...       0.04 
freq.     863.57  E(vib)   ...       0.04 
freq.     947.83  E(vib)   ...       0.03 
freq.     970.33  E(vib)   ...       0.03 
freq.    1001.37  E(vib)   ...       0.02 
freq.    1034.50  E(vib)   ...       0.02 
freq.    1057.06  E(vib)   ...       0.02 
freq.    1125.38  E(vib)   ...       0.01 
freq.    1187.27  E(vib)   ...       0.01 
freq.    1196.23  E(vib)   ...       0.01 
freq.    1246.46  E(vib)   ...       0.01 
freq.    1298.62  E(vib)   ...       0.01 
freq.    1337.53  E(vib)   ...       0.01 
freq.    1376.17  E(vib)   ...       0.01 
freq.    1396.63  E(vib)   ...       0.00 
freq.    1451.12  E(vib)   ...       0.00 
freq.    1461.71  E(vib)   ...       0.00 
freq.    1487.49  E(vib)   ...       0.00 
freq.    1555.59  E(vib)   ...       0.00 
freq.    1654.85  E(vib)   ...       0.00 
freq.    1678.04  E(vib)   ...       0.00 
freq.    3041.41  E(vib)   ...       0.00 
freq.    3104.44  E(vib)   ...       0.00 
freq.    3134.21  E(vib)   ...       0.00 
freq.    3176.67  E(vib)   ...       0.00 
freq.    3181.02  E(vib)   ...       0.00 
freq.    3191.99  E(vib)   ...       0.00 
freq.    3204.32  E(vib)   ...       0.00 
freq.    3823.65  E(vib)   ...       0.00 

------------
INNER ENERGY
------------

The inner energy is: U= E(el) + E(ZPE) + E(vib) + E(rot) + E(trans)
    E(el)   - is the total energy from the electronic structure calculation
              = E(kin-el) + E(nuc-el) + E(el-el) + E(nuc-nuc)
    E(ZPE)  - the the zero temperature vibrational energy from the frequency calculation
    E(vib)  - the the finite temperature correction to E(ZPE) due to population
              of excited vibrational states
    E(rot)  - is the rotational thermal energy
    E(trans)- is the translational thermal energy

Summary of contributions to the inner energy U:
Electronic energy                ...   -346.53236561 Eh
Zero point energy                ...      0.13207694 Eh      82.88 kcal/mol
Thermal vibrational correction   ...      0.00367173 Eh       2.30 kcal/mol
Thermal rotational correction    ...      0.00141627 Eh       0.89 kcal/mol
Thermal translational correction ...      0.00141627 Eh       0.89 kcal/mol
-----------------------------------------------------------------------
Total thermal energy                   -346.39378440 Eh


Summary of corrections to the electronic energy:
(perhaps to be used in another calculation)
Total thermal correction                  0.00650427 Eh       4.08 kcal/mol
Non-thermal (ZPE) correction              0.13207694 Eh      82.88 kcal/mol
-----------------------------------------------------------------------
Total correction                          0.13858121 Eh      86.96 kcal/mol


--------
ENTHALPY
--------

The enthalpy is H = U + kB*T
                kB is Boltzmann's constant
Total free energy                 ...   -346.39378440 Eh 
Thermal Enthalpy correction       ...      0.00094421 Eh       0.59 kcal/mol
-----------------------------------------------------------------------
Total Enthalpy                    ...   -346.39284019 Eh


Note: Only C1 symmetry has been detected, increase convergence thresholds 
      if your molecule has a higher symmetry. Symmetry factor of 1.0 is   
      used for the rotational entropy correction. 
 

Note: Rotational entropy computed according to Herzberg 
Infrared and Raman Spectra, Chapter V,1, Van Nostrand Reinhold, 1945 
Point Group:  C1, Symmetry Number:   1  
Rotational constants in cm-1:     0.185134     0.048985     0.039017 

Vibrational entropy computed according to the QRRHO of S. Grimme
Chem.Eur.J. 2012 18 9955


-------
ENTROPY
-------

The entropy contributions are T*S = T*(S(el)+S(vib)+S(rot)+S(trans))
     S(el)   - electronic entropy
     S(vib)  - vibrational entropy
     S(rot)  - rotational entropy
     S(trans)- translational entropy
The entropies will be listed as multiplied by the temperature to get
units of energy

Electronic entropy                ...      0.00000000 Eh      0.00 kcal/mol
Vibrational entropy               ...      0.00559514 Eh      3.51 kcal/mol
Rotational entropy                ...      0.01326235 Eh      8.32 kcal/mol
Translational entropy             ...      0.01898207 Eh     11.91 kcal/mol
-----------------------------------------------------------------------
Final entropy term                ...      0.03783957 Eh     23.74 kcal/mol

In case the symmetry of your molecule has not been determined correctly
or in case you have a reason to use a different symmetry number we print 
out the resulting rotational entropy values for sn=1,12 :
 --------------------------------------------------------
|  sn= 1 | S(rot)=       0.01326235 Eh      8.32 kcal/mol|
|  sn= 2 | S(rot)=       0.01260790 Eh      7.91 kcal/mol|
|  sn= 3 | S(rot)=       0.01222507 Eh      7.67 kcal/mol|
|  sn= 4 | S(rot)=       0.01195344 Eh      7.50 kcal/mol|
|  sn= 5 | S(rot)=       0.01174275 Eh      7.37 kcal/mol|
|  sn= 6 | S(rot)=       0.01157061 Eh      7.26 kcal/mol|
|  sn= 7 | S(rot)=       0.01142506 Eh      7.17 kcal/mol|
|  sn= 8 | S(rot)=       0.01129898 Eh      7.09 kcal/mol|
|  sn= 9 | S(rot)=       0.01118778 Eh      7.02 kcal/mol|
|  sn=10 | S(rot)=       0.01108830 Eh      6.96 kcal/mol|
|  sn=11 | S(rot)=       0.01099831 Eh      6.90 kcal/mol|
|  sn=12 | S(rot)=       0.01091615 Eh      6.85 kcal/mol|
 --------------------------------------------------------


-------------------
GIBBS FREE ENERGY
-------------------

The Gibbs free energy is G = H - T*S

Total enthalpy                    ...   -346.39284019 Eh 
Total entropy correction          ...     -0.03783957 Eh    -23.74 kcal/mol
-----------------------------------------------------------------------
Final Gibbs free energy         ...   -346.43067976 Eh

For completeness - the Gibbs free energy minus the electronic energy
G-E(el)                           ...      0.10168585 Eh     63.81 kcal/mol


Timings for individual modules:

Sum of individual times         ...      210.630 sec (=   3.511 min)
GTO integral calculation        ...        4.342 sec (=   0.072 min)   2.1 %
SCF iterations                  ...       46.300 sec (=   0.772 min)  22.0 %
SCF Gradient evaluation         ...        9.975 sec (=   0.166 min)   4.7 %
Geometry relaxation             ...        0.200 sec (=   0.003 min)   0.1 %
Analytical frequency calculation...      149.813 sec (=   2.497 min)  71.1 %
                             ****ORCA TERMINATED NORMALLY****
TOTAL RUN TIME: 0 days 0 hours 3 minutes 37 seconds 311 msec
