
                                 *****************
                                 * O   R   C   A *
                                 *****************

                                            #,                                       
                                            ###                                      
                                            ####                                     
                                            #####                                    
                                            ######                                   
                                           ########,                                 
                                     ,,################,,,,,                         
                               ,,#################################,,                 
                          ,,##########################################,,             
                       ,#########################################, ''#####,          
                    ,#############################################,,   '####,        
                  ,##################################################,,,,####,       
                ,###########''''           ''''###############################       
              ,#####''   ,,,,##########,,,,          '''####'''          '####       
            ,##' ,,,,###########################,,,                        '##       
           ' ,,###''''                  '''############,,,                           
         ,,##''                                '''############,,,,        ,,,,,,###''
      ,#''                                            '''#######################'''  
     '                                                          ''''####''''         
             ,#######,   #######,   ,#######,      ##                                
            ,#'     '#,  ##    ##  ,#'     '#,    #''#        ######   ,####,        
            ##       ##  ##   ,#'  ##            #'  '#       #        #'  '#        
            ##       ##  #######   ##           ,######,      #####,   #    #        
            '#,     ,#'  ##    ##  '#,     ,#' ,#      #,         ##   #,  ,#        
             '#######'   ##     ##  '#######'  #'      '#     #####' # '####'        



                  #######################################################
                  #                        -***-                        #
                  #          Department of theory and spectroscopy      #
                  #    Directorship and core code : Frank Neese         #
                  #        Max Planck Institute fuer Kohlenforschung    #
                  #                Kaiser Wilhelm Platz 1               #
                  #                 D-45470 Muelheim/Ruhr               #
                  #                      Germany                        #
                  #                                                     #
                  #                  All rights reserved                #
                  #                        -***-                        #
                  #######################################################


                         Program Version 5.0.4 -  RELEASE  -


 With contributions from (in alphabetic order):
   Daniel Aravena         : Magnetic Suceptibility
   Michael Atanasov       : Ab Initio Ligand Field Theory (pilot matlab implementation)
   Alexander A. Auer      : GIAO ZORA, VPT2 properties, NMR spectrum
   Ute Becker             : Parallelization
   Giovanni Bistoni       : ED, misc. LED, open-shell LED, HFLD
   Martin Brehm           : Molecular dynamics
   Dmytro Bykov           : SCF Hessian
   Vijay G. Chilkuri      : MRCI spin determinant printing, contributions to CSF-ICE
   Dipayan Datta          : RHF DLPNO-CCSD density
   Achintya Kumar Dutta   : EOM-CC, STEOM-CC
   Dmitry Ganyushin       : Spin-Orbit,Spin-Spin,Magnetic field MRCI
   Miquel Garcia          : C-PCM and meta-GGA Hessian, CC/C-PCM, Gaussian charge scheme
   Yang Guo               : DLPNO-NEVPT2, F12-NEVPT2, CIM, IAO-localization
   Andreas Hansen         : Spin unrestricted coupled pair/coupled cluster methods
   Benjamin Helmich-Paris : MC-RPA, TRAH-SCF, COSX integrals
   Lee Huntington         : MR-EOM, pCC
   Robert Izsak           : Overlap fitted RIJCOSX, COSX-SCS-MP3, EOM
   Marcus Kettner         : VPT2
   Christian Kollmar      : KDIIS, OOCD, Brueckner-CCSD(T), CCSD density, CASPT2, CASPT2-K
   Simone Kossmann        : Meta GGA functionals, TD-DFT gradient, OOMP2, MP2 Hessian
   Martin Krupicka        : Initial AUTO-CI
   Lucas Lang             : DCDCAS
   Marvin Lechner         : AUTO-CI (C++ implementation), FIC-MRCC
   Dagmar Lenk            : GEPOL surface, SMD
   Dimitrios Liakos       : Extrapolation schemes; Compound Job, initial MDCI parallelization
   Dimitrios Manganas     : Further ROCIS development; embedding schemes
   Dimitrios Pantazis     : SARC Basis sets
   Anastasios Papadopoulos: AUTO-CI, single reference methods and gradients
   Taras Petrenko         : DFT Hessian,TD-DFT gradient, ASA, ECA, R-Raman, ABS, FL, XAS/XES, NRVS
   Peter Pinski           : DLPNO-MP2, DLPNO-MP2 Gradient
   Christoph Reimann      : Effective Core Potentials
   Marius Retegan         : Local ZFS, SOC
   Christoph Riplinger    : Optimizer, TS searches, QM/MM, DLPNO-CCSD(T), (RO)-DLPNO pert. Triples
   Tobias Risthaus        : Range-separated hybrids, TD-DFT gradient, RPA, STAB
   Michael Roemelt        : Original ROCIS implementation
   Masaaki Saitow         : Open-shell DLPNO-CCSD energy and density
   Barbara Sandhoefer     : DKH picture change effects
   Avijit Sen             : IP-ROCIS
   Kantharuban Sivalingam : CASSCF convergence, NEVPT2, FIC-MRCI
   Bernardo de Souza      : ESD, SOC TD-DFT
   Georgi Stoychev        : AutoAux, RI-MP2 NMR, DLPNO-MP2 response
   Willem Van den Heuvel  : Paramagnetic NMR
   Boris Wezisla          : Elementary symmetry handling
   Frank Wennmohs         : Technical directorship


 We gratefully acknowledge several colleagues who have allowed us to
 interface, adapt or use parts of their codes:
   Stefan Grimme, W. Hujo, H. Kruse, P. Pracht,  : VdW corrections, initial TS optimization,
                  C. Bannwarth, S. Ehlert          DFT functionals, gCP, sTDA/sTD-DF
   Ed Valeev, F. Pavosevic, A. Kumar             : LibInt (2-el integral package), F12 methods
   Garnet Chan, S. Sharma, J. Yang, R. Olivares  : DMRG
   Ulf Ekstrom                                   : XCFun DFT Library
   Mihaly Kallay                                 : mrcc  (arbitrary order and MRCC methods)
   Jiri Pittner, Ondrej Demel                    : Mk-CCSD
   Frank Weinhold                                : gennbo (NPA and NBO analysis)
   Christopher J. Cramer and Donald G. Truhlar   : smd solvation model
   Lars Goerigk                                  : TD-DFT with DH, B97 family of functionals
   V. Asgeirsson, H. Jonsson                     : NEB implementation
   FAccTs GmbH                                   : IRC, NEB, NEB-TS, DLPNO-Multilevel, CI-OPT
                                                   MM, QMMM, 2- and 3-layer-ONIOM, Crystal-QMMM,
                                                   LR-CPCM, SF, NACMEs, symmetry and pop. for TD-DFT,
                                                   nearIR, NL-DFT gradient (VV10), updates on ESD,
                                                   ML-optimized integration grids
   S Lehtola, MJT Oliveira, MAL Marques          : LibXC Library
   Liviu Ungur et al                             : ANISO software


 Your calculation uses the libint2 library for the computation of 2-el integrals
 For citations please refer to: http://libint.valeyev.net

 Your ORCA version has been built with support for libXC version: 5.1.0
 For citations please refer to: https://tddft.org/programs/libxc/

 This ORCA versions uses:
   CBLAS   interface :  Fast vector & matrix operations
   LAPACKE interface :  Fast linear algebra routines
   SCALAPACK package :  Parallel linear algebra routines
   Shared memory     :  Shared parallel matrices
   BLAS/LAPACK       :  OpenBLAS 0.3.15  USE64BITINT DYNAMIC_ARCH NO_AFFINITY Haswell SINGLE_THREADED
        Core in use  :  Haswell
   Copyright (c) 2011-2014, The OpenBLAS Project


Your calculation utilizes the atom-pairwise dispersion correction
with the Becke-Johnson damping scheme (D3BJ)
Cite in your paper:
S.Grimme, S.Ehrlich, L.Goerigk, J Comput Chem, (2011), 32, 1456–1465 
S.Grimme, J.Antony, S.Ehrlich and H.Krieg, J.Chem.Phys., 132, (2010), 154104 
   

================================================================================

----- Orbital basis set information -----
Your calculation utilizes the basis: def2-TZVP
   F. Weigend and R. Ahlrichs, Phys. Chem. Chem. Phys. 7, 3297 (2005).

----- AuxJ basis set information -----
Your calculation utilizes the auxiliary basis: def2/J
   F. Weigend, Phys. Chem. Chem. Phys. 8, 1057 (2006).

================================================================================
                                        WARNINGS
                       Please study these warnings very carefully!
================================================================================


WARNING: Geometry Optimization
  ===> : Switching off AutoStart
         For restart on a previous wavefunction, please use MOREAD

INFO   : the flag for use of the SHARK integral package has been found!

================================================================================
                                       INPUT FILE
================================================================================
NAME = N3-PhenO/N3-PhenO.inp
|  1> %pal nprocs 24 end
|  2> %maxcore 3500
|  3> ! PBE0 D3BJ def2-TZVP TightSCF OPT FREQ TightOpt
|  4> ! CPCM(dmso)
|  5> %scf
|  6> MaxIter 800
|  7> end
|  8> %geom
|  9> MaxIter 800
| 10> MaxStep 0.2
| 11> end
| 12> *xyz -1 1
| 13> 
| 14> C       0.00382600     -0.86400100     -1.69811200
| 15> C      -0.00268900      0.44127800     -1.20925100
| 16> C       0.00647400     -1.92128700     -0.79181000
| 17> H      -0.00443400      1.28095800     -1.89922700
| 18> H       0.01192000     -2.93824600     -1.17271100
| 19> C      -0.00694400      0.68175800      0.15099700
| 20> C       0.00231700     -1.68514100      0.56844700
| 21> H      -0.01209000      1.70661400      0.51148700
| 22> H       0.00438600     -2.52453000      1.25810700
| 23> C      -0.00468000     -0.36724200      1.12247700
| 24> O      -0.00869900     -0.14368200      2.37938100
| 25> N       0.00888300     -1.19104800     -3.08122800
| 26> N       0.00379600     -0.29677600     -3.90118900
| 27> N      -0.00206500      0.46323400     -4.73992400
| 28> *
| 29> 
| 30>                          ****END OF INPUT****
================================================================================

                       *****************************
                       * Geometry Optimization Run *
                       *****************************

Geometry optimization settings:
Update method            Update   .... BFGS
Choice of coordinates    CoordSys .... Z-matrix Internals
Initial Hessian          InHess   .... Almoef's Model

Convergence Tolerances:
Energy Change            TolE     ....  1.0000e-06 Eh
Max. Gradient            TolMAXG  ....  1.0000e-04 Eh/bohr
RMS Gradient             TolRMSG  ....  3.0000e-05 Eh/bohr
Max. Displacement        TolMAXD  ....  1.0000e-03 bohr
RMS Displacement         TolRMSD  ....  6.0000e-04 bohr
Strict Convergence                ....  False
------------------------------------------------------------------------------
                        ORCA OPTIMIZATION COORDINATE SETUP
------------------------------------------------------------------------------

The optimization will be done in new redundant internal coordinates
Making redundant internal coordinates   ...  (new redundants) done
Evaluating the initial hessian          ...  (Almloef) done
Evaluating the coordinates              ...  done
Calculating the B-matrix                .... done
Calculating the G-matrix                .... done
Diagonalizing the G-matrix              .... done
Small eigenvalue found = 2.885e-02
The first mode is                       ....   25
The number of degrees of freedom        ....   36

    -----------------------------------------------------------------
                    Redundant Internal Coordinates


    -----------------------------------------------------------------
         Definition                    Initial Value    Approx d2E/dq
    -----------------------------------------------------------------
      1. B(C   1,C   0)                  1.3938         0.616052   
      2. B(C   2,C   0)                  1.3926         0.618931   
      3. B(H   3,C   1)                  1.0868         0.364359   
      4. B(H   4,C   2)                  1.0860         0.365477   
      5. B(C   5,C   1)                  1.3813         0.644973   
      6. B(C   6,C   2)                  1.3806         0.646727   
      7. B(H   7,C   5)                  1.0864         0.364867   
      8. B(H   8,C   6)                  1.0864         0.364928   
      9. B(C   9,C   6)                  1.4296         0.540137   
     10. B(C   9,C   5)                  1.4297         0.539912   
     11. B(O  10,C   9)                  1.2766         0.848669   
     12. B(N  11,C   0)                  1.4213         0.498877   
     13. B(N  12,N  11)                  1.2133         0.959255   
     14. B(N  13,N  12)                  1.1319         1.293734   
     15. A(C   2,C   0,N  11)          117.2988         0.414670   
     16. A(C   1,C   0,C   2)          118.8649         0.433433   
     17. A(C   1,C   0,N  11)          123.8363         0.414327   
     18. A(C   0,C   1,H   3)          120.0575         0.353230   
     19. A(H   3,C   1,C   5)          119.3841         0.355988   
     20. A(C   0,C   1,C   5)          120.5585         0.436661   
     21. A(H   4,C   2,C   6)          120.3824         0.356337   
     22. A(C   0,C   2,C   6)          120.7539         0.437242   
     23. A(C   0,C   2,H   4)          118.8637         0.353692   
     24. A(H   7,C   5,C   9)          117.8181         0.345538   
     25. A(C   1,C   5,C   9)          122.7765         0.426433   
     26. A(C   1,C   5,H   7)          119.4054         0.356072   
     27. A(H   8,C   6,C   9)          117.7916         0.345572   
     28. A(C   2,C   6,C   9)          122.6504         0.426673   
     29. A(C   2,C   6,H   8)          119.5581         0.356246   
     30. A(C   5,C   9,O  10)          122.7168         0.445105   
     31. A(C   5,C   9,C   6)          114.3960         0.413154   
     32. A(C   6,C   9,O  10)          122.8872         0.445139   
     33. A(C   0,N  11,N  12)          119.2127         0.442671   
     34. A(N  11,N  12,N  13)          174.6985         0.524120   
     35. D(C   5,C   1,C   0,C   2)     -0.0236         0.026242   
     36. D(C   5,C   1,C   0,N  11)   -179.9809         0.026242   
     37. D(H   3,C   1,C   0,C   2)    179.9745         0.026242   
     38. D(H   3,C   1,C   0,N  11)      0.0172         0.026242   
     39. D(H   4,C   2,C   0,N  11)     -0.0176         0.026502   
     40. D(C   6,C   2,C   0,C   1)      0.0198         0.026502   
     41. D(H   4,C   2,C   0,C   1)   -179.9777         0.026502   
     42. D(C   6,C   2,C   0,N  11)    179.9799         0.026502   
     43. D(C   9,C   5,C   1,H   3)   -179.9834         0.028933   
     44. D(C   9,C   5,C   1,C   0)      0.0147         0.028933   
     45. D(H   7,C   5,C   1,H   3)      0.0071         0.028933   
     46. D(H   7,C   5,C   1,C   0)   -179.9947         0.028933   
     47. D(C   9,C   6,C   2,C   0)     -0.0069         0.029101   
     48. D(H   8,C   6,C   2,H   4)     -0.0086         0.029101   
     49. D(H   8,C   6,C   2,C   0)    179.9939         0.029101   
     50. D(C   9,C   6,C   2,H   4)    179.9906         0.029101   
     51. D(O  10,C   9,C   6,H   8)     -0.0090         0.019935   
     52. D(C   5,C   9,C   6,H   8)    179.9969         0.019935   
     53. D(C   5,C   9,C   6,C   2)     -0.0023         0.019935   
     54. D(O  10,C   9,C   5,H   7)      0.0137         0.019918   
     55. D(O  10,C   9,C   5,C   1)   -179.9957         0.019918   
     56. D(O  10,C   9,C   6,C   2)    179.9917         0.019935   
     57. D(C   6,C   9,C   5,H   7)   -179.9922         0.019918   
     58. D(C   6,C   9,C   5,C   1)     -0.0016         0.019918   
     59. D(N  12,N  11,C   0,C   2)    179.8386         0.017879   
     60. D(N  12,N  11,C   0,C   1)     -0.2035         0.017879   
     61. D(N  13,N  12,N  11,C   0)   -179.0099         0.078240   
    -----------------------------------------------------------------

Number of atoms                         .... 14
Number of degrees of freedom            .... 61

         *************************************************************
         *                GEOMETRY OPTIMIZATION CYCLE   1            *
         *************************************************************
---------------------------------
CARTESIAN COORDINATES (ANGSTROEM)
---------------------------------
  C      0.003826   -0.864001   -1.698112
  C     -0.002689    0.441278   -1.209251
  C      0.006474   -1.921287   -0.791810
  H     -0.004434    1.280958   -1.899227
  H      0.011920   -2.938246   -1.172711
  C     -0.006944    0.681758    0.150997
  C      0.002317   -1.685141    0.568447
  H     -0.012090    1.706614    0.511487
  H      0.004386   -2.524530    1.258107
  C     -0.004680   -0.367242    1.122477
  O     -0.008699   -0.143682    2.379381
  N      0.008883   -1.191048   -3.081228
  N      0.003796   -0.296776   -3.901189
  N     -0.002065    0.463234   -4.739924

----------------------------
CARTESIAN COORDINATES (A.U.)
----------------------------
  NO LB      ZA    FRAG     MASS         X           Y           Z
   0 C     6.0000    0    12.011    0.007230   -1.632725   -3.208967
   1 C     6.0000    0    12.011   -0.005081    0.833895   -2.285153
   2 C     6.0000    0    12.011    0.012234   -3.630706   -1.496304
   3 H     1.0000    0     1.008   -0.008379    2.420660   -3.589019
   4 H     1.0000    0     1.008    0.022526   -5.552480   -2.216103
   5 C     6.0000    0    12.011   -0.013122    1.288336    0.285343
   6 C     6.0000    0    12.011    0.004378   -3.184455    1.074209
   7 H     1.0000    0     1.008   -0.022847    3.225033    0.966570
   8 H     1.0000    0     1.008    0.008288   -4.770670    2.377478
   9 C     6.0000    0    12.011   -0.008844   -0.693987    2.121174
  10 O     8.0000    0    15.999   -0.016439   -0.271520    4.496378
  11 N     7.0000    0    14.007    0.016786   -2.250755   -5.822677
  12 N     7.0000    0    14.007    0.007173   -0.560825   -7.372179
  13 N     7.0000    0    14.007   -0.003902    0.875385   -8.957158

--------------------------------
INTERNAL COORDINATES (ANGSTROEM)
--------------------------------
 C      0   0   0     0.000000000000     0.00000000     0.00000000
 C      1   0   0     1.393836715827     0.00000000     0.00000000
 C      1   2   0     1.392567417723   118.86487403     0.00000000
 H      2   1   3     1.086799166360   120.05746610   179.97453020
 H      3   1   2     1.085965394660   118.86371042   180.02229233
 C      2   1   3     1.381348383620   120.55846132   359.97638296
 C      3   1   2     1.380609039523   120.75385619     0.00000000
 H      6   2   1     1.086420426056   119.40541152   180.00525523
 H      7   3   1     1.086374286184   119.55805780   179.99385171
 C      7   3   1     1.429634909027   122.65035350     0.00000000
 O     10   7   3     1.276637337374   122.88724039   179.99173763
 N      1   2   3     1.421265345709   123.83633753   180.04268535
 N     12   1   2     1.213294823641   119.21273323   359.79652421
 N     13  12   1     1.131868345545   174.69850585   180.99012732

---------------------------
INTERNAL COORDINATES (A.U.)
---------------------------
 C      0   0   0     0.000000000000     0.00000000     0.00000000
 C      1   0   0     2.633969668317     0.00000000     0.00000000
 C      1   2   0     2.631571042519   118.86487403     0.00000000
 H      2   1   3     2.053752786995   120.05746610   179.97453020
 H      3   1   2     2.052177186822   118.86371042   180.02229233
 C      2   1   3     2.610370140576   120.55846132   359.97638296
 C      3   1   2     2.608972982715   120.75385619     0.00000000
 H      6   2   1     2.053037071544   119.40541152   180.00525523
 H      7   3   1     2.052949879822   119.55805780   179.99385171
 C      7   3   1     2.701618449555   122.65035350     0.00000000
 O     10   7   3     2.412494939975   122.88724039   179.99173763
 N      1   2   3     2.685802267023   123.83633753   180.04268535
 N     12   1   2     2.292794936386   119.21273323   359.79652421
 N     13  12   1     2.138921192734   174.69850585   180.99012732

---------------------
BASIS SET INFORMATION
---------------------
There are 4 groups of distinct atoms

 Group   1 Type C   : 11s6p2d1f contracted to 5s3p2d1f pattern {62111/411/11/1}
 Group   2 Type H   : 5s1p contracted to 3s1p pattern {311/1}
 Group   3 Type O   : 11s6p2d1f contracted to 5s3p2d1f pattern {62111/411/11/1}
 Group   4 Type N   : 11s6p2d1f contracted to 5s3p2d1f pattern {62111/411/11/1}

Atom   0C    basis set group =>   1
Atom   1C    basis set group =>   1
Atom   2C    basis set group =>   1
Atom   3H    basis set group =>   2
Atom   4H    basis set group =>   2
Atom   5C    basis set group =>   1
Atom   6C    basis set group =>   1
Atom   7H    basis set group =>   2
Atom   8H    basis set group =>   2
Atom   9C    basis set group =>   1
Atom  10O    basis set group =>   3
Atom  11N    basis set group =>   4
Atom  12N    basis set group =>   4
Atom  13N    basis set group =>   4
---------------------------------
AUXILIARY/J BASIS SET INFORMATION
---------------------------------
There are 4 groups of distinct atoms

 Group   1 Type C   : 12s5p4d2f1g contracted to 6s4p3d1f1g pattern {711111/2111/211/2/1}
 Group   2 Type H   : 5s2p1d contracted to 3s1p1d pattern {311/2/1}
 Group   3 Type O   : 12s5p4d2f1g contracted to 6s4p3d1f1g pattern {711111/2111/211/2/1}
 Group   4 Type N   : 12s5p4d2f1g contracted to 6s4p3d1f1g pattern {711111/2111/211/2/1}

Atom   0C    basis set group =>   1
Atom   1C    basis set group =>   1
Atom   2C    basis set group =>   1
Atom   3H    basis set group =>   2
Atom   4H    basis set group =>   2
Atom   5C    basis set group =>   1
Atom   6C    basis set group =>   1
Atom   7H    basis set group =>   2
Atom   8H    basis set group =>   2
Atom   9C    basis set group =>   1
Atom  10O    basis set group =>   3
Atom  11N    basis set group =>   4
Atom  12N    basis set group =>   4
Atom  13N    basis set group =>   4


           ************************************************************
           *        Program running with 24 parallel MPI-processes    *
           *              working on a common directory               *
           ************************************************************
------------------------------------------------------------------------------
                           ORCA GTO INTEGRAL CALCULATION
                           -- RI-GTO INTEGRALS CHOSEN --
------------------------------------------------------------------------------
------------------------------------------------------------------------------
                   ___                                                        
                  /   \      - P O W E R E D   B Y -                         
                 /     \                                                     
                 |  |  |   _    _      __       _____    __    __             
                 |  |  |  | |  | |    /  \     |  _  \  |  |  /  |          
                  \  \/   | |  | |   /    \    | | | |  |  | /  /          
                 / \  \   | |__| |  /  /\  \   | |_| |  |  |/  /          
                |  |  |   |  __  | /  /__\  \  |    /   |      \           
                |  |  |   | |  | | |   __   |  |    \   |  |\   \          
                \     /   | |  | | |  |  |  |  | |\  \  |  | \   \       
                 \___/    |_|  |_| |__|  |__|  |_| \__\ |__|  \__/        
                                                                              
                      - O R C A' S   B I G   F R I E N D -                    
                                      &                                       
                       - I N T E G R A L  F E E D E R -                       
                                                                              
 v1 FN, 2020, v2 2021                                                         
------------------------------------------------------------------------------


Reading SHARK input file N3-PhenO/N3-PhenO.SHARKINP.tmp ... ok
----------------------
SHARK INTEGRAL PACKAGE
----------------------

Number of atoms                             ...     14
Number of basis functions                   ...    334
Number of shells                            ...    126
Maximum angular momentum                    ...      3
Integral batch strategy                     ... SHARK/LIBINT Hybrid
RI-J (if used) integral strategy            ... SPLIT-RIJ (Revised 2003 algorithm where possible)
Printlevel                                  ...      1
Contraction scheme used                     ... SEGMENTED contraction
Coulomb Range Separation                    ... NOT USED
Exchange Range Separation                   ... NOT USED
Finite Nucleus Model                        ... NOT USED
Auxiliary Coulomb fitting basis             ... AVAILABLE
   # of basis functions in Aux-J            ...    534
   # of shells in Aux-J                     ...    170
   Maximum angular momentum in Aux-J        ...      4
Auxiliary J/K fitting basis                 ... NOT available
Auxiliary Correlation fitting basis         ... NOT available
Auxiliary 'external' fitting basis          ... NOT available
Integral threshold                          ...     2.500000e-11
Primitive cut-off                           ...     2.500000e-12
Primitive pair pre-selection threshold      ...     2.500000e-12

Calculating pre-screening integrals         ... done (  0.1 sec) Dimension = 126
Organizing shell pair data                  ... done (  0.1 sec)
Shell pair information
Total number of shell pairs                 ...      8001
Shell pairs after pre-screening             ...      6987
Total number of primitive shell pairs       ...     25432
Primitive shell pairs kept                  ...     16214
          la=0 lb=0:   1611 shell pairs
          la=1 lb=0:   1891 shell pairs
          la=1 lb=1:    561 shell pairs
          la=2 lb=0:   1066 shell pairs
          la=2 lb=1:    625 shell pairs
          la=2 lb=2:    185 shell pairs
          la=3 lb=0:    521 shell pairs
          la=3 lb=1:    306 shell pairs
          la=3 lb=2:    173 shell pairs
          la=3 lb=3:     48 shell pairs

Calculating one electron integrals          ... done (  0.0 sec)
Calculating RI/J V-Matrix + Cholesky decomp.... done (  0.1 sec)
Calculating Nuclear repulsion               ... done (  0.0 sec) ENN=    451.357909648605 Eh

SHARK setup successfully completed in   0.5 seconds

Maximum memory used throughout the entire GTOINT-calculation: 20.5 MB


           ************************************************************
           *        Program running with 24 parallel MPI-processes    *
           *              working on a common directory               *
           ************************************************************
-------------------------------------------------------------------------------
                                 ORCA SCF
-------------------------------------------------------------------------------

------------
SCF SETTINGS
------------
Hamiltonian:
 Density Functional     Method          .... DFT(GTOs)
 Exchange Functional    Exchange        .... PBE
   PBE kappa parameter   XKappa         ....  0.804000
   PBE mue parameter    XMuePBE         ....  0.219520
 Correlation Functional Correlation     .... PBE
   PBE beta parameter  CBetaPBE         ....  0.066725
 LDA part of GGA corr.  LDAOpt          .... PW91-LDA
 Gradients option       PostSCFGGA      .... off
 Hybrid DFT is turned on
   Fraction HF Exchange ScalHFX         ....  0.250000
   Scaling of DF-GGA-X  ScalDFX         ....  0.750000
   Scaling of DF-GGA-C  ScalDFC         ....  1.000000
   Scaling of DF-LDA-C  ScalLDAC        ....  1.000000
   Perturbative correction              ....  0.000000
   Density functional embedding theory  .... OFF
   NL short-range parameter             ....  6.900000
 RI-approximation to the Coulomb term is turned on
   Number of AuxJ basis functions       .... 534
   RIJ-COSX (HFX calculated with COS-X)).... on


General Settings:
 Integral files         IntName         .... N3-PhenO/N3-PhenO
 Hartree-Fock type      HFTyp           .... RHF
 Total Charge           Charge          ....   -1
 Multiplicity           Mult            ....    1
 Number of Electrons    NEL             ....   70
 Basis Dimension        Dim             ....  334
 Nuclear Repulsion      ENuc            ....    451.3579096486 Eh

Convergence Acceleration:
 DIIS                   CNVDIIS         .... on
   Start iteration      DIISMaxIt       ....    12
   Startup error        DIISStart       ....  0.200000
   # of expansion vecs  DIISMaxEq       ....     5
   Bias factor          DIISBfac        ....   1.050
   Max. coefficient     DIISMaxC        ....  10.000
 Trust-Rad. Augm. Hess. CNVTRAH         .... auto
   Auto Start mean grad. ratio tolernc. ....  1.125000
   Auto Start start iteration           ....    20
   Auto Start num. interpolation iter.  ....    10
   Max. Number of Micro iterations      ....    16
   Max. Number of Macro iterations      .... Maxiter - #DIIS iter
   Number of Davidson start vectors     ....     2
   Converg. threshold I  (grad. norm)   ....   1.000e-05
   Converg. threshold II (energy diff.) ....   1.000e-08
   Grad. Scal. Fac. for Micro threshold ....   0.100
   Minimum threshold for Micro iter.    ....   0.010
   NR start threshold (gradient norm)   ....   0.001
   Initial trust radius                 ....   0.400
   Minimum AH scaling param. (alpha)    ....   1.000
   Maximum AH scaling param. (alpha)    .... 1000.000
   Orbital update algorithm             .... Taylor
   White noise on init. David. guess    .... on
   Maximum white noise                  ....   0.010
   Quad. conv. algorithm                .... NR
 SOSCF                  CNVSOSCF        .... on
   Start iteration      SOSCFMaxIt      ....   150
   Startup grad/error   SOSCFStart      ....  0.003300
 Level Shifting         CNVShift        .... on
   Level shift para.    LevelShift      ....    0.2500
   Turn off err/grad.   ShiftErr        ....    0.0010
 Zerner damping         CNVZerner       .... off
 Static damping         CNVDamp         .... on
   Fraction old density DampFac         ....    0.7000
   Max. Damping (<1)    DampMax         ....    0.9800
   Min. Damping (>=0)   DampMin         ....    0.0000
   Turn off err/grad.   DampErr         ....    0.1000
 Fernandez-Rico         CNVRico         .... off

SCF Procedure:
 Maximum # iterations   MaxIter         ....   800
 SCF integral mode      SCFMode         .... Direct
   Integral package                     .... SHARK and LIBINT hybrid scheme
 Reset frequency        DirectResetFreq ....    20
 Integral Threshold     Thresh          ....  2.500e-11 Eh
 Primitive CutOff       TCut            ....  2.500e-12 Eh

Convergence Tolerance:
 Convergence Check Mode ConvCheckMode   .... Total+1el-Energy
 Convergence forced     ConvForced      .... 0
 Energy Change          TolE            ....  1.000e-08 Eh
 1-El. energy change                    ....  1.000e-05 Eh
 Orbital Gradient       TolG            ....  1.000e-05
 Orbital Rotation angle TolX            ....  1.000e-05
 DIIS Error             TolErr          ....  5.000e-07


Diagonalization of the overlap matrix:
Smallest eigenvalue                        ... 1.192e-05
Time for diagonalization                   ...    0.026 sec
Threshold for overlap eigenvalues          ... 1.000e-08
Number of eigenvalues below threshold      ... 0
Time for construction of square roots      ...    0.022 sec
Total time needed                          ...    0.051 sec

Time for model grid setup =    0.104 sec

------------------------------
INITIAL GUESS: MODEL POTENTIAL
------------------------------
Loading Hartree-Fock densities                     ... done
Calculating cut-offs                               ... done
Initializing the effective Hamiltonian             ... done
Setting up the integral package (SHARK)            ... done
Starting the Coulomb interaction                   ... done (   0.1 sec)
Reading the grid                                   ... done
Mapping shells                                     ... done
Starting the XC term evaluation                    ... done (   0.0 sec)
  promolecular density results
     # of electrons  =     68.996043967
     EX              =    -59.573674341
     EC              =     -2.310317109
     EX+EC           =    -61.883991450
Transforming the Hamiltonian                       ... done (   0.0 sec)
Diagonalizing the Hamiltonian                      ... done (   0.0 sec)
Back transforming the eigenvectors                 ... done (   0.0 sec)
Now organizing SCF variables                       ... done
                      ------------------
                      INITIAL GUESS DONE (   0.3 sec)
                      ------------------
-------------------
DFT GRID GENERATION
-------------------

General Integration Accuracy     IntAcc      ... 4.388
Radial Grid Type                 RadialGrid  ... OptM3 with GC (2021)
Angular Grid (max. ang.)         AngularGrid ... 4 (Lebedev-302)
Angular grid pruning method      GridPruning ... 4 (adaptive)
Weight generation scheme         WeightScheme... Becke
Basis function cutoff            BFCut       ... 1.0000e-11
Integration weight cutoff        WCut        ... 1.0000e-14
Angular grids for H and He will be reduced by one unit
Partially contracted basis set               ... off
Rotationally invariant grid construction     ... off

Total number of grid points                  ...    73260
Total number of batches                      ...     1151
Average number of points per batch           ...       63
Average number of grid points per atom       ...     5233
Time for grid setup =    0.410 sec

--------------------
COSX GRID GENERATION
--------------------

GRIDX 1
-------
General Integration Accuracy     IntAcc      ... 3.816
Radial Grid Type                 RadialGrid  ... OptM3 with GC (2021)
Angular Grid (max. ang.)         AngularGrid ... 1 (Lebedev-50)
Angular grid pruning method      GridPruning ... 4 (adaptive)
Weight generation scheme         WeightScheme... Becke
Basis function cutoff            BFCut       ... 1.0000e-11
Integration weight cutoff        WCut        ... 1.0000e-14
Angular grids for H and He will be reduced by one unit
Partially contracted basis set               ... on
Rotationally invariant grid construction     ... off

Total number of grid points                  ...     9299
Total number of batches                      ...      152
Average number of points per batch           ...       61
Average number of grid points per atom       ...      664
UseSFitting                                  ... on

GRIDX 2
-------
General Integration Accuracy     IntAcc      ... 4.020
Radial Grid Type                 RadialGrid  ... OptM3 with GC (2021)
Angular Grid (max. ang.)         AngularGrid ... 2 (Lebedev-110)
Angular grid pruning method      GridPruning ... 4 (adaptive)
Weight generation scheme         WeightScheme... Becke
Basis function cutoff            BFCut       ... 1.0000e-11
Integration weight cutoff        WCut        ... 1.0000e-14
Angular grids for H and He will be reduced by one unit
Partially contracted basis set               ... on
Rotationally invariant grid construction     ... off

Total number of grid points                  ...    21191
Total number of batches                      ...      339
Average number of points per batch           ...       62
Average number of grid points per atom       ...     1514
UseSFitting                                  ... on

GRIDX 3
-------
General Integration Accuracy     IntAcc      ... 4.338
Radial Grid Type                 RadialGrid  ... OptM3 with GC (2021)
Angular Grid (max. ang.)         AngularGrid ... 3 (Lebedev-194)
Angular grid pruning method      GridPruning ... 4 (adaptive)
Weight generation scheme         WeightScheme... Becke
Basis function cutoff            BFCut       ... 1.0000e-11
Integration weight cutoff        WCut        ... 1.0000e-14
Angular grids for H and He will be reduced by one unit
Partially contracted basis set               ... on
Rotationally invariant grid construction     ... off

Total number of grid points                  ...    46785
Total number of batches                      ...      739
Average number of points per batch           ...       63
Average number of grid points per atom       ...     3342
UseSFitting                                  ... on

Time for X-Grid setup             =    0.604 sec


--------------------
CPCM SOLVATION MODEL
--------------------
CPCM parameters:
  Epsilon                                         ...      47.2000
  Refrac                                          ...       1.4790
  Rsolv                                           ...       1.3000
  Surface type                                    ... GAUSSIAN VDW
  Epsilon function type                           ...         CPCM
Radii:
 Radius for C  used is    3.8550 Bohr (=   2.0400 Ang.)
 Radius for H  used is    2.4944 Bohr (=   1.3200 Ang.)
 Radius for O  used is    3.4469 Bohr (=   1.8240 Ang.)
 Radius for N  used is    3.5149 Bohr (=   1.8600 Ang.)
Calculating surface                               ...        done! (  0.0s)
GEPOL surface points                              ...          854
GEPOL Volume                                      ...    1059.8774
GEPOL Surface-area                                ...     604.6130
Calculating surface distance matrix               ...        done! (  0.0s)
Performing Cholesky decomposition & store         ...        done! (  0.1s)
Overall time for CPCM initialization              ...                 0.1s
--------------
SCF ITERATIONS
--------------
ITER       Energy         Delta-E        Max-DP      RMS-DP      [F,P]     Damp
               ***  Starting incremental Fock matrix formation  ***
  0   -469.9334045039   0.000000000000 0.52155708  0.00554718  0.3411774 0.7000
  1   -470.0713985828  -0.137994078982 0.47574098  0.00504238  0.1442498 0.7000
                               ***Turning on DIIS***
  2   -470.1279094404  -0.056510857603 0.45187805  0.00550801  0.0415810 0.0000
  3   -470.2149871396  -0.087077699176 0.49473904  0.00496782  0.0873443 0.0000
  4   -470.2347323939  -0.019745254309 0.10362596  0.00105528  0.0150929 0.0000
  5   -470.2358359476  -0.001103553720 0.04936008  0.00052259  0.0089148 0.0000
                      *** Initiating the SOSCF procedure ***
                           *** Shutting down DIIS ***
                      *** Re-Reading the Fockian *** 
                      *** Removing any level shift *** 
ITER      Energy       Delta-E        Grad      Rot      Max-DP    RMS-DP
  6   -470.23596895  -0.0001330045  0.000530  0.000530  0.023210  0.000248
               *** Restarting incremental Fock matrix formation ***
  7   -470.23598308  -0.0000141322  0.000534  0.001793  0.005082  0.000065
  8   -470.23596166   0.0000214207  0.001516  0.001491  0.002663  0.000035
  9   -470.23598808  -0.0000264118  0.000151  0.000393  0.002269  0.000023
 10   -470.23598733   0.0000007430  0.000268  0.000268  0.001543  0.000016
 11   -470.23598844  -0.0000011046  0.000009  0.000027  0.000275  0.000003
 12   -470.23598843   0.0000000075  0.000013  0.000015  0.000063  0.000001
                  ***Gradient check signals convergence***
              ***Rediagonalizing the Fockian in SOSCF/NRSCF***

               *****************************************************
               *                     SUCCESS                       *
               *           SCF CONVERGED AFTER  13 CYCLES          *
               *****************************************************

Old exchange energy                            =    -15.181523423 Eh
New exchange energy                            =    -15.181515591 Eh
Exchange energy change after final integration =      0.000007832 Eh
Total energy after final integration           =   -470.235980609 Eh
Final COS-X integration done in                =     1.685 sec

----------------
TOTAL SCF ENERGY
----------------

Total Energy       :         -470.23598061 Eh          -12795.77156 eV

Components:
Nuclear Repulsion  :          451.35790965 Eh           12282.07313 eV
Electronic Energy  :         -921.59389026 Eh          -25077.84469 eV
One Electron Energy:        -1544.39674127 Eh          -42025.17185 eV
Two Electron Energy:          622.80285101 Eh           16947.32716 eV
Max COSX asymmetry :            0.00000194 Eh               0.00005 eV
CPCM Dielectric    :           -0.09295229 Eh              -2.52936 eV

Virial components:
Potential Energy   :         -938.45598128 Eh          -25536.68551 eV
Kinetic Energy     :          468.22000067 Eh           12740.91395 eV
Virial Ratio       :            2.00430563


DFT components:
N(Alpha)           :       34.999979968496 electrons
N(Beta)            :       34.999979968496 electrons
N(Total)           :       69.999959936992 electrons
E(X)               :      -45.540048948372 Eh       
E(C)               :       -2.357013850049 Eh       
E(XC)              :      -47.897062798421 Eh       
DFET-embed. en.    :        0.000000000000 Eh       
CPCM Solvation Model Properties:
Surface-charge          :            0.97153936
Charge-correction       :           -0.00386170 Eh              -0.10508 eV
Free-energy (cav+disp)  :  This term is not implemented in the current solvation scheme

---------------
SCF CONVERGENCE
---------------

  Last Energy change         ...   -1.1172e-08  Tolerance :   1.0000e-08
  Last MAX-Density change    ...    1.6653e-15  Tolerance :   1.0000e-07
  Last RMS-Density change    ...    2.0289e-17  Tolerance :   5.0000e-09
  Last Orbital Gradient      ...    2.3100e-06  Tolerance :   1.0000e-05
  Last Orbital Rotation      ...    5.0002e-06  Tolerance :   1.0000e-05

             **** THE GBW FILE WAS UPDATED (N3-PhenO/N3-PhenO.gbw) ****
             **** DENSITY N3-PhenO/N3-PhenO.scfp WAS UPDATED ****
             **** ENERGY FILE WAS UPDATED (N3-PhenO/N3-PhenO.en.tmp) ****
             **** THE GBW FILE WAS UPDATED (N3-PhenO/N3-PhenO.gbw) ****
             **** DENSITY N3-PhenO/N3-PhenO.scfp WAS UPDATED ****
----------------
ORBITAL ENERGIES
----------------

  NO   OCC          E(Eh)            E(eV) 
   0   2.0000     -19.113977      -520.1178 
   1   2.0000     -14.548934      -395.8966 
   2   2.0000     -14.442399      -392.9976 
   3   2.0000     -14.432114      -392.7178 
   4   2.0000     -10.246855      -278.8311 
   5   2.0000     -10.246475      -278.8208 
   6   2.0000     -10.214282      -277.9448 
   7   2.0000     -10.211926      -277.8806 
   8   2.0000     -10.194214      -277.3987 
   9   2.0000     -10.192829      -277.3610 
  10   2.0000      -1.174666       -31.9643 
  11   2.0000      -1.015328       -27.6285 
  12   2.0000      -0.980284       -26.6749 
  13   2.0000      -0.857045       -23.3214 
  14   2.0000      -0.755186       -20.5497 
  15   2.0000      -0.745685       -20.2911 
  16   2.0000      -0.631653       -17.1882 
  17   2.0000      -0.611759       -16.6468 
  18   2.0000      -0.559419       -15.2226 
  19   2.0000      -0.533106       -14.5066 
  20   2.0000      -0.528029       -14.3684 
  21   2.0000      -0.473568       -12.8864 
  22   2.0000      -0.456669       -12.4266 
  23   2.0000      -0.453108       -12.3297 
  24   2.0000      -0.424924       -11.5628 
  25   2.0000      -0.414912       -11.2903 
  26   2.0000      -0.393874       -10.7179 
  27   2.0000      -0.370175       -10.0730 
  28   2.0000      -0.350005        -9.5241 
  29   2.0000      -0.344363        -9.3706 
  30   2.0000      -0.314843        -8.5673 
  31   2.0000      -0.274147        -7.4599 
  32   2.0000      -0.255728        -6.9587 
  33   2.0000      -0.222354        -6.0506 
  34   2.0000      -0.173082        -4.7098 
  35   0.0000      -0.017047        -0.4639 
  36   0.0000       0.000195         0.0053 
  37   0.0000       0.011864         0.3228 
  38   0.0000       0.074906         2.0383 
  39   0.0000       0.084783         2.3071 
  40   0.0000       0.100920         2.7462 
  41   0.0000       0.104482         2.8431 
  42   0.0000       0.119832         3.2608 
  43   0.0000       0.145599         3.9619 
  44   0.0000       0.164458         4.4751 
  45   0.0000       0.178397         4.8544 
  46   0.0000       0.182183         4.9575 
  47   0.0000       0.219081         5.9615 
  48   0.0000       0.219100         5.9620 
  49   0.0000       0.234236         6.3739 
  50   0.0000       0.238681         6.4948 
  51   0.0000       0.245153         6.6709 
  52   0.0000       0.257528         7.0077 
  53   0.0000       0.277102         7.5403 
  54   0.0000       0.281715         7.6659 
  55   0.0000       0.286410         7.7936 
  56   0.0000       0.314725         8.5641 
  57   0.0000       0.322461         8.7746 
  58   0.0000       0.325170         8.8483 
  59   0.0000       0.343165         9.3380 
  60   0.0000       0.343516         9.3475 
  61   0.0000       0.356297         9.6953 
  62   0.0000       0.362697         9.8695 
  63   0.0000       0.369447        10.0532 
  64   0.0000       0.378205        10.2915 
  65   0.0000       0.381048        10.3688 
  66   0.0000       0.393386        10.7046 
  67   0.0000       0.422875        11.5070 
  68   0.0000       0.425151        11.5689 
  69   0.0000       0.433174        11.7873 
  70   0.0000       0.440938        11.9985 
  71   0.0000       0.441163        12.0046 
  72   0.0000       0.451481        12.2854 
  73   0.0000       0.456508        12.4222 
  74   0.0000       0.474511        12.9121 
  75   0.0000       0.498556        13.5664 
  76   0.0000       0.503068        13.6892 
  77   0.0000       0.519348        14.1322 
  78   0.0000       0.523834        14.2543 
  79   0.0000       0.528606        14.3841 
  80   0.0000       0.533992        14.5307 
  81   0.0000       0.550717        14.9858 
  82   0.0000       0.570415        15.5218 
  83   0.0000       0.595129        16.1943 
  84   0.0000       0.605028        16.4636 
  85   0.0000       0.608586        16.5605 
  86   0.0000       0.649824        17.6826 
  87   0.0000       0.664099        18.0710 
  88   0.0000       0.686078        18.6691 
  89   0.0000       0.693823        18.8799 
  90   0.0000       0.694551        18.8997 
  91   0.0000       0.739196        20.1145 
  92   0.0000       0.745914        20.2974 
  93   0.0000       0.756979        20.5984 
  94   0.0000       0.765360        20.8265 
  95   0.0000       0.778866        21.1940 
  96   0.0000       0.790294        21.5050 
  97   0.0000       0.825379        22.4597 
  98   0.0000       0.840118        22.8608 
  99   0.0000       0.841032        22.8856 
 100   0.0000       0.862196        23.4615 
 101   0.0000       0.871747        23.7215 
 102   0.0000       0.880265        23.9532 
 103   0.0000       0.882136        24.0041 
 104   0.0000       0.895958        24.3802 
 105   0.0000       0.903473        24.5848 
 106   0.0000       0.926886        25.2219 
 107   0.0000       0.976822        26.5807 
 108   0.0000       1.004808        27.3422 
 109   0.0000       1.017516        27.6880 
 110   0.0000       1.032397        28.0929 
 111   0.0000       1.051370        28.6092 
 112   0.0000       1.073042        29.1990 
 113   0.0000       1.082673        29.4610 
 114   0.0000       1.096821        29.8460 
 115   0.0000       1.134635        30.8750 
 116   0.0000       1.183746        32.2114 
 117   0.0000       1.212689        32.9990 
 118   0.0000       1.227296        33.3964 
 119   0.0000       1.235273        33.6135 
 120   0.0000       1.250658        34.0321 
 121   0.0000       1.252921        34.0937 
 122   0.0000       1.256886        34.2016 
 123   0.0000       1.281117        34.8610 
 124   0.0000       1.297042        35.2943 
 125   0.0000       1.313903        35.7531 
 126   0.0000       1.332767        36.2664 
 127   0.0000       1.375788        37.4371 
 128   0.0000       1.424980        38.7757 
 129   0.0000       1.426429        38.8151 
 130   0.0000       1.449757        39.4499 
 131   0.0000       1.457591        39.6631 
 132   0.0000       1.477086        40.1935 
 133   0.0000       1.495099        40.6837 
 134   0.0000       1.500879        40.8410 
 135   0.0000       1.507410        41.0187 
 136   0.0000       1.533015        41.7155 
 137   0.0000       1.533555        41.7302 
 138   0.0000       1.545894        42.0659 
 139   0.0000       1.601591        43.5815 
 140   0.0000       1.609927        43.8084 
 141   0.0000       1.627413        44.2842 
 142   0.0000       1.653209        44.9861 
 143   0.0000       1.661247        45.2048 
 144   0.0000       1.669117        45.4190 
 145   0.0000       1.691703        46.0336 
 146   0.0000       1.704042        46.3693 
 147   0.0000       1.749434        47.6045 
 148   0.0000       1.764219        48.0069 
 149   0.0000       1.770559        48.1794 
 150   0.0000       1.807887        49.1951 
 151   0.0000       1.808253        49.2051 
 152   0.0000       1.873935        50.9924 
 153   0.0000       1.879951        51.1561 
 154   0.0000       1.881598        51.2009 
 155   0.0000       1.906619        51.8817 
 156   0.0000       1.946115        52.9565 
 157   0.0000       1.961151        53.3656 
 158   0.0000       1.965946        53.4961 
 159   0.0000       1.989929        54.1487 
 160   0.0000       2.002297        54.4853 
 161   0.0000       2.021546        55.0091 
 162   0.0000       2.060961        56.0816 
 163   0.0000       2.085620        56.7526 
 164   0.0000       2.102027        57.1991 
 165   0.0000       2.106714        57.3266 
 166   0.0000       2.153135        58.5898 
 167   0.0000       2.163031        58.8591 
 168   0.0000       2.193729        59.6944 
 169   0.0000       2.199683        59.8564 
 170   0.0000       2.246020        61.1173 
 171   0.0000       2.268350        61.7249 
 172   0.0000       2.281171        62.0738 
 173   0.0000       2.286333        62.2143 
 174   0.0000       2.305236        62.7287 
 175   0.0000       2.347622        63.8821 
 176   0.0000       2.354078        64.0577 
 177   0.0000       2.376055        64.6557 
 178   0.0000       2.413130        65.6646 
 179   0.0000       2.464862        67.0723 
 180   0.0000       2.486500        67.6611 
 181   0.0000       2.495162        67.8968 
 182   0.0000       2.518372        68.5284 
 183   0.0000       2.578732        70.1709 
 184   0.0000       2.608586        70.9832 
 185   0.0000       2.620548        71.3087 
 186   0.0000       2.635126        71.7054 
 187   0.0000       2.640644        71.8556 
 188   0.0000       2.679518        72.9134 
 189   0.0000       2.698570        73.4318 
 190   0.0000       2.708337        73.6976 
 191   0.0000       2.726741        74.1984 
 192   0.0000       2.738830        74.5274 
 193   0.0000       2.754023        74.9408 
 194   0.0000       2.791176        75.9518 
 195   0.0000       2.799115        76.1678 
 196   0.0000       2.822782        76.8118 
 197   0.0000       2.836809        77.1935 
 198   0.0000       2.838756        77.2465 
 199   0.0000       2.855968        77.7149 
 200   0.0000       2.871626        78.1409 
 201   0.0000       2.887924        78.5844 
 202   0.0000       2.918124        79.4062 
 203   0.0000       2.925582        79.6091 
 204   0.0000       2.934720        79.8578 
 205   0.0000       2.954234        80.3888 
 206   0.0000       2.955178        80.4145 
 207   0.0000       2.997123        81.5559 
 208   0.0000       3.009810        81.9011 
 209   0.0000       3.076996        83.7293 
 210   0.0000       3.110764        84.6482 
 211   0.0000       3.132629        85.2432 
 212   0.0000       3.140912        85.4686 
 213   0.0000       3.155204        85.8575 
 214   0.0000       3.163766        86.0904 
 215   0.0000       3.176312        86.4318 
 216   0.0000       3.178133        86.4814 
 217   0.0000       3.189091        86.7796 
 218   0.0000       3.223067        87.7041 
 219   0.0000       3.251922        88.4893 
 220   0.0000       3.256950        88.6261 
 221   0.0000       3.263123        88.7941 
 222   0.0000       3.281572        89.2961 
 223   0.0000       3.341557        90.9284 
 224   0.0000       3.364378        91.5494 
 225   0.0000       3.374554        91.8263 
 226   0.0000       3.376276        91.8731 
 227   0.0000       3.402177        92.5779 
 228   0.0000       3.425362        93.2088 
 229   0.0000       3.431489        93.3756 
 230   0.0000       3.453098        93.9636 
 231   0.0000       3.474832        94.5550 
 232   0.0000       3.476909        94.6115 
 233   0.0000       3.495534        95.1183 
 234   0.0000       3.506961        95.4293 
 235   0.0000       3.513830        95.6162 
 236   0.0000       3.520639        95.8015 
 237   0.0000       3.548936        96.5715 
 238   0.0000       3.566281        97.0434 
 239   0.0000       3.598251        97.9134 
 240   0.0000       3.601751        98.0086 
 241   0.0000       3.630513        98.7913 
 242   0.0000       3.644363        99.1682 
 243   0.0000       3.700229       100.6883 
 244   0.0000       3.708154       100.9040 
 245   0.0000       3.766096       102.4807 
 246   0.0000       3.786886       103.0464 
 247   0.0000       3.818107       103.8960 
 248   0.0000       3.836157       104.3871 
 249   0.0000       3.865366       105.1820 
 250   0.0000       3.905763       106.2812 
 251   0.0000       3.932002       106.9952 
 252   0.0000       3.997274       108.7713 
 253   0.0000       3.997693       108.7828 
 254   0.0000       4.033021       109.7441 
 255   0.0000       4.054241       110.3215 
 256   0.0000       4.056883       110.3934 
 257   0.0000       4.068768       110.7168 
 258   0.0000       4.084872       111.1550 
 259   0.0000       4.091351       111.3313 
 260   0.0000       4.155955       113.0893 
 261   0.0000       4.160197       113.2047 
 262   0.0000       4.175553       113.6226 
 263   0.0000       4.186132       113.9104 
 264   0.0000       4.210497       114.5735 
 265   0.0000       4.242224       115.4368 
 266   0.0000       4.257636       115.8562 
 267   0.0000       4.277160       116.3874 
 268   0.0000       4.285666       116.6189 
 269   0.0000       4.294270       116.8530 
 270   0.0000       4.323352       117.6444 
 271   0.0000       4.408748       119.9681 
 272   0.0000       4.417732       120.2126 
 273   0.0000       4.448641       121.0537 
 274   0.0000       4.503771       122.5538 
 275   0.0000       4.520001       122.9955 
 276   0.0000       4.555588       123.9639 
 277   0.0000       4.590311       124.9087 
 278   0.0000       4.591980       124.9541 
 279   0.0000       4.610063       125.4462 
 280   0.0000       4.611198       125.4771 
 281   0.0000       4.648553       126.4935 
 282   0.0000       4.710730       128.1855 
 283   0.0000       4.760459       129.5387 
 284   0.0000       4.785371       130.2166 
 285   0.0000       4.796130       130.5093 
 286   0.0000       4.837396       131.6322 
 287   0.0000       4.849483       131.9611 
 288   0.0000       4.878506       132.7509 
 289   0.0000       4.908749       133.5739 
 290   0.0000       4.931509       134.1932 
 291   0.0000       4.942252       134.4855 
 292   0.0000       5.004918       136.1907 
 293   0.0000       5.010688       136.3478 
 294   0.0000       5.067843       137.9030 
 295   0.0000       5.124294       139.4391 
 296   0.0000       5.154444       140.2596 
 297   0.0000       5.241873       142.6386 
 298   0.0000       5.278065       143.6235 
 299   0.0000       5.315584       144.6444 
 300   0.0000       5.328358       144.9920 
 301   0.0000       5.371917       146.1773 
 302   0.0000       5.483295       149.2080 
 303   0.0000       5.502529       149.7314 
 304   0.0000       5.553567       151.1203 
 305   0.0000       5.603436       152.4773 
 306   0.0000       5.617124       152.8497 
 307   0.0000       5.731716       155.9679 
 308   0.0000       5.751918       156.5176 
 309   0.0000       5.796132       157.7208 
 310   0.0000       5.925873       161.2512 
 311   0.0000       6.087127       165.6392 
 312   0.0000       6.157459       167.5530 
 313   0.0000       6.398893       174.1227 
 314   0.0000       6.461050       175.8141 
 315   0.0000       6.655441       181.1038 
 316   0.0000       6.679405       181.7558 
 317   0.0000       6.773949       184.3285 
 318   0.0000       6.879902       187.2116 
 319   0.0000       6.912486       188.0983 
 320   0.0000       6.998146       190.4292 
 321   0.0000       7.125180       193.8860 
 322   0.0000       7.132751       194.0920 
 323   0.0000       7.447403       202.6541 
 324   0.0000      22.299198       606.7920 
 325   0.0000      22.732132       618.5728 
 326   0.0000      22.828099       621.1841 
 327   0.0000      22.850267       621.7874 
 328   0.0000      23.053186       627.3091 
 329   0.0000      23.493570       639.2926 
 330   0.0000      31.927828       868.8004 
 331   0.0000      32.570565       886.2901 
 332   0.0000      33.476936       910.9537 
 333   0.0000      44.083002      1199.5595 

                    ********************************
                    * MULLIKEN POPULATION ANALYSIS *
                    ********************************

-----------------------
MULLIKEN ATOMIC CHARGES
-----------------------
   0 C :    0.241111
   1 C :   -0.279484
   2 C :   -0.283157
   3 H :    0.138583
   4 H :    0.127199
   5 C :   -0.279896
   6 C :   -0.268625
   7 H :    0.106945
   8 H :    0.104600
   9 C :    0.237237
  10 O :   -0.659662
  11 N :   -0.354797
  12 N :    0.440279
  13 N :   -0.270333
Sum of atomic charges:   -1.0000000

--------------------------------
MULLIKEN REDUCED ORBITAL CHARGES
--------------------------------
  0 C s       :     2.934361  s :     2.934361
      pz      :     0.744051  p :     2.663680
      px      :     1.074416
      py      :     0.845213
      dz2     :     0.031348  d :     0.148018
      dxz     :     0.032860
      dyz     :     0.043270
      dx2y2   :     0.015522
      dxy     :     0.025018
      f0      :     0.002365  f :     0.012830
      f+1     :     0.001983
      f-1     :     0.003791
      f+2     :     0.001075
      f-2     :     0.001193
      f+3     :     0.001597
      f-3     :     0.000826
  1 C s       :     3.267659  s :     3.267659
      pz      :     0.952651  p :     2.905568
      px      :     1.004902
      py      :     0.948015
      dz2     :     0.018167  d :     0.098850
      dxz     :     0.020056
      dyz     :     0.036577
      dx2y2   :     0.009237
      dxy     :     0.014812
      f0      :     0.000824  f :     0.007407
      f+1     :     0.001505
      f-1     :     0.001925
      f+2     :     0.000987
      f-2     :     0.000245
      f+3     :     0.001273
      f-3     :     0.000649
  2 C s       :     3.279523  s :     3.279523
      pz      :     0.932226  p :     2.897762
      px      :     0.990926
      py      :     0.974610
      dz2     :     0.021376  d :     0.098398
      dxz     :     0.029188
      dyz     :     0.031200
      dx2y2   :     0.008899
      dxy     :     0.007735
      f0      :     0.001201  f :     0.007475
      f+1     :     0.001434
      f-1     :     0.001719
      f+2     :     0.000765
      f-2     :     0.000942
      f+3     :     0.000737
      f-3     :     0.000677
  3 H s       :     0.839402  s :     0.839402
      pz      :     0.007532  p :     0.022016
      px      :     0.004903
      py      :     0.009580
  4 H s       :     0.850934  s :     0.850934
      pz      :     0.004785  p :     0.021867
      px      :     0.004783
      py      :     0.012298
  5 C s       :     3.235145  s :     3.235145
      pz      :     0.924210  p :     2.958372
      px      :     1.080776
      py      :     0.953386
      dz2     :     0.017037  d :     0.079235
      dxz     :     0.019925
      dyz     :     0.028295
      dx2y2   :     0.008671
      dxy     :     0.005307
      f0      :     0.001315  f :     0.007144
      f+1     :     0.001501
      f-1     :     0.001779
      f+2     :     0.000777
      f-2     :     0.000612
      f+3     :     0.000541
      f-3     :     0.000618
  6 C s       :     3.231270  s :     3.231270
      pz      :     0.919401  p :     2.950934
      px      :     1.084748
      py      :     0.946785
      dz2     :     0.016816  d :     0.079368
      dxz     :     0.015847
      dyz     :     0.029438
      dx2y2   :     0.008390
      dxy     :     0.008877
      f0      :     0.000928  f :     0.007053
      f+1     :     0.001394
      f-1     :     0.001966
      f+2     :     0.000925
      f-2     :     0.000291
      f+3     :     0.000928
      f-3     :     0.000621
  7 H s       :     0.870699  s :     0.870699
      pz      :     0.004536  p :     0.022355
      px      :     0.005554
      py      :     0.012265
  8 H s       :     0.873050  s :     0.873050
      pz      :     0.007358  p :     0.022350
      px      :     0.005570
      py      :     0.009422
  9 C s       :     2.948185  s :     2.948185
      pz      :     0.867712  p :     2.630958
      px      :     0.847785
      py      :     0.915461
      dz2     :     0.033048  d :     0.166880
      dxz     :     0.055996
      dyz     :     0.046958
      dx2y2   :     0.012785
      dxy     :     0.018094
      f0      :     0.003398  f :     0.016740
      f+1     :     0.003229
      f-1     :     0.005888
      f+2     :     0.001208
      f-2     :     0.001188
      f+3     :     0.001252
      f-3     :     0.000578
 10 O s       :     3.782952  s :     3.782952
      pz      :     1.384490  p :     4.848015
      px      :     1.626273
      py      :     1.837252
      dz2     :     0.011774  d :     0.027108
      dxz     :     0.007839
      dyz     :     0.006931
      dx2y2   :     0.000273
      dxy     :     0.000291
      f0      :     0.000620  f :     0.001586
      f+1     :     0.000441
      f-1     :     0.000446
      f+2     :     0.000034
      f-2     :     0.000042
      f+3     :     0.000001
      f-3     :     0.000001
 11 N s       :     3.704991  s :     3.704991
      pz      :     0.990694  p :     3.565123
      px      :     1.375275
      py      :     1.199154
      dz2     :     0.017288  d :     0.078949
      dxz     :     0.018815
      dyz     :     0.021069
      dx2y2   :     0.010323
      dxy     :     0.011454
      f0      :     0.001226  f :     0.005733
      f+1     :     0.000650
      f-1     :     0.001181
      f+2     :     0.000917
      f-2     :     0.000914
      f+3     :     0.000446
      f-3     :     0.000399
 12 N s       :     3.310253  s :     3.310253
      pz      :     0.955284  p :     3.071055
      px      :     1.195978
      py      :     0.919793
      dz2     :     0.044941  d :     0.166366
      dxz     :     0.039419
      dyz     :     0.022725
      dx2y2   :     0.019646
      dxy     :     0.039635
      f0      :     0.002082  f :     0.012048
      f+1     :     0.000728
      f-1     :     0.002919
      f+2     :     0.001954
      f-2     :     0.002573
      f+3     :     0.001007
      f-3     :     0.000786
 13 N s       :     3.943581  s :     3.943581
      pz      :     0.997529  p :     3.261017
      px      :     1.275162
      py      :     0.988326
      dz2     :     0.019261  d :     0.060745
      dxz     :     0.011599
      dyz     :     0.012010
      dx2y2   :     0.008211
      dxy     :     0.009665
      f0      :     0.001011  f :     0.004990
      f+1     :     0.000362
      f-1     :     0.001103
      f+2     :     0.000728
      f-2     :     0.001044
      f+3     :     0.000400
      f-3     :     0.000341


                     *******************************
                     * LOEWDIN POPULATION ANALYSIS *
                     *******************************

----------------------
LOEWDIN ATOMIC CHARGES
----------------------
   0 C :   -0.289069
   1 C :   -0.165895
   2 C :   -0.159635
   3 H :    0.149523
   4 H :    0.149833
   5 C :   -0.180891
   6 C :   -0.183045
   7 H :    0.138612
   8 H :    0.138397
   9 C :   -0.437191
  10 O :   -0.194386
  11 N :    0.031550
  12 N :    0.078129
  13 N :   -0.075933

-------------------------------
LOEWDIN REDUCED ORBITAL CHARGES
-------------------------------
  0 C s       :     2.706527  s :     2.706527
      pz      :     0.862762  p :     2.891646
      px      :     0.960291
      py      :     1.068593
      dz2     :     0.165471  d :     0.615862
      dxz     :     0.100225
      dyz     :     0.196262
      dx2y2   :     0.068971
      dxy     :     0.084934
      f0      :     0.013191  f :     0.075033
      f+1     :     0.010740
      f-1     :     0.024471
      f+2     :     0.008425
      f-2     :     0.008319
      f+3     :     0.004524
      f-3     :     0.005363
  1 C s       :     2.760911  s :     2.760911
      pz      :     1.042369  p :     2.957070
      px      :     0.912366
      py      :     1.002334
      dz2     :     0.083021  d :     0.404013
      dxz     :     0.067365
      dyz     :     0.159207
      dx2y2   :     0.044227
      dxy     :     0.050192
      f0      :     0.007915  f :     0.043902
      f+1     :     0.007267
      f-1     :     0.012282
      f+2     :     0.005335
      f-2     :     0.001749
      f+3     :     0.005168
      f-3     :     0.004186
  2 C s       :     2.761470  s :     2.761470
      pz      :     1.061135  p :     2.949691
      px      :     0.901074
      py      :     0.987482
      dz2     :     0.106962  d :     0.404702
      dxz     :     0.097344
      dyz     :     0.132652
      dx2y2   :     0.045480
      dxy     :     0.022265
      f0      :     0.008588  f :     0.043772
      f+1     :     0.005399
      f-1     :     0.012612
      f+2     :     0.005324
      f-2     :     0.006483
      f+3     :     0.002204
      f-3     :     0.003163
  3 H s       :     0.790105  s :     0.790105
      pz      :     0.020462  p :     0.060373
      px      :     0.014165
      py      :     0.025745
  4 H s       :     0.790342  s :     0.790342
      pz      :     0.013707  p :     0.059824
      px      :     0.013833
      py      :     0.032284
  5 C s       :     2.774912  s :     2.774912
      pz      :     1.053184  p :     2.998956
      px      :     0.961046
      py      :     0.984726
      dz2     :     0.111308  d :     0.367134
      dxz     :     0.068113
      dyz     :     0.126708
      dx2y2   :     0.046139
      dxy     :     0.014866
      f0      :     0.008911  f :     0.039888
      f+1     :     0.005570
      f-1     :     0.012065
      f+2     :     0.005042
      f-2     :     0.004140
      f+3     :     0.001246
      f-3     :     0.002913
  6 C s       :     2.774555  s :     2.774555
      pz      :     1.038493  p :     3.003078
      px      :     0.963975
      py      :     1.000610
      dz2     :     0.084749  d :     0.365602
      dxz     :     0.051178
      dyz     :     0.155282
      dx2y2   :     0.043728
      dxy     :     0.030664
      f0      :     0.007664  f :     0.039810
      f+1     :     0.006118
      f-1     :     0.012401
      f+2     :     0.005082
      f-2     :     0.001653
      f+3     :     0.003097
      f-3     :     0.003795
  7 H s       :     0.800656  s :     0.800656
      pz      :     0.013022  p :     0.060732
      px      :     0.015643
      py      :     0.032067
  8 H s       :     0.800914  s :     0.800914
      pz      :     0.019843  p :     0.060689
      px      :     0.015672
      py      :     0.025174
  9 C s       :     2.731328  s :     2.731328
      pz      :     0.951201  p :     2.799209
      px      :     0.802869
      py      :     1.045139
      dz2     :     0.208263  d :     0.799993
      dxz     :     0.179228
      dyz     :     0.282357
      dx2y2   :     0.064132
      dxy     :     0.066013
      f0      :     0.023818  f :     0.106660
      f+1     :     0.019380
      f-1     :     0.036697
      f+2     :     0.008828
      f-2     :     0.008170
      f+3     :     0.005130
      f-3     :     0.004638
 10 O s       :     3.430496  s :     3.430496
      pz      :     1.472466  p :     4.697750
      px      :     1.528930
      py      :     1.696355
      dz2     :     0.026633  d :     0.061207
      dxz     :     0.014197
      dyz     :     0.019230
      dx2y2   :     0.000655
      dxy     :     0.000493
      f0      :     0.002034  f :     0.004932
      f+1     :     0.001057
      f-1     :     0.001619
      f+2     :     0.000122
      f-2     :     0.000094
      f+3     :     0.000003
      f-3     :     0.000004
 11 N s       :     3.055725  s :     3.055725
      pz      :     1.089708  p :     3.616358
      px      :     1.257253
      py      :     1.269397
      dz2     :     0.065075  d :     0.266432
      dxz     :     0.060728
      dyz     :     0.089875
      dx2y2   :     0.027776
      dxy     :     0.022978
      f0      :     0.005032  f :     0.029936
      f+1     :     0.002133
      f-1     :     0.007458
      f+2     :     0.006165
      f-2     :     0.005293
      f+3     :     0.001904
      f-3     :     0.001951
 12 N s       :     2.929522  s :     2.929522
      pz      :     1.163323  p :     3.410838
      px      :     1.086751
      py      :     1.160763
      dz2     :     0.140474  d :     0.548981
      dxz     :     0.118964
      dyz     :     0.093759
      dx2y2   :     0.075844
      dxy     :     0.119941
      f0      :     0.003848  f :     0.032530
      f+1     :     0.001448
      f-1     :     0.010247
      f+2     :     0.008555
      f-2     :     0.004577
      f+3     :     0.001650
      f-3     :     0.002206
 13 N s       :     3.368132  s :     3.368132
      pz      :     1.166500  p :     3.502245
      px      :     1.207141
      py      :     1.128604
      dz2     :     0.044720  d :     0.175932
      dxz     :     0.029679
      dyz     :     0.053813
      dx2y2   :     0.022599
      dxy     :     0.025120
      f0      :     0.004769  f :     0.029624
      f+1     :     0.001892
      f-1     :     0.007758
      f+2     :     0.005472
      f-2     :     0.006156
      f+3     :     0.001964
      f-3     :     0.001613


                      *****************************
                      * MAYER POPULATION ANALYSIS *
                      *****************************

  NA   - Mulliken gross atomic population
  ZA   - Total nuclear charge
  QA   - Mulliken gross atomic charge
  VA   - Mayer's total valence
  BVA  - Mayer's bonded valence
  FA   - Mayer's free valence

  ATOM       NA         ZA         QA         VA         BVA        FA
  0 C      5.7589     6.0000     0.2411     3.7494     3.7494    -0.0000
  1 C      6.2795     6.0000    -0.2795     3.8575     3.8575    -0.0000
  2 C      6.2832     6.0000    -0.2832     3.9311     3.9311    -0.0000
  3 H      0.8614     1.0000     0.1386     0.9807     0.9807     0.0000
  4 H      0.8728     1.0000     0.1272     0.9880     0.9880    -0.0000
  5 C      6.2799     6.0000    -0.2799     3.7091     3.7091     0.0000
  6 C      6.2686     6.0000    -0.2686     3.6883     3.6883     0.0000
  7 H      0.8931     1.0000     0.1069     0.9930     0.9930     0.0000
  8 H      0.8954     1.0000     0.1046     0.9921     0.9921     0.0000
  9 C      5.7628     6.0000     0.2372     4.2177     4.2177     0.0000
 10 O      8.6597     8.0000    -0.6597     1.8254     1.8254     0.0000
 11 N      7.3548     7.0000    -0.3548     2.8682     2.8682    -0.0000
 12 N      6.5597     7.0000     0.4403     3.4083     3.4083     0.0000
 13 N      7.2703     7.0000    -0.2703     2.4170     2.4170     0.0000

  Mayer bond orders larger than 0.100000
B(  0-C ,  1-C ) :   1.3089 B(  0-C ,  2-C ) :   1.3243 B(  0-C , 11-N ) :   1.0157 
B(  1-C ,  3-H ) :   0.9585 B(  1-C ,  5-C ) :   1.4063 B(  2-C ,  4-H ) :   0.9722 
B(  2-C ,  6-C ) :   1.4174 B(  5-C ,  7-H ) :   0.9785 B(  5-C ,  9-C ) :   1.2159 
B(  6-C ,  8-H ) :   0.9880 B(  6-C ,  9-C ) :   1.2101 B(  9-C , 10-O ) :   1.6887 
B( 11-N , 12-N ) :   1.4449 B( 11-N , 13-N ) :   0.3444 B( 12-N , 13-N ) :   1.9262 


-------
TIMINGS
-------

Total SCF time: 0 days 0 hours 0 min 25 sec 

Total time                  ....      25.704 sec
Sum of individual times     ....      24.461 sec  ( 95.2%)

Fock matrix formation       ....      22.117 sec  ( 86.0%)
  Split-RI-J                ....       2.214 sec  ( 10.0% of F)
  Chain of spheres X        ....      10.297 sec  ( 46.6% of F)
  XC integration            ....       4.430 sec  ( 20.0% of F)
    Basis function eval.    ....       0.396 sec  (  8.9% of XC)
    Density eval.           ....       0.379 sec  (  8.6% of XC)
    XC-Functional eval.     ....       0.068 sec  (  1.5% of XC)
    XC-Potential eval.      ....       0.445 sec  ( 10.0% of XC)
Diagonalization             ....       0.377 sec  (  1.5%)
Density matrix formation    ....       0.031 sec  (  0.1%)
Population analysis         ....       0.079 sec  (  0.3%)
Initial guess               ....       0.215 sec  (  0.8%)
Orbital Transformation      ....       0.000 sec  (  0.0%)
Orbital Orthonormalization  ....       0.000 sec  (  0.0%)
DIIS solution               ....       0.230 sec  (  0.9%)
SOSCF solution              ....       0.295 sec  (  1.1%)
Grid generation             ....       1.118 sec  (  4.3%)

Maximum memory used throughout the entire SCF-calculation: 78.9 MB


-------------------------------------------------------------------------------
                          DFT DISPERSION CORRECTION                            
                                                                               
                              DFTD3 V3.1  Rev 1                                
                          USING Becke-Johnson damping                          
-------------------------------------------------------------------------------
The PBE0 functional is recognized
Active option DFTDOPT                   ...         4   

molecular C6(AA) [au] = 2931.815746 


            DFT-D V3
 parameters
 s6 scaling factor         :     1.0000 
 a1 scaling factor         :     0.4145 
 s8 scaling factor         :     1.2177 
 a2 scaling factor         :     4.8593 
 ad hoc parameters k1-k3   :    16.0000     1.3333    -4.0000 

 Edisp/kcal,au: -8.451633057066  -0.013468533153 
 E6   /kcal   :  -5.229912101 
 E8   /kcal   :  -3.221720956 
 % E8         :  38.119508199 

-------------------------   ----------------
Dispersion correction           -0.013468533
-------------------------   ----------------


-------------------------   --------------------
FINAL SINGLE POINT ENERGY      -470.249449142056
-------------------------   --------------------



           ************************************************************
           *        Program running with 24 parallel MPI-processes    *
           *              working on a common directory               *
           ************************************************************
------------------------------------------------------------------------------
                         ORCA SCF GRADIENT CALCULATION
------------------------------------------------------------------------------

 ... reading COSX grid (gridx3)
Gradient of the Kohn-Sham DFT energy:
Kohn-Sham wavefunction type      ... RKS
Hartree-Fock exchange scaling    ...    0.250
Number of operators              ...    1
Number of atoms                  ...   14
Basis set dimensions             ...  334
Integral neglect threshold       ... 2.5e-11
Integral primitive cutoff        ... 2.5e-12
SHARK Integral package           ... ON

Nuc. rep. gradient       (SHARK) ... done (  0.0 sec)
HCore & Overlap gradient (SHARK) ... done (  0.0 sec)
RI-J gradient            (SHARK) ... done (  0.4 sec)
COSX-gradient                    ... done (  2.0 sec)
Exchange-correlation gradient    ... done
Dispersion correction            ... done

------------------
CARTESIAN GRADIENT
------------------

   1   C   :   -0.000055924    0.000004135    0.000029373
   2   C   :    0.000025873   -0.000111058    0.000073658
   3   C   :   -0.000008625    0.000173465    0.000154986
   4   H   :    0.000001082    0.000030171   -0.000023777
   5   H   :    0.000005075   -0.000027528   -0.000101206
   6   C   :   -0.000008143   -0.000197256   -0.000031674
   7   C   :   -0.000005361    0.000046226   -0.000252682
   8   H   :   -0.000002393    0.000036118   -0.000025126
   9   H   :   -0.000000774   -0.000025825    0.000024104
  10   C   :    0.000025139    0.000048162   -0.000070481
  11   O   :   -0.000010090   -0.000078498   -0.000144002
  12   N   :   -0.000057836    0.000138091   -0.000075871
  13   N   :    0.000204017   -0.000086105    0.000175132
  14   N   :   -0.000118709   -0.000013857    0.000024856

Difference to translation invariance:
           :   -0.0000066700   -0.0000637591   -0.0002427096

Difference to rotation invariance:
           :    0.0011006802    0.0000072258   -0.0000121127

Norm of the cartesian gradient     ...    0.0005966637
RMS gradient                       ...    0.0000920672
MAX gradient                       ...    0.0002526825

-------
TIMINGS
-------

Total SCF gradient time            ...        4.567 sec

One electron gradient       ....       0.041 sec  (  0.9%)
RI-J Coulomb gradient       ....       0.446 sec  (  9.8%)
COSX gradient               ....       2.006 sec  ( 43.9%)
XC gradient                 ....       0.791 sec  ( 17.3%)
CPCM gradient               ....       0.199 sec  (  4.4%)
   A-Matrix (El+Nuc)        ....       0.063 sec  (  1.4%)
   Potential                ....       0.136 sec  (  3.0%)

Maximum memory used throughout the entire SCFGRAD-calculation: 52.0 MB
------------------------------------------------------------------------------
                         ORCA GEOMETRY RELAXATION STEP
------------------------------------------------------------------------------

Reading the OPT-File                    .... done
Getting information on internals        .... done
Copying old internal coords+grads       .... done
Making the new internal coordinates     .... (new redundants).... done
Validating the new internal coordinates .... (new redundants).... done
Calculating the B-matrix                .... done
Calculating the G,G- and P matrices     .... done
Transforming gradient to internals      .... done
Projecting the internal gradient        .... done
[...]
     10      -0.000808   0.335919   0.177232   0.442607   0.162766  -0.193600
     11      -0.000299   0.089561   0.307059   0.495707   0.226338  -0.271576
     12       0.746507   0.000308   0.000171   0.000231  -0.000090  -0.000235
     13       0.003280  -0.294022   0.152833  -0.249868  -0.045214  -0.051645
     14       0.001271   0.231173  -0.562406   0.525902   0.147911   0.228078
     15      -0.041051   0.000778   0.000362  -0.000079   0.000453  -0.000308
     16      -0.000299  -0.174045  -0.058848   0.027710  -0.065904   0.084972
     17      -0.000090   0.016552  -0.030083  -0.011295  -0.066642  -0.036961
     18       0.093494  -0.000738  -0.000028   0.000163   0.000034  -0.000388
     19       0.000483   0.170757  -0.027206  -0.047335   0.028976   0.094114
     20       0.000188  -0.051373   0.060307   0.025387  -0.083386  -0.001022
     21       0.242669   0.000608   0.000289  -0.000143   0.000503  -0.000248
     22       0.000950  -0.325404   0.066718   0.153011   0.140087   0.256106
     23       0.000441   0.448199  -0.403453  -0.363236  -0.673900  -0.506269
     24      -0.547981  -0.001992  -0.002144   0.000582   0.002198  -0.002682
     25      -0.002091   0.444498   0.320449  -0.118994  -0.300118   0.439846
     26      -0.000797   0.282672   0.492911  -0.055287  -0.494558   0.411291
     27      -0.005086   0.000027  -0.000231  -0.000049  -0.000083   0.001278
     28      -0.000007  -0.006361   0.057621   0.005607   0.009832  -0.318797
     29      -0.000023  -0.017909  -0.013632   0.013662   0.012390   0.057938
     30       0.002577  -0.000070   0.000026   0.000058   0.000040  -0.000128
     31       0.000016   0.005445  -0.009380  -0.004596  -0.002077   0.031523
     32       0.000016   0.024575   0.003487  -0.019046  -0.009749  -0.004301
     33      -0.004758   0.000185   0.000080  -0.000399   0.000576   0.000004
     34      -0.000038  -0.028461  -0.014468   0.072930  -0.104823  -0.001561
     35      -0.000018  -0.019402  -0.008474   0.004460  -0.004104  -0.000436
     36      -0.001149  -0.000045  -0.000027  -0.000000  -0.000034   0.000038
     37       0.000004   0.013359   0.004424  -0.025225   0.032152  -0.003824
     38      -0.000002  -0.000222   0.001687   0.018589  -0.020355  -0.002245
     39       0.000158  -0.000030   0.000013   0.000222  -0.000284  -0.000028
     40       0.000006   0.005435  -0.002663  -0.038907   0.051516   0.004981
     41      -0.000009  -0.012330  -0.000217   0.043763  -0.061787  -0.002637
                 30         31         32         33         34         35    
      0       0.000901  -0.000267  -0.000600  -0.000360   0.000446   0.001765
      1      -0.212815   0.039727   0.036051   0.089600  -0.031107  -0.426146
      2       0.025188   0.050788   0.227796  -0.025829  -0.162305   0.071778
      3      -0.000233  -0.000355   0.000028  -0.000678  -0.000670  -0.001394
      4       0.045769   0.080498  -0.067496   0.046609   0.115790   0.277158
      5       0.013449  -0.008152   0.130274   0.242257   0.083853   0.086048
      6      -0.000042   0.000373  -0.000476   0.000715   0.000132  -0.000812
      7       0.015419  -0.085322   0.103569  -0.042483  -0.073085   0.236042
      8      -0.010377   0.013886   0.019504  -0.265038   0.101813  -0.132809
      9      -0.002344   0.002211  -0.000828   0.002249   0.001809   0.001108
     10       0.380163  -0.295119   0.071391  -0.407756  -0.259292  -0.090788
     11       0.417294  -0.480052   0.341384  -0.282871  -0.390719  -0.390110
     12       0.000046   0.000487  -0.000687   0.000632   0.000297  -0.001025
     13       0.216137   0.034155  -0.004261  -0.291670   0.085421   0.096108
     14      -0.550493  -0.334095   0.381259   0.344473  -0.361062   0.309000
     15      -0.000116   0.000165   0.000259   0.000658   0.000078   0.000568
     16       0.062956  -0.081943   0.036049  -0.041678  -0.065518  -0.166254
     17      -0.091967   0.109105  -0.223934  -0.242339   0.111767   0.094402
     18      -0.000626  -0.000579   0.000563  -0.000724  -0.000576   0.001088
     19       0.109380   0.093480  -0.085209   0.047986   0.089907  -0.208757
     20       0.074860   0.081280  -0.099072   0.257556   0.086902  -0.085131
     21      -0.000241   0.000272   0.000241   0.000592   0.000316   0.000730
     22      -0.064652   0.101516  -0.188607  -0.243200   0.110587  -0.036103
     23       0.289019  -0.406451   0.349111   0.273936  -0.451076  -0.296413
     24       0.001580   0.001577  -0.001033   0.001702   0.001812  -0.001188
     25      -0.218884  -0.232545   0.155438  -0.324612  -0.255363   0.133061
     26      -0.334398  -0.308710   0.168730  -0.160357  -0.364670   0.341885
     27       0.000202  -0.000536   0.000888  -0.000422   0.000887  -0.001181
     28      -0.058382   0.040041  -0.044267   0.088368  -0.051100   0.276836
     29       0.025384   0.161652  -0.321533   0.014983  -0.325535  -0.019097
     30       0.000071   0.000428  -0.000694   0.000197  -0.000407   0.000102
     31      -0.008802  -0.026764   0.037668  -0.037201   0.024888  -0.023116
     32      -0.012461  -0.144581   0.250490  -0.013426   0.144149  -0.003781
     33      -0.000156  -0.000566  -0.000503   0.000209  -0.000019  -0.000145
     34       0.032863   0.169225   0.175169  -0.051775  -0.008035   0.029553
     35      -0.000520  -0.263411  -0.336645   0.034027   0.049192   0.008343
     36       0.000086   0.000037   0.000084  -0.000035  -0.000040   0.000132
     37      -0.014174  -0.041371  -0.041558   0.008366   0.006617  -0.018646
     38      -0.005069   0.042636   0.026693   0.000065  -0.006425   0.000521
     39      -0.000017   0.000741   0.000811  -0.000075  -0.000036  -0.000104
     40       0.001160  -0.143233  -0.160812   0.015540   0.008880   0.017674
     41       0.001343   0.145634   0.163491  -0.015577  -0.005855  -0.015008
                 36         37         38         39         40         41    
      0       0.000380  -0.000189   0.000009   0.000001   0.000016   0.000000
      1       0.008799   0.045145  -0.001097   0.000169  -0.003062  -0.001617
      2      -0.207717  -0.015343  -0.001795  -0.001366  -0.000991   0.003673
      3      -0.001173   0.000056  -0.000135   0.000004  -0.000116   0.000024
      4       0.135168  -0.013254   0.048431  -0.002059   0.045537  -0.008616
      5       0.291735  -0.000221  -0.036769   0.002286  -0.039922   0.006844
      6      -0.000399   0.000037   0.000026   0.000208  -0.000082  -0.000354
      7      -0.066466  -0.005243  -0.005469  -0.041426   0.015730   0.068353
      8       0.346094  -0.003807  -0.000752  -0.012454   0.006336   0.026389
      9       0.002006   0.000101   0.001490  -0.000073   0.001392  -0.000258
     10      -0.343434  -0.017867  -0.557732   0.027596  -0.525350   0.096408
     11      -0.294099   0.012797   0.450562  -0.022636   0.430471  -0.078009
     12      -0.000149   0.000031  -0.000315  -0.002493   0.000930   0.003992
     13       0.197948  -0.004379   0.061655   0.486021  -0.180770  -0.776549
     14      -0.383599  -0.002679   0.021531   0.175443  -0.067344  -0.286299
     15       0.000611  -0.000032   0.000277  -0.000043  -0.000298   0.000064
     16      -0.008737   0.000762  -0.054917   0.008430   0.057725  -0.012774
     17      -0.291321   0.011170  -0.017743   0.003076   0.022679  -0.004483
     18       0.000849  -0.000062  -0.000013  -0.000158  -0.000008  -0.000088
     19      -0.069436   0.009590   0.004628   0.056323   0.003916   0.034295
     20      -0.273424   0.013524  -0.003608  -0.045008  -0.004542  -0.031408
     21       0.000499   0.000009  -0.003275   0.000483   0.003344  -0.000736
     22      -0.192647  -0.007628   0.647215  -0.094863  -0.660284   0.145530
     23       0.198170   0.005545   0.224467  -0.034275  -0.231887   0.050304
     24      -0.001181   0.000006   0.000160   0.001808   0.000126   0.001097
     25       0.237914   0.001873  -0.056968  -0.655545  -0.047341  -0.400110
     26       0.083273  -0.008522   0.045061   0.533516   0.040356   0.328553
     27      -0.000431   0.000082   0.000002   0.000010   0.000002   0.000012
     28       0.015836  -0.006125   0.000359  -0.001666  -0.001599  -0.001655
     29       0.180700  -0.023297  -0.001848  -0.001683   0.002652  -0.002591
     30       0.000075  -0.000045  -0.000001  -0.000000   0.000001  -0.000003
     31      -0.003353   0.002794   0.000066   0.000041   0.000048   0.000255
     32      -0.028003   0.015194   0.000113   0.000235  -0.000599   0.000778
     33      -0.000000  -0.000363  -0.000001  -0.000000  -0.000001  -0.000001
     34       0.002164   0.124410   0.000118   0.000055   0.000171   0.000272
     35       0.006952  -0.185086   0.000021   0.000003   0.000300  -0.000505
     36      -0.000056   0.002582  -0.000001   0.000001  -0.000003   0.000003
     37      -0.004251  -0.521099   0.000080  -0.000128   0.000494  -0.000454
     38       0.014076   0.601933   0.000017   0.000244  -0.000471   0.000171
     39       0.000026  -0.002084   0.000001  -0.000000   0.000002  -0.000002
     40       0.000125   0.369037  -0.000135   0.000114  -0.000378   0.000285
     41      -0.000028  -0.419302   0.000071  -0.000147   0.000330  -0.000251


-----------
IR SPECTRUM
-----------

 Mode   freq       eps      Int      T**2         TX        TY        TZ
       cm**-1   L/(mol*cm) km/mol    a.u.
----------------------------------------------------------------------------
  6:     61.49   0.000620    3.13  0.003148  ( 0.056110  0.000314  0.000009)
  7:    135.06   0.000518    2.62  0.001196  ( 0.000019 -0.032107 -0.012864)
  8:    148.87   0.001018    5.15  0.002134  ( 0.046198  0.000126  0.000092)
  9:    336.49   0.000257    1.30  0.000239  ( 0.015442  0.000212 -0.000174)
 10:    346.07   0.001327    6.70  0.001196  ( 0.000131 -0.023284  0.025577)
 11:    431.92   0.005419   27.38  0.003915  ( 0.000013 -0.014401  0.060890)
 12:    433.78   0.000001    0.01  0.000001  ( 0.000017 -0.000184  0.000903)
 13:    472.75   0.000872    4.41  0.000576  ( 0.000126 -0.018514 -0.015266)
 14:    511.69   0.007134   36.05  0.004351  ( 0.065959  0.000278  0.000182)
 15:    553.12   0.002283   11.54  0.001288  ( 0.035889  0.000188  0.000309)
 16:    643.45   0.000345    1.74  0.000167  (-0.000009  0.002717 -0.012649)
 17:    659.35   0.025353  128.12  0.011999  (-0.000137 -0.013093  0.108756)
 18:    728.01   0.001148    5.80  0.000492  ( 0.022186  0.000076  0.000035)
 19:    802.79   0.000064    0.32  0.000025  (-0.004980  0.000111 -0.000044)
 20:    809.39   0.005254   26.55  0.002026  ( 0.000278 -0.044931  0.002641)
 21:    850.96   0.023511  118.82  0.008622  ( 0.092854  0.000361  0.000135)
 22:    856.31   0.000447    2.26  0.000163  (-0.000184 -0.012584 -0.002156)
 23:    939.14   0.000362    1.83  0.000120  (-0.010966 -0.000036  0.000012)
 24:    954.35   0.000133    0.67  0.000044  ( 0.006601  0.000030 -0.000041)
 25:   1002.30   0.003373   17.05  0.001050  ( 0.000085 -0.003257 -0.032242)
 26:   1110.06   0.011822   59.74  0.003323  (-0.000170  0.049176 -0.030084)
 27:   1167.38   0.008831   44.63  0.002361  (-0.000037 -0.000981  0.048577)
 28:   1182.15   0.007213   36.45  0.001904  (-0.000191  0.020503  0.038520)
 29:   1272.78   0.001557    7.87  0.000382  (-0.000089  0.017969  0.007667)
 30:   1325.36   0.006849   34.61  0.001613  (-0.000139  0.025993  0.030610)
 31:   1383.87   0.053621  270.98  0.012092  (-0.000007 -0.025666  0.106924)
 32:   1418.37   0.028981  146.46  0.006376  ( 0.000336 -0.029424 -0.074233)
 33:   1469.05   0.010470   52.91  0.002224  (-0.000213  0.046744 -0.006249)
 34:   1538.35   0.236346  1194.40  0.047944  ( 0.000472 -0.018394 -0.218188)
 35:   1578.96   0.008787   44.41  0.001737  (-0.000155  0.025357  0.033071)
 36:   1647.04   0.071657  362.13  0.013577  (-0.000232  0.005682  0.116381)
 37:   2246.72   0.471703  2383.79  0.065518  ( 0.000356 -0.119956  0.226116)
 38:   3160.47   0.006557   33.14  0.000647  ( 0.000081 -0.008245 -0.024072)
 39:   3164.93   0.006040   30.52  0.000596  ( 0.000011  0.007642 -0.023175)
 40:   3178.14   0.006920   34.97  0.000679  (-0.000113  0.025815  0.003609)
 41:   3185.03   0.003845   19.43  0.000377  (-0.000076  0.018603 -0.005531)

* The epsilon (eps) is given for a Dirac delta lineshape.
** The dipole moment derivative (T) already includes vibrational overlap.

The first frequency considered to be a vibration is 6
The total number of vibrations considered is 36


--------------------------
THERMOCHEMISTRY AT 298.15K
--------------------------

Temperature         ... 298.15 K
Pressure            ... 1.00 atm
Total Mass          ... 134.12 AMU

Throughout the following assumptions are being made:
  (1) The electronic state is orbitally nondegenerate
  (2) There are no thermally accessible electronically excited states
  (3) Hindered rotations indicated by low frequency modes are not
      treated as such but are treated as vibrations and this may
      cause some error
  (4) All equations used are the standard statistical mechanics
      equations for an ideal gas
  (5) All vibrations are strictly harmonic

freq.      61.49  E(vib)   ...       0.51 
freq.     135.06  E(vib)   ...       0.42 
freq.     148.87  E(vib)   ...       0.40 
freq.     336.49  E(vib)   ...       0.24 
freq.     346.07  E(vib)   ...       0.23 
freq.     431.92  E(vib)   ...       0.18 
freq.     433.78  E(vib)   ...       0.17 
freq.     472.75  E(vib)   ...       0.15 
freq.     511.69  E(vib)   ...       0.14 
freq.     553.12  E(vib)   ...       0.12 
freq.     643.45  E(vib)   ...       0.09 
freq.     659.35  E(vib)   ...       0.08 
freq.     728.01  E(vib)   ...       0.06 
freq.     802.79  E(vib)   ...       0.05 
freq.     809.39  E(vib)   ...       0.05 
freq.     850.96  E(vib)   ...       0.04 
freq.     856.31  E(vib)   ...       0.04 
freq.     939.14  E(vib)   ...       0.03 
freq.     954.35  E(vib)   ...       0.03 
freq.    1002.30  E(vib)   ...       0.02 
freq.    1110.06  E(vib)   ...       0.02 
freq.    1167.38  E(vib)   ...       0.01 
freq.    1182.15  E(vib)   ...       0.01 
freq.    1272.78  E(vib)   ...       0.01 
freq.    1325.36  E(vib)   ...       0.01 
freq.    1383.87  E(vib)   ...       0.00 
freq.    1418.37  E(vib)   ...       0.00 
freq.    1469.05  E(vib)   ...       0.00 
freq.    1538.35  E(vib)   ...       0.00 
freq.    1578.96  E(vib)   ...       0.00 
freq.    1647.04  E(vib)   ...       0.00 
freq.    2246.72  E(vib)   ...       0.00 
freq.    3160.47  E(vib)   ...       0.00 
freq.    3164.93  E(vib)   ...       0.00 
freq.    3178.14  E(vib)   ...       0.00 
freq.    3185.03  E(vib)   ...       0.00 

------------
INNER ENERGY
------------

The inner energy is: U= E(el) + E(ZPE) + E(vib) + E(rot) + E(trans)
    E(el)   - is the total energy from the electronic structure calculation
              = E(kin-el) + E(nuc-el) + E(el-el) + E(nuc-nuc)
    E(ZPE)  - the the zero temperature vibrational energy from the frequency calculation
    E(vib)  - the the finite temperature correction to E(ZPE) due to population
              of excited vibrational states
    E(rot)  - is the rotational thermal energy
    E(trans)- is the translational thermal energy

Summary of contributions to the inner energy U:
Electronic energy                ...   -470.24944965 Eh
Zero point energy                ...      0.09501313 Eh      59.62 kcal/mol
Thermal vibrational correction   ...      0.00496734 Eh       3.12 kcal/mol
Thermal rotational correction    ...      0.00141627 Eh       0.89 kcal/mol
Thermal translational correction ...      0.00141627 Eh       0.89 kcal/mol
-----------------------------------------------------------------------
Total thermal energy                   -470.14663663 Eh


Summary of corrections to the electronic energy:
(perhaps to be used in another calculation)
Total thermal correction                  0.00779989 Eh       4.89 kcal/mol
Non-thermal (ZPE) correction              0.09501313 Eh      59.62 kcal/mol
-----------------------------------------------------------------------
Total correction                          0.10281302 Eh      64.52 kcal/mol


--------
ENTHALPY
--------

The enthalpy is H = U + kB*T
                kB is Boltzmann's constant
Total free energy                 ...   -470.14663663 Eh 
Thermal Enthalpy correction       ...      0.00094421 Eh       0.59 kcal/mol
-----------------------------------------------------------------------
Total Enthalpy                    ...   -470.14569242 Eh


Note: Only C1 symmetry has been detected, increase convergence thresholds 
      if your molecule has a higher symmetry. Symmetry factor of 1.0 is   
      used for the rotational entropy correction. 
 

Note: Rotational entropy computed according to Herzberg 
Infrared and Raman Spectra, Chapter V,1, Van Nostrand Reinhold, 1945 
Point Group:  C1, Symmetry Number:   1  
Rotational constants in cm-1:     0.153933     0.025096     0.021578 

Vibrational entropy computed according to the QRRHO of S. Grimme
Chem.Eur.J. 2012 18 9955


-------
ENTROPY
-------

The entropy contributions are T*S = T*(S(el)+S(vib)+S(rot)+S(trans))
     S(el)   - electronic entropy
     S(vib)  - vibrational entropy
     S(rot)  - rotational entropy
     S(trans)- translational entropy
The entropies will be listed as multiplied by the temperature to get
units of energy

Electronic entropy                ...      0.00000000 Eh      0.00 kcal/mol
Vibrational entropy               ...      0.00822111 Eh      5.16 kcal/mol
Rotational entropy                ...      0.01394485 Eh      8.75 kcal/mol
Translational entropy             ...      0.01928699 Eh     12.10 kcal/mol
-----------------------------------------------------------------------
Final entropy term                ...      0.04145294 Eh     26.01 kcal/mol

In case the symmetry of your molecule has not been determined correctly
or in case you have a reason to use a different symmetry number we print 
out the resulting rotational entropy values for sn=1,12 :
 --------------------------------------------------------
|  sn= 1 | S(rot)=       0.01394485 Eh      8.75 kcal/mol|
|  sn= 2 | S(rot)=       0.01329039 Eh      8.34 kcal/mol|
|  sn= 3 | S(rot)=       0.01290756 Eh      8.10 kcal/mol|
|  sn= 4 | S(rot)=       0.01263593 Eh      7.93 kcal/mol|
|  sn= 5 | S(rot)=       0.01242525 Eh      7.80 kcal/mol|
|  sn= 6 | S(rot)=       0.01225310 Eh      7.69 kcal/mol|
|  sn= 7 | S(rot)=       0.01210756 Eh      7.60 kcal/mol|
|  sn= 8 | S(rot)=       0.01198148 Eh      7.52 kcal/mol|
|  sn= 9 | S(rot)=       0.01187027 Eh      7.45 kcal/mol|
|  sn=10 | S(rot)=       0.01177079 Eh      7.39 kcal/mol|
|  sn=11 | S(rot)=       0.01168080 Eh      7.33 kcal/mol|
|  sn=12 | S(rot)=       0.01159865 Eh      7.28 kcal/mol|
 --------------------------------------------------------


-------------------
GIBBS FREE ENERGY
-------------------

The Gibbs free energy is G = H - T*S

Total enthalpy                    ...   -470.14569242 Eh 
Total entropy correction          ...     -0.04145294 Eh    -26.01 kcal/mol
-----------------------------------------------------------------------
Final Gibbs free energy         ...   -470.18714537 Eh

For completeness - the Gibbs free energy minus the electronic energy
G-E(el)                           ...      0.06230429 Eh     39.10 kcal/mol


Timings for individual modules:

Sum of individual times         ...      250.939 sec (=   4.182 min)
GTO integral calculation        ...        3.685 sec (=   0.061 min)   1.5 %
SCF iterations                  ...       55.519 sec (=   0.925 min)  22.1 %
SCF Gradient evaluation         ...       10.623 sec (=   0.177 min)   4.2 %
Geometry relaxation             ...        0.167 sec (=   0.003 min)   0.1 %
Analytical frequency calculation...      180.946 sec (=   3.016 min)  72.1 %
                             ****ORCA TERMINATED NORMALLY****
TOTAL RUN TIME: 0 days 0 hours 4 minutes 17 seconds 84 msec
