
                                 *****************
                                 * O   R   C   A *
                                 *****************

                                            #,                                       
                                            ###                                      
                                            ####                                     
                                            #####                                    
                                            ######                                   
                                           ########,                                 
                                     ,,################,,,,,                         
                               ,,#################################,,                 
                          ,,##########################################,,             
                       ,#########################################, ''#####,          
                    ,#############################################,,   '####,        
                  ,##################################################,,,,####,       
                ,###########''''           ''''###############################       
              ,#####''   ,,,,##########,,,,          '''####'''          '####       
            ,##' ,,,,###########################,,,                        '##       
           ' ,,###''''                  '''############,,,                           
         ,,##''                                '''############,,,,        ,,,,,,###''
      ,#''                                            '''#######################'''  
     '                                                          ''''####''''         
             ,#######,   #######,   ,#######,      ##                                
            ,#'     '#,  ##    ##  ,#'     '#,    #''#        ######   ,####,        
            ##       ##  ##   ,#'  ##            #'  '#       #        #'  '#        
            ##       ##  #######   ##           ,######,      #####,   #    #        
            '#,     ,#'  ##    ##  '#,     ,#' ,#      #,         ##   #,  ,#        
             '#######'   ##     ##  '#######'  #'      '#     #####' # '####'        



                  #######################################################
                  #                        -***-                        #
                  #          Department of theory and spectroscopy      #
                  #    Directorship and core code : Frank Neese         #
                  #        Max Planck Institute fuer Kohlenforschung    #
                  #                Kaiser Wilhelm Platz 1               #
                  #                 D-45470 Muelheim/Ruhr               #
                  #                      Germany                        #
                  #                                                     #
                  #                  All rights reserved                #
                  #                        -***-                        #
                  #######################################################


                         Program Version 5.0.4 -  RELEASE  -


 With contributions from (in alphabetic order):
   Daniel Aravena         : Magnetic Suceptibility
   Michael Atanasov       : Ab Initio Ligand Field Theory (pilot matlab implementation)
   Alexander A. Auer      : GIAO ZORA, VPT2 properties, NMR spectrum
   Ute Becker             : Parallelization
   Giovanni Bistoni       : ED, misc. LED, open-shell LED, HFLD
   Martin Brehm           : Molecular dynamics
   Dmytro Bykov           : SCF Hessian
   Vijay G. Chilkuri      : MRCI spin determinant printing, contributions to CSF-ICE
   Dipayan Datta          : RHF DLPNO-CCSD density
   Achintya Kumar Dutta   : EOM-CC, STEOM-CC
   Dmitry Ganyushin       : Spin-Orbit,Spin-Spin,Magnetic field MRCI
   Miquel Garcia          : C-PCM and meta-GGA Hessian, CC/C-PCM, Gaussian charge scheme
   Yang Guo               : DLPNO-NEVPT2, F12-NEVPT2, CIM, IAO-localization
   Andreas Hansen         : Spin unrestricted coupled pair/coupled cluster methods
   Benjamin Helmich-Paris : MC-RPA, TRAH-SCF, COSX integrals
   Lee Huntington         : MR-EOM, pCC
   Robert Izsak           : Overlap fitted RIJCOSX, COSX-SCS-MP3, EOM
   Marcus Kettner         : VPT2
   Christian Kollmar      : KDIIS, OOCD, Brueckner-CCSD(T), CCSD density, CASPT2, CASPT2-K
   Simone Kossmann        : Meta GGA functionals, TD-DFT gradient, OOMP2, MP2 Hessian
   Martin Krupicka        : Initial AUTO-CI
   Lucas Lang             : DCDCAS
   Marvin Lechner         : AUTO-CI (C++ implementation), FIC-MRCC
   Dagmar Lenk            : GEPOL surface, SMD
   Dimitrios Liakos       : Extrapolation schemes; Compound Job, initial MDCI parallelization
   Dimitrios Manganas     : Further ROCIS development; embedding schemes
   Dimitrios Pantazis     : SARC Basis sets
   Anastasios Papadopoulos: AUTO-CI, single reference methods and gradients
   Taras Petrenko         : DFT Hessian,TD-DFT gradient, ASA, ECA, R-Raman, ABS, FL, XAS/XES, NRVS
   Peter Pinski           : DLPNO-MP2, DLPNO-MP2 Gradient
   Christoph Reimann      : Effective Core Potentials
   Marius Retegan         : Local ZFS, SOC
   Christoph Riplinger    : Optimizer, TS searches, QM/MM, DLPNO-CCSD(T), (RO)-DLPNO pert. Triples
   Tobias Risthaus        : Range-separated hybrids, TD-DFT gradient, RPA, STAB
   Michael Roemelt        : Original ROCIS implementation
   Masaaki Saitow         : Open-shell DLPNO-CCSD energy and density
   Barbara Sandhoefer     : DKH picture change effects
   Avijit Sen             : IP-ROCIS
   Kantharuban Sivalingam : CASSCF convergence, NEVPT2, FIC-MRCI
   Bernardo de Souza      : ESD, SOC TD-DFT
   Georgi Stoychev        : AutoAux, RI-MP2 NMR, DLPNO-MP2 response
   Willem Van den Heuvel  : Paramagnetic NMR
   Boris Wezisla          : Elementary symmetry handling
   Frank Wennmohs         : Technical directorship


 We gratefully acknowledge several colleagues who have allowed us to
 interface, adapt or use parts of their codes:
   Stefan Grimme, W. Hujo, H. Kruse, P. Pracht,  : VdW corrections, initial TS optimization,
                  C. Bannwarth, S. Ehlert          DFT functionals, gCP, sTDA/sTD-DF
   Ed Valeev, F. Pavosevic, A. Kumar             : LibInt (2-el integral package), F12 methods
   Garnet Chan, S. Sharma, J. Yang, R. Olivares  : DMRG
   Ulf Ekstrom                                   : XCFun DFT Library
   Mihaly Kallay                                 : mrcc  (arbitrary order and MRCC methods)
   Jiri Pittner, Ondrej Demel                    : Mk-CCSD
   Frank Weinhold                                : gennbo (NPA and NBO analysis)
   Christopher J. Cramer and Donald G. Truhlar   : smd solvation model
   Lars Goerigk                                  : TD-DFT with DH, B97 family of functionals
   V. Asgeirsson, H. Jonsson                     : NEB implementation
   FAccTs GmbH                                   : IRC, NEB, NEB-TS, DLPNO-Multilevel, CI-OPT
                                                   MM, QMMM, 2- and 3-layer-ONIOM, Crystal-QMMM,
                                                   LR-CPCM, SF, NACMEs, symmetry and pop. for TD-DFT,
                                                   nearIR, NL-DFT gradient (VV10), updates on ESD,
                                                   ML-optimized integration grids
   S Lehtola, MJT Oliveira, MAL Marques          : LibXC Library
   Liviu Ungur et al                             : ANISO software


 Your calculation uses the libint2 library for the computation of 2-el integrals
 For citations please refer to: http://libint.valeyev.net

 Your ORCA version has been built with support for libXC version: 5.1.0
 For citations please refer to: https://tddft.org/programs/libxc/

 This ORCA versions uses:
   CBLAS   interface :  Fast vector & matrix operations
   LAPACKE interface :  Fast linear algebra routines
   SCALAPACK package :  Parallel linear algebra routines
   Shared memory     :  Shared parallel matrices
   BLAS/LAPACK       :  OpenBLAS 0.3.15  USE64BITINT DYNAMIC_ARCH NO_AFFINITY Haswell SINGLE_THREADED
        Core in use  :  Haswell
   Copyright (c) 2011-2014, The OpenBLAS Project


Your calculation utilizes the atom-pairwise dispersion correction
with the Becke-Johnson damping scheme (D3BJ)
Cite in your paper:
S.Grimme, S.Ehrlich, L.Goerigk, J Comput Chem, (2011), 32, 1456–1465 
S.Grimme, J.Antony, S.Ehrlich and H.Krieg, J.Chem.Phys., 132, (2010), 154104 
   

================================================================================

----- Orbital basis set information -----
Your calculation utilizes the basis: def2-TZVP
   F. Weigend and R. Ahlrichs, Phys. Chem. Chem. Phys. 7, 3297 (2005).

----- AuxJ basis set information -----
Your calculation utilizes the auxiliary basis: def2/J
   F. Weigend, Phys. Chem. Chem. Phys. 8, 1057 (2006).

================================================================================
                                        WARNINGS
                       Please study these warnings very carefully!
================================================================================


WARNING: Geometry Optimization
  ===> : Switching off AutoStart
         For restart on a previous wavefunction, please use MOREAD

INFO   : the flag for use of the SHARK integral package has been found!

================================================================================
                                       INPUT FILE
================================================================================
NAME = N3-PhenOH/N3-PhenOH.inp
|  1> %pal nprocs 24 end
|  2> %maxcore 3500
|  3> ! PBE0 D3BJ def2-TZVP TightSCF OPT FREQ TightOpt
|  4> ! CPCM(dmso)
|  5> %scf
|  6> MaxIter 800
|  7> end
|  8> %geom
|  9> MaxIter 800
| 10> MaxStep 0.2
| 11> end
| 12> *xyz 0 1
| 13> 
| 14> C      -0.07703200     -0.84030700     -1.67760500
| 15> C       0.11397100      0.44003600     -1.16970400
| 16> C      -0.21161500     -1.91459400     -0.80418300
| 17> H       0.21985200      1.28998000     -1.83494800
| 18> H      -0.36046100     -2.90992400     -1.20597900
| 19> C       0.16993900      0.64109400      0.19972400
| 20> C      -0.15583900     -1.71423500      0.56214600
| 21> H       0.31841800      1.64099400      0.59463500
| 22> H      -0.26029800     -2.54860900      1.24583900
| 23> C       0.03598600     -0.43370600      1.07205700
| 24> O       0.08391200     -0.29029700      2.41840000
| 25> H       0.22017100      0.63737900      2.64330300
| 26> N      -0.14768100     -1.13793100     -3.05892600
| 27> N      -0.02453400     -0.22575400     -3.85871500
| 28> N       0.07521100      0.53325500     -4.68400000
| 29> *
| 30> 
| 31>                          ****END OF INPUT****
================================================================================

                       *****************************
                       * Geometry Optimization Run *
                       *****************************

Geometry optimization settings:
Update method            Update   .... BFGS
Choice of coordinates    CoordSys .... Z-matrix Internals
Initial Hessian          InHess   .... Almoef's Model

Convergence Tolerances:
Energy Change            TolE     ....  1.0000e-06 Eh
Max. Gradient            TolMAXG  ....  1.0000e-04 Eh/bohr
RMS Gradient             TolRMSG  ....  3.0000e-05 Eh/bohr
Max. Displacement        TolMAXD  ....  1.0000e-03 bohr
RMS Displacement         TolRMSD  ....  6.0000e-04 bohr
Strict Convergence                ....  False
------------------------------------------------------------------------------
                        ORCA OPTIMIZATION COORDINATE SETUP
------------------------------------------------------------------------------

The optimization will be done in new redundant internal coordinates
Making redundant internal coordinates   ...  (new redundants) done
Evaluating the initial hessian          ...  (Almloef) done
Evaluating the coordinates              ...  done
Calculating the B-matrix                .... done
Calculating the G-matrix                .... done
Diagonalizing the G-matrix              .... done
Small eigenvalue found = 2.691e-02
The first mode is                       ....   26
The number of degrees of freedom        ....   39

    -----------------------------------------------------------------
                    Redundant Internal Coordinates


    -----------------------------------------------------------------
         Definition                    Initial Value    Approx d2E/dq
    -----------------------------------------------------------------
      1. B(C   1,C   0)                  1.3906         0.623458   
      2. B(C   2,C   0)                  1.3911         0.622349   
      3. B(H   3,C   1)                  1.0845         0.367434   
      4. B(H   4,C   2)                  1.0836         0.368612   
      5. B(C   5,C   1)                  1.3852         0.635818   
      6. B(C   6,C   2)                  1.3821         0.643272   
      7. B(H   7,C   5)                  1.0853         0.366418   
      8. B(H   8,C   6)                  1.0838         0.368455   
      9. B(C   9,C   6)                  1.3916         0.621127   
     10. B(C   9,C   5)                  1.3907         0.623145   
     11. B(O  10,C   9)                  1.3548         0.636830   
     12. B(H  11,O  10)                  0.9642         0.511947   
     13. B(N  12,C   0)                  1.4148         0.510894   
     14. B(N  13,N  12)                  1.2194         0.938040   
     15. B(N  14,N  13)                  1.1257         1.323518   
     16. A(C   1,C   0,N  12)          123.8591         0.416970   
     17. A(C   2,C   0,N  12)          116.4704         0.416838   
     18. A(C   1,C   0,C   2)          119.6705         0.434796   
     19. A(H   3,C   1,C   5)          119.2557         0.355632   
     20. A(C   0,C   1,C   5)          120.0172         0.436476   
     21. A(C   0,C   1,H   3)          120.7271         0.354450   
     22. A(H   4,C   2,C   6)          120.3487         0.356530   
     23. A(C   0,C   2,C   6)          120.3225         0.437254   
     24. A(C   0,C   2,H   4)          119.3288         0.354535   
     25. A(H   7,C   5,C   9)          119.8002         0.354254   
     26. A(C   1,C   5,C   9)          120.2669         0.436437   
     27. A(C   1,C   5,H   7)          119.9329         0.355465   
     28. A(H   8,C   6,C   9)          119.3780         0.354392   
     29. A(C   2,C   6,C   9)          120.0800         0.437099   
     30. A(C   2,C   6,H   8)          120.5420         0.356504   
     31. A(C   5,C   9,O  10)          122.5558         0.433702   
     32. A(C   5,C   9,C   6)          119.6427         0.434603   
     33. A(C   6,C   9,O  10)          117.8015         0.433449   
     34. A(C   9,O  10,H  11)          109.7933         0.370833   
     35. A(C   0,N  12,N  13)          118.5530         0.442786   
     36. A(N  12,N  13,N  14)          173.8350         0.524159   
     37. D(H   3,C   1,C   0,C   2)   -179.9327         0.026915   
     38. D(C   5,C   1,C   0,N  12)    179.9610         0.026915   
     39. D(C   5,C   1,C   0,C   2)      0.0231         0.026915   
     40. D(H   3,C   1,C   0,N  12)      0.0052         0.026915   
     41. D(H   4,C   2,C   0,N  12)      0.0442         0.026814   
     42. D(C   6,C   2,C   0,C   1)     -0.0218         0.026814   
     43. D(H   4,C   2,C   0,C   1)    179.9865         0.026814   
     44. D(C   6,C   2,C   0,N  12)   -179.9641         0.026814   
     45. D(C   9,C   5,C   1,H   3)    179.9674         0.028063   
     46. D(C   9,C   5,C   1,C   0)      0.0109         0.028063   
     47. D(H   7,C   5,C   1,H   3)     -0.0042         0.028063   
     48. D(H   7,C   5,C   1,C   0)   -179.9607         0.028063   
     49. D(C   9,C   6,C   2,C   0)     -0.0138         0.028770   
     50. D(H   8,C   6,C   2,H   4)     -0.0107         0.028770   
     51. D(H   8,C   6,C   2,C   0)    179.9977         0.028770   
     52. D(C   9,C   6,C   2,H   4)    179.9779         0.028770   
     53. D(O  10,C   9,C   6,H   8)      0.0184         0.026702   
     54. D(C   5,C   9,C   6,H   8)   -179.9636         0.026702   
     55. D(C   5,C   9,C   6,C   2)      0.0477         0.026702   
     56. D(O  10,C   9,C   5,H   7)     -0.0558         0.026887   
     57. D(O  10,C   9,C   5,C   1)    179.9726         0.026887   
     58. D(O  10,C   9,C   6,C   2)   -179.9703         0.026702   
     59. D(C   6,C   9,C   5,H   7)    179.9253         0.026887   
     60. D(C   6,C   9,C   5,C   1)     -0.0463         0.026887   
     61. D(H  11,O  10,C   9,C   6)    179.9840         0.029874   
     62. D(H  11,O  10,C   9,C   5)     -0.0345         0.029874   
     63. D(N  13,N  12,C   0,C   2)   -179.4669         0.018774   
     64. D(N  13,N  12,C   0,C   1)      0.5934         0.018774   
     65. D(N  14,N  13,N  12,C   0)    179.8872         0.074292   
    -----------------------------------------------------------------

Number of atoms                         .... 15
Number of degrees of freedom            .... 65

         *************************************************************
         *                GEOMETRY OPTIMIZATION CYCLE   1            *
         *************************************************************
---------------------------------
CARTESIAN COORDINATES (ANGSTROEM)
---------------------------------
  C     -0.077032   -0.840307   -1.677605
  C      0.113971    0.440036   -1.169704
  C     -0.211615   -1.914594   -0.804183
  H      0.219852    1.289980   -1.834948
  H     -0.360461   -2.909924   -1.205979
  C      0.169939    0.641094    0.199724
  C     -0.155839   -1.714235    0.562146
  H      0.318418    1.640994    0.594635
  H     -0.260298   -2.548609    1.245839
  C      0.035986   -0.433706    1.072057
  O      0.083912   -0.290297    2.418400
  H      0.220171    0.637379    2.643303
  N     -0.147681   -1.137931   -3.058926
  N     -0.024534   -0.225754   -3.858715
  N      0.075211    0.533255   -4.684000

----------------------------
CARTESIAN COORDINATES (A.U.)
----------------------------
  NO LB      ZA    FRAG     MASS         X           Y           Z
   0 C     6.0000    0    12.011   -0.145569   -1.587950   -3.170214
   1 C     6.0000    0    12.011    0.215374    0.831548   -2.210420
   2 C     6.0000    0    12.011   -0.399894   -3.618058   -1.519686
   3 H     1.0000    0     1.008    0.415460    2.437709   -3.467549
   4 H     1.0000    0     1.008   -0.681173   -5.498959   -2.278970
   5 C     6.0000    0    12.011    0.321138    1.211492    0.377424
   6 C     6.0000    0    12.011   -0.294493   -3.239435    1.062302
   7 H     1.0000    0     1.008    0.601723    3.101029    1.123697
   8 H     1.0000    0     1.008   -0.491892   -4.816173    2.354295
   9 C     6.0000    0    12.011    0.068004   -0.819586    2.025894
  10 O     8.0000    0    15.999    0.158571   -0.548582    4.570114
  11 H     1.0000    0     1.008    0.416063    1.204472    4.995119
  12 N     7.0000    0    14.007   -0.279077   -2.150378   -5.780532
  13 N     7.0000    0    14.007   -0.046363   -0.426613   -7.291915
  14 N     7.0000    0    14.007    0.142128    1.007706   -8.851477

--------------------------------
INTERNAL COORDINATES (ANGSTROEM)
--------------------------------
 C      0   0   0     0.000000000000     0.00000000     0.00000000
 C      1   0   0     1.390583967065     0.00000000     0.00000000
 C      1   2   0     1.391068342082   119.67053472     0.00000000
 H      2   1   3     1.084511488567   120.72710566   180.06732437
 H      3   1   2     1.083640607504   119.32880370   179.98654651
 C      2   1   3     1.385239973280   120.01720380     0.02314719
 C      3   1   2     1.382067157304   120.32253265     0.00000000
 H      6   2   1     1.085265276954   119.93285453   180.03933077
 H      7   3   1     1.083756325382   120.54199744   179.99767132
 C      6   2   1     1.390720428087   120.26693216     0.00000000
 O     10   6   2     1.354807187908   122.55576801   179.97257679
 H     11  10   6     0.964225406980   109.79334746   359.96548370
 N      1   2   3     1.414785860693   123.85908179   179.93788358
 N     13   1   2     1.219382838759   118.55297735     0.59342068
 N     14  13   1     1.125672713683   173.83498562   179.88717790

---------------------------
INTERNAL COORDINATES (A.U.)
---------------------------
 C      0   0   0     0.000000000000     0.00000000     0.00000000
 C      1   0   0     2.627822863975     0.00000000     0.00000000
 C      1   2   0     2.628738200102   119.67053472     0.00000000
 H      2   1   3     2.049429702482   120.72710566   180.06732437
 H      3   1   2     2.047783975779   119.32880370   179.98654651
 C      2   1   3     2.617724179259   120.01720380     0.02314719
 C      3   1   2     2.611728425991   120.32253265     0.00000000
 H      6   2   1     2.050854156097   119.93285453   180.03933077
 H      7   3   1     2.048002650877   120.54199744   179.99767132
 C      6   2   1     2.628080737934   120.26693216     0.00000000
 O     10   6   2     2.560214549413   122.55576801   179.97257679
 H     11  10   6     1.822121950561   109.79334746   359.96548370
 N      1   2   3     2.673557814855   123.85908179   179.93788358
 N     13   1   2     2.304299617657   118.55297735     0.59342068
 N     14  13   1     2.127213145289   173.83498562   179.88717790

---------------------
BASIS SET INFORMATION
---------------------
There are 4 groups of distinct atoms

 Group   1 Type C   : 11s6p2d1f contracted to 5s3p2d1f pattern {62111/411/11/1}
 Group   2 Type H   : 5s1p contracted to 3s1p pattern {311/1}
 Group   3 Type O   : 11s6p2d1f contracted to 5s3p2d1f pattern {62111/411/11/1}
 Group   4 Type N   : 11s6p2d1f contracted to 5s3p2d1f pattern {62111/411/11/1}

Atom   0C    basis set group =>   1
Atom   1C    basis set group =>   1
Atom   2C    basis set group =>   1
Atom   3H    basis set group =>   2
Atom   4H    basis set group =>   2
Atom   5C    basis set group =>   1
Atom   6C    basis set group =>   1
Atom   7H    basis set group =>   2
Atom   8H    basis set group =>   2
Atom   9C    basis set group =>   1
Atom  10O    basis set group =>   3
Atom  11H    basis set group =>   2
Atom  12N    basis set group =>   4
Atom  13N    basis set group =>   4
Atom  14N    basis set group =>   4
---------------------------------
AUXILIARY/J BASIS SET INFORMATION
---------------------------------
There are 4 groups of distinct atoms

 Group   1 Type C   : 12s5p4d2f1g contracted to 6s4p3d1f1g pattern {711111/2111/211/2/1}
 Group   2 Type H   : 5s2p1d contracted to 3s1p1d pattern {311/2/1}
 Group   3 Type O   : 12s5p4d2f1g contracted to 6s4p3d1f1g pattern {711111/2111/211/2/1}
 Group   4 Type N   : 12s5p4d2f1g contracted to 6s4p3d1f1g pattern {711111/2111/211/2/1}

Atom   0C    basis set group =>   1
Atom   1C    basis set group =>   1
Atom   2C    basis set group =>   1
Atom   3H    basis set group =>   2
Atom   4H    basis set group =>   2
Atom   5C    basis set group =>   1
Atom   6C    basis set group =>   1
Atom   7H    basis set group =>   2
Atom   8H    basis set group =>   2
Atom   9C    basis set group =>   1
Atom  10O    basis set group =>   3
Atom  11H    basis set group =>   2
Atom  12N    basis set group =>   4
Atom  13N    basis set group =>   4
Atom  14N    basis set group =>   4


           ************************************************************
           *        Program running with 24 parallel MPI-processes    *
           *              working on a common directory               *
           ************************************************************
------------------------------------------------------------------------------
                           ORCA GTO INTEGRAL CALCULATION
                           -- RI-GTO INTEGRALS CHOSEN --
------------------------------------------------------------------------------
------------------------------------------------------------------------------
                   ___                                                        
                  /   \      - P O W E R E D   B Y -                         
                 /     \                                                     
                 |  |  |   _    _      __       _____    __    __             
                 |  |  |  | |  | |    /  \     |  _  \  |  |  /  |          
                  \  \/   | |  | |   /    \    | | | |  |  | /  /          
                 / \  \   | |__| |  /  /\  \   | |_| |  |  |/  /          
                |  |  |   |  __  | /  /__\  \  |    /   |      \           
                |  |  |   | |  | | |   __   |  |    \   |  |\   \          
                \     /   | |  | | |  |  |  |  | |\  \  |  | \   \       
                 \___/    |_|  |_| |__|  |__|  |_| \__\ |__|  \__/        
                                                                              
                      - O R C A' S   B I G   F R I E N D -                    
                                      &                                       
                       - I N T E G R A L  F E E D E R -                       
                                                                              
 v1 FN, 2020, v2 2021                                                         
------------------------------------------------------------------------------


Reading SHARK input file N3-PhenOH/N3-PhenOH.SHARKINP.tmp ... ok
----------------------
SHARK INTEGRAL PACKAGE
----------------------

Number of atoms                             ...     15
Number of basis functions                   ...    340
Number of shells                            ...    130
Maximum angular momentum                    ...      3
Integral batch strategy                     ... SHARK/LIBINT Hybrid
RI-J (if used) integral strategy            ... SPLIT-RIJ (Revised 2003 algorithm where possible)
Printlevel                                  ...      1
Contraction scheme used                     ... SEGMENTED contraction
Coulomb Range Separation                    ... NOT USED
Exchange Range Separation                   ... NOT USED
Finite Nucleus Model                        ... NOT USED
Auxiliary Coulomb fitting basis             ... AVAILABLE
   # of basis functions in Aux-J            ...    545
   # of shells in Aux-J                     ...    175
   Maximum angular momentum in Aux-J        ...      4
Auxiliary J/K fitting basis                 ... NOT available
Auxiliary Correlation fitting basis         ... NOT available
Auxiliary 'external' fitting basis          ... NOT available
Integral threshold                          ...     2.500000e-11
Primitive cut-off                           ...     2.500000e-12
Primitive pair pre-selection threshold      ...     2.500000e-12

Calculating pre-screening integrals         ... done (  0.1 sec) Dimension = 130
Organizing shell pair data                  ... done (  0.1 sec)
Shell pair information
Total number of shell pairs                 ...      8515
Shell pairs after pre-screening             ...      7406
Total number of primitive shell pairs       ...     26800
Primitive shell pairs kept                  ...     17054
          la=0 lb=0:   1773 shell pairs
          la=1 lb=0:   2026 shell pairs
          la=1 lb=1:    589 shell pairs
          la=2 lb=0:   1114 shell pairs
          la=2 lb=1:    638 shell pairs
          la=2 lb=2:    186 shell pairs
          la=3 lb=0:    544 shell pairs
          la=3 lb=1:    314 shell pairs
          la=3 lb=2:    174 shell pairs
          la=3 lb=3:     48 shell pairs

Calculating one electron integrals          ... done (  0.0 sec)
Calculating RI/J V-Matrix + Cholesky decomp.... done (  0.1 sec)
Calculating Nuclear repulsion               ... done (  0.0 sec) ENN=    465.209281570034 Eh

SHARK setup successfully completed in   0.6 seconds

Maximum memory used throughout the entire GTOINT-calculation: 20.9 MB


           ************************************************************
           *        Program running with 24 parallel MPI-processes    *
           *              working on a common directory               *
           ************************************************************
-------------------------------------------------------------------------------
                                 ORCA SCF
-------------------------------------------------------------------------------

------------
SCF SETTINGS
------------
Hamiltonian:
 Density Functional     Method          .... DFT(GTOs)
 Exchange Functional    Exchange        .... PBE
   PBE kappa parameter   XKappa         ....  0.804000
   PBE mue parameter    XMuePBE         ....  0.219520
 Correlation Functional Correlation     .... PBE
   PBE beta parameter  CBetaPBE         ....  0.066725
 LDA part of GGA corr.  LDAOpt          .... PW91-LDA
 Gradients option       PostSCFGGA      .... off
 Hybrid DFT is turned on
   Fraction HF Exchange ScalHFX         ....  0.250000
   Scaling of DF-GGA-X  ScalDFX         ....  0.750000
   Scaling of DF-GGA-C  ScalDFC         ....  1.000000
   Scaling of DF-LDA-C  ScalLDAC        ....  1.000000
   Perturbative correction              ....  0.000000
   Density functional embedding theory  .... OFF
   NL short-range parameter             ....  6.900000
 RI-approximation to the Coulomb term is turned on
   Number of AuxJ basis functions       .... 545
   RIJ-COSX (HFX calculated with COS-X)).... on


General Settings:
 Integral files         IntName         .... N3-PhenOH/N3-PhenOH
 Hartree-Fock type      HFTyp           .... RHF
 Total Charge           Charge          ....    0
 Multiplicity           Mult            ....    1
 Number of Electrons    NEL             ....   70
 Basis Dimension        Dim             ....  340
 Nuclear Repulsion      ENuc            ....    465.2092815700 Eh

Convergence Acceleration:
 DIIS                   CNVDIIS         .... on
   Start iteration      DIISMaxIt       ....    12
   Startup error        DIISStart       ....  0.200000
   # of expansion vecs  DIISMaxEq       ....     5
   Bias factor          DIISBfac        ....   1.050
   Max. coefficient     DIISMaxC        ....  10.000
 Trust-Rad. Augm. Hess. CNVTRAH         .... auto
   Auto Start mean grad. ratio tolernc. ....  1.125000
   Auto Start start iteration           ....    20
   Auto Start num. interpolation iter.  ....    10
   Max. Number of Micro iterations      ....    16
   Max. Number of Macro iterations      .... Maxiter - #DIIS iter
   Number of Davidson start vectors     ....     2
   Converg. threshold I  (grad. norm)   ....   1.000e-05
   Converg. threshold II (energy diff.) ....   1.000e-08
   Grad. Scal. Fac. for Micro threshold ....   0.100
   Minimum threshold for Micro iter.    ....   0.010
   NR start threshold (gradient norm)   ....   0.001
   Initial trust radius                 ....   0.400
   Minimum AH scaling param. (alpha)    ....   1.000
   Maximum AH scaling param. (alpha)    .... 1000.000
   Orbital update algorithm             .... Taylor
   White noise on init. David. guess    .... on
   Maximum white noise                  ....   0.010
   Quad. conv. algorithm                .... NR
 SOSCF                  CNVSOSCF        .... on
   Start iteration      SOSCFMaxIt      ....   150
   Startup grad/error   SOSCFStart      ....  0.003300
 Level Shifting         CNVShift        .... on
   Level shift para.    LevelShift      ....    0.2500
   Turn off err/grad.   ShiftErr        ....    0.0010
 Zerner damping         CNVZerner       .... off
 Static damping         CNVDamp         .... on
   Fraction old density DampFac         ....    0.7000
   Max. Damping (<1)    DampMax         ....    0.9800
   Min. Damping (>=0)   DampMin         ....    0.0000
   Turn off err/grad.   DampErr         ....    0.1000
 Fernandez-Rico         CNVRico         .... off

SCF Procedure:
 Maximum # iterations   MaxIter         ....   800
 SCF integral mode      SCFMode         .... Direct
   Integral package                     .... SHARK and LIBINT hybrid scheme
 Reset frequency        DirectResetFreq ....    20
 Integral Threshold     Thresh          ....  2.500e-11 Eh
 Primitive CutOff       TCut            ....  2.500e-12 Eh

Convergence Tolerance:
 Convergence Check Mode ConvCheckMode   .... Total+1el-Energy
 Convergence forced     ConvForced      .... 0
 Energy Change          TolE            ....  1.000e-08 Eh
 1-El. energy change                    ....  1.000e-05 Eh
 Orbital Gradient       TolG            ....  1.000e-05
 Orbital Rotation angle TolX            ....  1.000e-05
 DIIS Error             TolErr          ....  5.000e-07


Diagonalization of the overlap matrix:
Smallest eigenvalue                        ... 9.440e-06
Time for diagonalization                   ...    0.038 sec
Threshold for overlap eigenvalues          ... 1.000e-08
Number of eigenvalues below threshold      ... 0
Time for construction of square roots      ...    0.027 sec
Total time needed                          ...    0.068 sec

Time for model grid setup =    0.111 sec

------------------------------
INITIAL GUESS: MODEL POTENTIAL
------------------------------
Loading Hartree-Fock densities                     ... done
Calculating cut-offs                               ... done
Initializing the effective Hamiltonian             ... done
Setting up the integral package (SHARK)            ... done
Starting the Coulomb interaction                   ... done (   0.1 sec)
Reading the grid                                   ... done
Mapping shells                                     ... done
Starting the XC term evaluation                    ... done (   0.0 sec)
  promolecular density results
     # of electrons  =     69.995699006
     EX              =    -59.935927089
     EC              =     -2.349063234
     EX+EC           =    -62.284990323
Transforming the Hamiltonian                       ... done (   0.0 sec)
Diagonalizing the Hamiltonian                      ... done (   0.0 sec)
Back transforming the eigenvectors                 ... done (   0.0 sec)
Now organizing SCF variables                       ... done
                      ------------------
                      INITIAL GUESS DONE (   0.3 sec)
                      ------------------
-------------------
DFT GRID GENERATION
-------------------

General Integration Accuracy     IntAcc      ... 4.388
Radial Grid Type                 RadialGrid  ... OptM3 with GC (2021)
Angular Grid (max. ang.)         AngularGrid ... 4 (Lebedev-302)
Angular grid pruning method      GridPruning ... 4 (adaptive)
Weight generation scheme         WeightScheme... Becke
Basis function cutoff            BFCut       ... 1.0000e-11
Integration weight cutoff        WCut        ... 1.0000e-14
Angular grids for H and He will be reduced by one unit
Partially contracted basis set               ... off
Rotationally invariant grid construction     ... off

Total number of grid points                  ...    76452
Total number of batches                      ...     1202
Average number of points per batch           ...       63
Average number of grid points per atom       ...     5097
Time for grid setup =    0.425 sec

--------------------
COSX GRID GENERATION
--------------------

GRIDX 1
-------
General Integration Accuracy     IntAcc      ... 3.816
Radial Grid Type                 RadialGrid  ... OptM3 with GC (2021)
Angular Grid (max. ang.)         AngularGrid ... 1 (Lebedev-50)
Angular grid pruning method      GridPruning ... 4 (adaptive)
Weight generation scheme         WeightScheme... Becke
Basis function cutoff            BFCut       ... 1.0000e-11
Integration weight cutoff        WCut        ... 1.0000e-14
Angular grids for H and He will be reduced by one unit
Partially contracted basis set               ... on
Rotationally invariant grid construction     ... off

Total number of grid points                  ...     9722
Total number of batches                      ...      158
Average number of points per batch           ...       61
Average number of grid points per atom       ...      648
UseSFitting                                  ... on

GRIDX 2
-------
General Integration Accuracy     IntAcc      ... 4.020
Radial Grid Type                 RadialGrid  ... OptM3 with GC (2021)
Angular Grid (max. ang.)         AngularGrid ... 2 (Lebedev-110)
Angular grid pruning method      GridPruning ... 4 (adaptive)
Weight generation scheme         WeightScheme... Becke
Basis function cutoff            BFCut       ... 1.0000e-11
Integration weight cutoff        WCut        ... 1.0000e-14
Angular grids for H and He will be reduced by one unit
Partially contracted basis set               ... on
Rotationally invariant grid construction     ... off

Total number of grid points                  ...    21900
Total number of batches                      ...      353
Average number of points per batch           ...       62
Average number of grid points per atom       ...     1460
UseSFitting                                  ... on

GRIDX 3
-------
General Integration Accuracy     IntAcc      ... 4.338
Radial Grid Type                 RadialGrid  ... OptM3 with GC (2021)
Angular Grid (max. ang.)         AngularGrid ... 3 (Lebedev-194)
Angular grid pruning method      GridPruning ... 4 (adaptive)
Weight generation scheme         WeightScheme... Becke
Basis function cutoff            BFCut       ... 1.0000e-11
Integration weight cutoff        WCut        ... 1.0000e-14
Angular grids for H and He will be reduced by one unit
Partially contracted basis set               ... on
Rotationally invariant grid construction     ... off

Total number of grid points                  ...    48325
Total number of batches                      ...      763
Average number of points per batch           ...       63
Average number of grid points per atom       ...     3222
UseSFitting                                  ... on

Time for X-Grid setup             =    0.607 sec


--------------------
CPCM SOLVATION MODEL
--------------------
CPCM parameters:
  Epsilon                                         ...      47.2000
  Refrac                                          ...       1.4790
  Rsolv                                           ...       1.3000
  Surface type                                    ... GAUSSIAN VDW
  Epsilon function type                           ...         CPCM
Radii:
 Radius for C  used is    3.8550 Bohr (=   2.0400 Ang.)
 Radius for H  used is    2.4944 Bohr (=   1.3200 Ang.)
 Radius for O  used is    3.4469 Bohr (=   1.8240 Ang.)
 Radius for N  used is    3.5149 Bohr (=   1.8600 Ang.)
Calculating surface                               ...        done! (  0.0s)
GEPOL surface points                              ...          888
GEPOL Volume                                      ...    1065.9278
GEPOL Surface-area                                ...     607.1384
Calculating surface distance matrix               ...        done! (  0.0s)
Performing Cholesky decomposition & store         ...        done! (  0.0s)
Overall time for CPCM initialization              ...                 0.1s
--------------
SCF ITERATIONS
--------------
ITER       Energy         Delta-E        Max-DP      RMS-DP      [F,P]     Damp
               ***  Starting incremental Fock matrix formation  ***
  0   -470.5163052943   0.000000000000 0.09748510  0.00118620  0.2143358 0.7000
  1   -470.6065380289  -0.090232734614 0.10929330  0.00118758  0.1002924 0.7000
                               ***Turning on DIIS***
  2   -470.6459570977  -0.039419068763 0.17960331  0.00231503  0.0357890 0.0000
  3   -470.7057357899  -0.059778692185 0.09727686  0.00087289  0.0508224 0.0000
  4   -470.7186693980  -0.012933608104 0.02946750  0.00032363  0.0108408 0.0000
  5   -470.7192227635  -0.000553365568 0.01191849  0.00013489  0.0047866 0.0000
                      *** Initiating the SOSCF procedure ***
                           *** Shutting down DIIS ***
                      *** Re-Reading the Fockian *** 
                      *** Removing any level shift *** 
ITER      Energy       Delta-E        Grad      Rot      Max-DP    RMS-DP
  6   -470.71928942  -0.0000666573  0.000512  0.000512  0.003882  0.000049
               *** Restarting incremental Fock matrix formation ***
  7   -470.71930529  -0.0000158689  0.000277  0.000968  0.001119  0.000025
  8   -470.71930112   0.0000041709  0.000787  0.000806  0.000679  0.000012
  9   -470.71930712  -0.0000059986  0.000050  0.000082  0.000286  0.000004
 10   -470.71930703   0.0000000840  0.000077  0.000056  0.000268  0.000002
 11   -470.71930719  -0.0000001527  0.000005  0.000014  0.000098  0.000001
 12   -470.71930719  -0.0000000049  0.000007  0.000008  0.000023  0.000000
                  ***Gradient check signals convergence***
              ***Rediagonalizing the Fockian in SOSCF/NRSCF***

               *****************************************************
               *                     SUCCESS                       *
               *           SCF CONVERGED AFTER  13 CYCLES          *
               *****************************************************

Old exchange energy                            =    -15.219922121 Eh
New exchange energy                            =    -15.219913085 Eh
Exchange energy change after final integration =      0.000009036 Eh
Total energy after final integration           =   -470.719298149 Eh
Final COS-X integration done in                =     1.730 sec

----------------
TOTAL SCF ENERGY
----------------

Total Energy       :         -470.71929815 Eh          -12808.92330 eV

Components:
Nuclear Repulsion  :          465.20928157 Eh           12658.98812 eV
Electronic Energy  :         -935.92857972 Eh          -25467.91142 eV
One Electron Energy:        -1560.06539537 Eh          -42451.53760 eV
Two Electron Energy:          624.13681565 Eh           16983.62618 eV
Max COSX asymmetry :            0.00000142 Eh               0.00004 eV
CPCM Dielectric    :           -0.01405411 Eh              -0.38243 eV

Virial components:
Potential Energy   :         -939.41612249 Eh          -25562.81228 eV
Kinetic Energy     :          468.69682434 Eh           12753.88899 eV
Virial Ratio       :            2.00431510


DFT components:
N(Alpha)           :       35.000010191073 electrons
N(Beta)            :       35.000010191073 electrons
N(Total)           :       70.000020382146 electrons
E(X)               :      -45.637364548585 Eh       
E(C)               :       -2.360335578050 Eh       
E(XC)              :      -47.997700126635 Eh       
DFET-embed. en.    :        0.000000000000 Eh       
CPCM Solvation Model Properties:
Surface-charge          :           -0.02064139
Charge-correction       :            0.00022839 Eh               0.00621 eV
Free-energy (cav+disp)  :  This term is not implemented in the current solvation scheme

---------------
SCF CONVERGENCE
---------------

  Last Energy change         ...    5.5857e-09  Tolerance :   1.0000e-08
  Last MAX-Density change    ...    1.1102e-15  Tolerance :   1.0000e-07
  Last RMS-Density change    ...    1.8055e-17  Tolerance :   5.0000e-09
  Last Orbital Gradient      ...    5.3888e-07  Tolerance :   1.0000e-05
  Last Orbital Rotation      ...    1.5870e-06  Tolerance :   1.0000e-05

             **** THE GBW FILE WAS UPDATED (N3-PhenOH/N3-PhenOH.gbw) ****
             **** DENSITY N3-PhenOH/N3-PhenOH.scfp WAS UPDATED ****
             **** ENERGY FILE WAS UPDATED (N3-PhenOH/N3-PhenOH.en.tmp) ****
             **** THE GBW FILE WAS UPDATED (N3-PhenOH/N3-PhenOH.gbw) ****
             **** DENSITY N3-PhenOH/N3-PhenOH.scfp WAS UPDATED ****
----------------
ORBITAL ENERGIES
----------------

  NO   OCC          E(Eh)            E(eV) 
   0   2.0000     -19.239537      -523.5344 
   1   2.0000     -14.564922      -396.3317 
   2   2.0000     -14.461023      -393.5044 
   3   2.0000     -14.444502      -393.0549 
   4   2.0000     -10.291547      -280.0472 
   5   2.0000     -10.278329      -279.6876 
   6   2.0000     -10.238116      -278.5933 
   7   2.0000     -10.235075      -278.5105 
   8   2.0000     -10.232664      -278.4450 
   9   2.0000     -10.229612      -278.3619 
  10   2.0000      -1.191279       -32.4163 
  11   2.0000      -1.097939       -29.8764 
  12   2.0000      -1.032040       -28.0832 
  13   2.0000      -0.894098       -24.3296 
  14   2.0000      -0.792508       -21.5652 
  15   2.0000      -0.785401       -21.3718 
  16   2.0000      -0.678001       -18.4493 
  17   2.0000      -0.656733       -17.8706 
  18   2.0000      -0.588800       -16.0221 
  19   2.0000      -0.571026       -15.5384 
  20   2.0000      -0.547491       -14.8980 
  21   2.0000      -0.546791       -14.8789 
  22   2.0000      -0.497759       -13.5447 
  23   2.0000      -0.484144       -13.1742 
  24   2.0000      -0.465302       -12.6615 
  25   2.0000      -0.445372       -12.1192 
  26   2.0000      -0.440206       -11.9786 
  27   2.0000      -0.428497       -11.6600 
  28   2.0000      -0.409254       -11.1364 
  29   2.0000      -0.387486       -10.5440 
  30   2.0000      -0.363634        -9.8950 
  31   2.0000      -0.332537        -9.0488 
  32   2.0000      -0.311469        -8.4755 
  33   2.0000      -0.280738        -7.6393 
  34   2.0000      -0.225584        -6.1385 
  35   0.0000      -0.029554        -0.8042 
  36   0.0000      -0.025066        -0.6821 
  37   0.0000      -0.014861        -0.4044 
  38   0.0000       0.048371         1.3162 
  39   0.0000       0.062223         1.6932 
  40   0.0000       0.075594         2.0570 
  41   0.0000       0.093364         2.5406 
  42   0.0000       0.099074         2.6959 
  43   0.0000       0.129744         3.5305 
  44   0.0000       0.144631         3.9356 
  45   0.0000       0.148893         4.0516 
  46   0.0000       0.157178         4.2770 
  47   0.0000       0.195798         5.3279 
  48   0.0000       0.201755         5.4900 
  49   0.0000       0.208070         5.6619 
  50   0.0000       0.215098         5.8531 
  51   0.0000       0.230365         6.2685 
  52   0.0000       0.248237         6.7549 
  53   0.0000       0.250140         6.8067 
  54   0.0000       0.261890         7.1264 
  55   0.0000       0.267302         7.2737 
  56   0.0000       0.283491         7.7142 
  57   0.0000       0.297261         8.0889 
  58   0.0000       0.311164         8.4672 
  59   0.0000       0.313133         8.5208 
  60   0.0000       0.315413         8.5828 
  61   0.0000       0.329319         8.9612 
  62   0.0000       0.331565         9.0224 
  63   0.0000       0.346635         9.4324 
  64   0.0000       0.358991         9.7686 
  65   0.0000       0.361073         9.8253 
  66   0.0000       0.371802        10.1172 
  67   0.0000       0.383121        10.4252 
  68   0.0000       0.394596        10.7375 
  69   0.0000       0.410849        11.1798 
  70   0.0000       0.414154        11.2697 
  71   0.0000       0.425875        11.5886 
  72   0.0000       0.426014        11.5924 
  73   0.0000       0.434230        11.8160 
  74   0.0000       0.440717        11.9925 
  75   0.0000       0.466834        12.7032 
  76   0.0000       0.467929        12.7330 
  77   0.0000       0.497974        13.5506 
  78   0.0000       0.500525        13.6200 
  79   0.0000       0.506877        13.7928 
  80   0.0000       0.513010        13.9597 
  81   0.0000       0.513071        13.9614 
  82   0.0000       0.532646        14.4940 
  83   0.0000       0.549890        14.9633 
  84   0.0000       0.565218        15.3804 
  85   0.0000       0.573802        15.6139 
  86   0.0000       0.592770        16.1301 
  87   0.0000       0.616606        16.7787 
  88   0.0000       0.650329        17.6964 
  89   0.0000       0.658079        17.9072 
  90   0.0000       0.664068        18.0702 
  91   0.0000       0.677943        18.4478 
  92   0.0000       0.679866        18.5001 
  93   0.0000       0.710806        19.3420 
  94   0.0000       0.737758        20.0754 
  95   0.0000       0.741519        20.1778 
  96   0.0000       0.750152        20.4127 
  97   0.0000       0.767064        20.8729 
  98   0.0000       0.773739        21.0545 
  99   0.0000       0.796609        21.6768 
 100   0.0000       0.815004        22.1774 
 101   0.0000       0.816050        22.2059 
 102   0.0000       0.842557        22.9271 
 103   0.0000       0.845082        22.9959 
 104   0.0000       0.850166        23.1342 
 105   0.0000       0.864404        23.5216 
 106   0.0000       0.881388        23.9838 
 107   0.0000       0.882818        24.0227 
 108   0.0000       0.916139        24.9294 
 109   0.0000       0.963792        26.2261 
 110   0.0000       0.998217        27.1629 
 111   0.0000       1.000225        27.2175 
 112   0.0000       1.015106        27.6224 
 113   0.0000       1.031897        28.0794 
 114   0.0000       1.054804        28.7027 
 115   0.0000       1.056941        28.7608 
 116   0.0000       1.068995        29.0888 
 117   0.0000       1.133720        30.8501 
 118   0.0000       1.160750        31.5856 
 119   0.0000       1.173015        31.9194 
 120   0.0000       1.188249        32.3339 
 121   0.0000       1.202195        32.7134 
 122   0.0000       1.213026        33.0081 
 123   0.0000       1.224995        33.3338 
 124   0.0000       1.248814        33.9820 
 125   0.0000       1.260541        34.3011 
 126   0.0000       1.279216        34.8092 
 127   0.0000       1.298529        35.3348 
 128   0.0000       1.325993        36.0821 
 129   0.0000       1.345948        36.6251 
 130   0.0000       1.362382        37.0723 
 131   0.0000       1.398934        38.0669 
 132   0.0000       1.400159        38.1003 
 133   0.0000       1.435896        39.0727 
 134   0.0000       1.460061        39.7303 
 135   0.0000       1.468850        39.9694 
 136   0.0000       1.471083        40.0302 
 137   0.0000       1.495725        40.7007 
 138   0.0000       1.499177        40.7947 
 139   0.0000       1.506043        40.9815 
 140   0.0000       1.549569        42.1659 
 141   0.0000       1.551454        42.2172 
 142   0.0000       1.566933        42.6384 
 143   0.0000       1.603043        43.6210 
 144   0.0000       1.611002        43.8376 
 145   0.0000       1.630426        44.3661 
 146   0.0000       1.656991        45.0890 
 147   0.0000       1.679728        45.7077 
 148   0.0000       1.695492        46.1367 
 149   0.0000       1.711361        46.5685 
 150   0.0000       1.738691        47.3122 
 151   0.0000       1.753375        47.7118 
 152   0.0000       1.757731        47.8303 
 153   0.0000       1.772048        48.2199 
 154   0.0000       1.788330        48.6629 
 155   0.0000       1.810931        49.2779 
 156   0.0000       1.830848        49.8199 
 157   0.0000       1.857487        50.5448 
 158   0.0000       1.899615        51.6912 
 159   0.0000       1.908453        51.9316 
 160   0.0000       1.909393        51.9572 
 161   0.0000       1.939834        52.7856 
 162   0.0000       1.963849        53.4391 
 163   0.0000       1.981721        53.9254 
 164   0.0000       2.007586        54.6292 
 165   0.0000       2.029679        55.2304 
 166   0.0000       2.036949        55.4282 
 167   0.0000       2.075723        56.4833 
 168   0.0000       2.078540        56.5599 
 169   0.0000       2.113172        57.5023 
 170   0.0000       2.144157        58.3455 
 171   0.0000       2.152931        58.5842 
 172   0.0000       2.160407        58.7877 
 173   0.0000       2.163529        58.8726 
 174   0.0000       2.192643        59.6648 
 175   0.0000       2.227547        60.6146 
 176   0.0000       2.260627        61.5148 
 177   0.0000       2.278100        61.9903 
 178   0.0000       2.296717        62.4968 
 179   0.0000       2.326570        63.3092 
 180   0.0000       2.344344        63.7928 
 181   0.0000       2.345998        63.8379 
 182   0.0000       2.363650        64.3182 
 183   0.0000       2.388426        64.9924 
 184   0.0000       2.442565        66.4656 
 185   0.0000       2.466484        67.1164 
 186   0.0000       2.477041        67.4037 
 187   0.0000       2.511316        68.3364 
 188   0.0000       2.563999        69.7700 
 189   0.0000       2.580657        70.2232 
 190   0.0000       2.610959        71.0478 
 191   0.0000       2.618009        71.2396 
 192   0.0000       2.645275        71.9816 
 193   0.0000       2.669250        72.6340 
 194   0.0000       2.676136        72.8214 
 195   0.0000       2.698227        73.4225 
 196   0.0000       2.713523        73.8387 
 197   0.0000       2.722347        74.0788 
 198   0.0000       2.731174        74.3190 
 199   0.0000       2.734426        74.4075 
 200   0.0000       2.766423        75.2782 
 201   0.0000       2.793063        76.0031 
 202   0.0000       2.799435        76.1765 
 203   0.0000       2.828024        76.9544 
 204   0.0000       2.843613        77.3786 
 205   0.0000       2.860127        77.8280 
 206   0.0000       2.881311        78.4044 
 207   0.0000       2.890864        78.6644 
 208   0.0000       2.900455        78.9254 
 209   0.0000       2.919762        79.4508 
 210   0.0000       2.925797        79.6150 
 211   0.0000       2.942156        80.0601 
 212   0.0000       2.959027        80.5192 
 213   0.0000       2.973430        80.9111 
 214   0.0000       2.998490        81.5931 
 215   0.0000       3.088502        84.0424 
 216   0.0000       3.099049        84.3294 
 217   0.0000       3.101865        84.4060 
 218   0.0000       3.130194        85.1769 
 219   0.0000       3.133945        85.2790 
 220   0.0000       3.163473        86.0825 
 221   0.0000       3.169303        86.2411 
 222   0.0000       3.178620        86.4946 
 223   0.0000       3.180847        86.5552 
 224   0.0000       3.223117        87.7055 
 225   0.0000       3.231066        87.9218 
 226   0.0000       3.251171        88.4689 
 227   0.0000       3.278305        89.2072 
 228   0.0000       3.319408        90.3257 
 229   0.0000       3.321814        90.3911 
 230   0.0000       3.331862        90.6646 
 231   0.0000       3.357519        91.3627 
 232   0.0000       3.370650        91.7201 
 233   0.0000       3.383209        92.0618 
 234   0.0000       3.396324        92.4187 
 235   0.0000       3.430860        93.3585 
 236   0.0000       3.456872        94.0663 
 237   0.0000       3.460531        94.1658 
 238   0.0000       3.465962        94.3136 
 239   0.0000       3.492175        95.0269 
 240   0.0000       3.499657        95.2305 
 241   0.0000       3.513249        95.6004 
 242   0.0000       3.516313        95.6837 
 243   0.0000       3.543385        96.4204 
 244   0.0000       3.552876        96.6787 
 245   0.0000       3.586989        97.6069 
 246   0.0000       3.613343        98.3241 
 247   0.0000       3.624115        98.6172 
 248   0.0000       3.655610        99.4742 
 249   0.0000       3.709062       100.9287 
 250   0.0000       3.758130       102.2639 
 251   0.0000       3.759681       102.3061 
 252   0.0000       3.775675       102.7413 
 253   0.0000       3.808947       103.6467 
 254   0.0000       3.818301       103.9012 
 255   0.0000       3.873078       105.3918 
 256   0.0000       3.916617       106.5766 
 257   0.0000       3.970792       108.0507 
 258   0.0000       3.982336       108.3649 
 259   0.0000       4.008330       109.0722 
 260   0.0000       4.021577       109.4327 
 261   0.0000       4.041898       109.9856 
 262   0.0000       4.056618       110.3862 
 263   0.0000       4.066635       110.6588 
 264   0.0000       4.075216       110.8923 
 265   0.0000       4.102352       111.6307 
 266   0.0000       4.164340       113.3175 
 267   0.0000       4.180105       113.7464 
 268   0.0000       4.192625       114.0871 
 269   0.0000       4.196926       114.2042 
 270   0.0000       4.212234       114.6207 
 271   0.0000       4.217695       114.7693 
 272   0.0000       4.254376       115.7675 
 273   0.0000       4.262631       115.9921 
 274   0.0000       4.289679       116.7281 
 275   0.0000       4.303117       117.0938 
 276   0.0000       4.355654       118.5234 
 277   0.0000       4.401558       119.7725 
 278   0.0000       4.411890       120.0536 
 279   0.0000       4.426243       120.4442 
 280   0.0000       4.490243       122.1857 
 281   0.0000       4.507103       122.6445 
 282   0.0000       4.543362       123.6312 
 283   0.0000       4.584955       124.7630 
 284   0.0000       4.593213       124.9877 
 285   0.0000       4.600361       125.1822 
 286   0.0000       4.616338       125.6170 
 287   0.0000       4.628593       125.9504 
 288   0.0000       4.707241       128.0905 
 289   0.0000       4.778751       130.0364 
 290   0.0000       4.787773       130.2819 
 291   0.0000       4.820537       131.1735 
 292   0.0000       4.847874       131.9173 
 293   0.0000       4.860019       132.2478 
 294   0.0000       4.866248       132.4173 
 295   0.0000       4.891427       133.1025 
 296   0.0000       4.931337       134.1885 
 297   0.0000       4.932095       134.2091 
 298   0.0000       5.000814       136.0791 
 299   0.0000       5.006915       136.2451 
 300   0.0000       5.063877       137.7951 
 301   0.0000       5.123015       139.4043 
 302   0.0000       5.181818       141.0044 
 303   0.0000       5.268577       143.3653 
 304   0.0000       5.272850       143.4815 
 305   0.0000       5.320903       144.7891 
 306   0.0000       5.355612       145.7336 
 307   0.0000       5.454769       148.4318 
 308   0.0000       5.470058       148.8479 
 309   0.0000       5.500315       149.6712 
 310   0.0000       5.521286       150.2418 
 311   0.0000       5.544145       150.8638 
 312   0.0000       5.642441       153.5386 
 313   0.0000       5.715163       155.5175 
 314   0.0000       5.739368       156.1761 
 315   0.0000       5.818486       158.3291 
 316   0.0000       5.906294       160.7184 
 317   0.0000       6.038290       164.3102 
 318   0.0000       6.145327       167.2229 
 319   0.0000       6.371797       173.3854 
 320   0.0000       6.434948       175.1038 
 321   0.0000       6.436000       175.1325 
 322   0.0000       6.732052       183.1885 
 323   0.0000       6.758252       183.9014 
 324   0.0000       6.823137       185.6670 
 325   0.0000       6.895618       187.6393 
 326   0.0000       6.980217       189.9414 
 327   0.0000       7.006403       190.6539 
 328   0.0000       7.309407       198.8991 
 329   0.0000       7.443547       202.5492 
 330   0.0000      22.254649       605.5798 
 331   0.0000      22.765687       619.4858 
 332   0.0000      22.787087       620.0682 
 333   0.0000      22.827160       621.1586 
 334   0.0000      23.004887       625.9948 
 335   0.0000      23.391423       636.5130 
 336   0.0000      31.923217       868.6749 
 337   0.0000      32.543490       885.5534 
 338   0.0000      33.467831       910.7060 
 339   0.0000      44.026205      1198.0139 

                    ********************************
                    * MULLIKEN POPULATION ANALYSIS *
                    ********************************

-----------------------
MULLIKEN ATOMIC CHARGES
-----------------------
   0 C :    0.284406
   1 C :   -0.270133
   2 C :   -0.266160
   3 H :    0.159192
   4 H :    0.145107
   5 C :   -0.221623
   6 C :   -0.211491
   7 H :    0.163584
   8 H :    0.148776
   9 C :    0.248548
  10 O :   -0.431364
  11 H :    0.369180
  12 N :   -0.350573
  13 N :    0.440401
  14 N :   -0.207852
Sum of atomic charges:   -0.0000000

--------------------------------
MULLIKEN REDUCED ORBITAL CHARGES
--------------------------------
  0 C s       :     2.938222  s :     2.938222
      pz      :     0.763826  p :     2.609602
      px      :     0.997857
      py      :     0.847919
      dz2     :     0.031607  d :     0.154713
      dxz     :     0.036705
      dyz     :     0.045633
      dx2y2   :     0.016709
      dxy     :     0.024059
      f0      :     0.002276  f :     0.013057
      f+1     :     0.002116
      f-1     :     0.003962
      f+2     :     0.001020
      f-2     :     0.001171
      f+3     :     0.001543
      f-3     :     0.000969
  1 C s       :     3.277794  s :     3.277794
      pz      :     0.949865  p :     2.891184
      px      :     0.989712
      py      :     0.951607
      dz2     :     0.019039  d :     0.093654
      dxz     :     0.018980
      dyz     :     0.033685
      dx2y2   :     0.009682
      dxy     :     0.012268
      f0      :     0.000910  f :     0.007500
      f+1     :     0.001514
      f-1     :     0.001948
      f+2     :     0.000915
      f-2     :     0.000302
      f+3     :     0.001136
      f-3     :     0.000775
  2 C s       :     3.296834  s :     3.296834
      pz      :     0.920884  p :     2.868672
      px      :     0.974329
      py      :     0.973459
      dz2     :     0.020780  d :     0.093116
      dxz     :     0.024505
      dyz     :     0.031002
      dx2y2   :     0.008432
      dxy     :     0.008397
      f0      :     0.001164  f :     0.007538
      f+1     :     0.001475
      f-1     :     0.001848
      f+2     :     0.000765
      f-2     :     0.000816
      f+3     :     0.000781
      f-3     :     0.000689
  3 H s       :     0.818507  s :     0.818507
      pz      :     0.007364  p :     0.022301
      px      :     0.004875
      py      :     0.010062
  4 H s       :     0.832746  s :     0.832746
      pz      :     0.004899  p :     0.022147
      px      :     0.004829
      py      :     0.012419
  5 C s       :     3.223311  s :     3.223311
      pz      :     0.917579  p :     2.906896
      px      :     1.021196
      py      :     0.968122
      dz2     :     0.016655  d :     0.084111
      dxz     :     0.021362
      dyz     :     0.028957
      dx2y2   :     0.009427
      dxy     :     0.007710
      f0      :     0.001057  f :     0.007304
      f+1     :     0.001492
      f-1     :     0.001836
      f+2     :     0.000745
      f-2     :     0.000677
      f+3     :     0.000785
      f-3     :     0.000713
  6 C s       :     3.236005  s :     3.236005
      pz      :     0.926922  p :     2.883851
      px      :     1.011242
      py      :     0.945687
      dz2     :     0.016302  d :     0.084157
      dxz     :     0.017033
      dyz     :     0.030175
      dx2y2   :     0.008485
      dxy     :     0.012161
      f0      :     0.000856  f :     0.007478
      f+1     :     0.001469
      f-1     :     0.002023
      f+2     :     0.000884
      f-2     :     0.000332
      f+3     :     0.001133
      f-3     :     0.000780
  7 H s       :     0.814201  s :     0.814201
      pz      :     0.004682  p :     0.022216
      px      :     0.005122
      py      :     0.012412
  8 H s       :     0.828996  s :     0.828996
      pz      :     0.007585  p :     0.022227
      px      :     0.004960
      py      :     0.009682
  9 C s       :     3.006738  s :     3.006738
      pz      :     0.724497  p :     2.548183
      px      :     0.924745
      py      :     0.898941
      dz2     :     0.037188  d :     0.180804
      dxz     :     0.046744
      dyz     :     0.055955
      dx2y2   :     0.016708
      dxy     :     0.024210
      f0      :     0.003039  f :     0.015726
      f+1     :     0.003367
      f-1     :     0.004655
      f+2     :     0.001036
      f-2     :     0.001109
      f+3     :     0.001570
      f-3     :     0.000950
 10 O s       :     3.752270  s :     3.752270
      pz      :     1.377754  p :     4.644931
      px      :     1.812258
      py      :     1.454920
      dz2     :     0.012908  d :     0.032406
      dxz     :     0.005999
      dyz     :     0.005594
      dx2y2   :     0.006334
      dxy     :     0.001571
      f0      :     0.000463  f :     0.001756
      f+1     :     0.000298
      f-1     :     0.000333
      f+2     :     0.000148
      f-2     :     0.000041
      f+3     :     0.000126
      f-3     :     0.000348
 11 H s       :     0.585507  s :     0.585507
      pz      :     0.010262  p :     0.045313
      px      :     0.015060
      py      :     0.019992
 12 N s       :     3.709636  s :     3.709636
      pz      :     0.990745  p :     3.558304
      px      :     1.385117
      py      :     1.182443
      dz2     :     0.017495  d :     0.076974
      dxz     :     0.016024
      dyz     :     0.020907
      dx2y2   :     0.010837
      dxy     :     0.011710
      f0      :     0.001198  f :     0.005658
      f+1     :     0.000643
      f-1     :     0.001167
      f+2     :     0.000920
      f-2     :     0.000822
      f+3     :     0.000466
      f-3     :     0.000442
 13 N s       :     3.316209  s :     3.316209
      pz      :     0.969087  p :     3.066799
      px      :     1.178095
      py      :     0.919617
      dz2     :     0.043990  d :     0.164464
      dxz     :     0.037518
      dyz     :     0.022720
      dx2y2   :     0.021473
      dxy     :     0.038764
      f0      :     0.002004  f :     0.012128
      f+1     :     0.000705
      f-1     :     0.002926
      f+2     :     0.002002
      f-2     :     0.002566
      f+3     :     0.001051
      f-3     :     0.000874
 14 N s       :     3.933582  s :     3.933582
      pz      :     0.993790  p :     3.207285
      px      :     1.219787
      py      :     0.993708
      dz2     :     0.019591  d :     0.061926
      dxz     :     0.011768
      dyz     :     0.011933
      dx2y2   :     0.008519
      dxy     :     0.010116
      f0      :     0.000995  f :     0.005059
      f+1     :     0.000358
      f-1     :     0.001125
      f+2     :     0.000739
      f-2     :     0.001065
      f+3     :     0.000417
      f-3     :     0.000360


                     *******************************
                     * LOEWDIN POPULATION ANALYSIS *
                     *******************************

----------------------
LOEWDIN ATOMIC CHARGES
----------------------
   0 C :   -0.249001
   1 C :   -0.123407
   2 C :   -0.114933
   3 H :    0.159124
   4 H :    0.159952
   5 C :   -0.133942
   6 C :   -0.125359
   7 H :    0.160620
   8 H :    0.159019
   9 C :   -0.293703
  10 O :    0.080563
  11 H :    0.208615
  12 N :    0.040795
  13 N :    0.097472
  14 N :   -0.025815

-------------------------------
LOEWDIN REDUCED ORBITAL CHARGES
-------------------------------
  0 C s       :     2.705968  s :     2.705968
      pz      :     0.871118  p :     2.843453
      px      :     0.904431
      py      :     1.067904
      dz2     :     0.166668  d :     0.623272
      dxz     :     0.108228
      dyz     :     0.195171
      dx2y2   :     0.071484
      dxy     :     0.081720
      f0      :     0.012822  f :     0.076308
      f+1     :     0.011321
      f-1     :     0.025476
      f+2     :     0.008081
      f-2     :     0.008297
      f+3     :     0.004888
      f-3     :     0.005424
  1 C s       :     2.757786  s :     2.757786
      pz      :     1.033435  p :     2.936293
      px      :     0.901437
      py      :     1.001420
      dz2     :     0.084078  d :     0.385618
      dxz     :     0.062096
      dyz     :     0.154107
      dx2y2   :     0.044184
      dxy     :     0.041153
      f0      :     0.007792  f :     0.043712
      f+1     :     0.007119
      f-1     :     0.012798
      f+2     :     0.004906
      f-2     :     0.002117
      f+3     :     0.004603
      f-3     :     0.004377
  2 C s       :     2.758131  s :     2.758131
      pz      :     1.049660  p :     2.927479
      px      :     0.887979
      py      :     0.989840
      dz2     :     0.105885  d :     0.385690
      dxz     :     0.080962
      dyz     :     0.132086
      dx2y2   :     0.042543
      dxy     :     0.024213
      f0      :     0.008465  f :     0.043634
      f+1     :     0.005743
      f-1     :     0.013077
      f+2     :     0.005292
      f-2     :     0.005466
      f+3     :     0.002490
      f-3     :     0.003100
  3 H s       :     0.779539  s :     0.779539
      pz      :     0.020076  p :     0.061337
      px      :     0.014091
      py      :     0.027170
  4 H s       :     0.779313  s :     0.779313
      pz      :     0.013921  p :     0.060735
      px      :     0.013926
      py      :     0.032888
  5 C s       :     2.760497  s :     2.760497
      pz      :     1.043279  p :     2.954656
      px      :     0.922096
      py      :     0.989281
      dz2     :     0.104623  d :     0.375758
      dxz     :     0.073623
      dyz     :     0.132541
      dx2y2   :     0.042570
      dxy     :     0.022402
      f0      :     0.008496  f :     0.043031
      f+1     :     0.005756
      f-1     :     0.013112
      f+2     :     0.005255
      f-2     :     0.004960
      f+3     :     0.002369
      f-3     :     0.003084
  6 C s       :     2.759319  s :     2.759319
      pz      :     1.035264  p :     2.951754
      px      :     0.915226
      py      :     1.001264
      dz2     :     0.083741  d :     0.371325
      dxz     :     0.055771
      dyz     :     0.151037
      dx2y2   :     0.043511
      dxy     :     0.037264
      f0      :     0.007868  f :     0.042962
      f+1     :     0.006696
      f-1     :     0.012868
      f+2     :     0.004930
      f-2     :     0.002024
      f+3     :     0.004281
      f-3     :     0.004295
  7 H s       :     0.778322  s :     0.778322
      pz      :     0.013467  p :     0.061058
      px      :     0.014689
      py      :     0.032902
  8 H s       :     0.779961  s :     0.779961
      pz      :     0.020574  p :     0.061021
      px      :     0.014244
      py      :     0.026203
  9 C s       :     2.714155  s :     2.714155
      pz      :     0.847551  p :     2.781384
      px      :     0.859137
      py      :     1.074696
      dz2     :     0.209013  d :     0.698899
      dxz     :     0.146217
      dyz     :     0.192929
      dx2y2   :     0.071150
      dxy     :     0.079590
      f0      :     0.022366  f :     0.099265
      f+1     :     0.019526
      f-1     :     0.030474
      f+2     :     0.007821
      f-2     :     0.008180
      f+3     :     0.005381
      f-3     :     0.005517
 10 O s       :     3.317528  s :     3.317528
      pz      :     1.415453  p :     4.524950
      px      :     1.697641
      py      :     1.411856
      dz2     :     0.026841  d :     0.072079
      dxz     :     0.014941
      dyz     :     0.018580
      dx2y2   :     0.010201
      dxy     :     0.001516
      f0      :     0.001308  f :     0.004881
      f+1     :     0.001037
      f-1     :     0.001616
      f+2     :     0.000197
      f-2     :     0.000052
      f+3     :     0.000121
      f-3     :     0.000550
 11 H s       :     0.637985  s :     0.637985
      pz      :     0.027998  p :     0.153400
      px      :     0.042440
      py      :     0.082963
 12 N s       :     3.056596  s :     3.056596
      pz      :     1.088746  p :     3.612978
      px      :     1.267192
      py      :     1.257040
      dz2     :     0.064864  d :     0.260017
      dxz     :     0.052897
      dyz     :     0.089185
      dx2y2   :     0.028938
      dxy     :     0.024133
      f0      :     0.004897  f :     0.029613
      f+1     :     0.002157
      f-1     :     0.007479
      f+2     :     0.006046
      f-2     :     0.004887
      f+3     :     0.002034
      f-3     :     0.002113
 13 N s       :     2.929307  s :     2.929307
      pz      :     1.160624  p :     3.398514
      px      :     1.075288
      py      :     1.162603
      dz2     :     0.137961  d :     0.542099
      dxz     :     0.112104
      dyz     :     0.093436
      dx2y2   :     0.080566
      dxy     :     0.118032
      f0      :     0.003840  f :     0.032607
      f+1     :     0.001447
      f-1     :     0.009916
      f+2     :     0.008476
      f-2     :     0.004776
      f+3     :     0.001849
      f-3     :     0.002304
 14 N s       :     3.364697  s :     3.364697
      pz      :     1.158446  p :     3.455123
      px      :     1.163356
      py      :     1.133321
      dz2     :     0.044928  d :     0.176008
      dxz     :     0.028824
      dyz     :     0.053781
      dx2y2   :     0.023558
      dxy     :     0.024916
      f0      :     0.004773  f :     0.029989
      f+1     :     0.001865
      f-1     :     0.007840
      f+2     :     0.005635
      f-2     :     0.006104
      f+3     :     0.002000
      f-3     :     0.001771


                      *****************************
                      * MAYER POPULATION ANALYSIS *
                      *****************************

  NA   - Mulliken gross atomic population
  ZA   - Total nuclear charge
  QA   - Mulliken gross atomic charge
  VA   - Mayer's total valence
  BVA  - Mayer's bonded valence
  FA   - Mayer's free valence

  ATOM       NA         ZA         QA         VA         BVA        FA
  0 C      5.7156     6.0000     0.2844     3.7992     3.7992    -0.0000
  1 C      6.2701     6.0000    -0.2701     3.9035     3.9035     0.0000
  2 C      6.2662     6.0000    -0.2662     4.0151     4.0151    -0.0000
  3 H      0.8408     1.0000     0.1592     0.9757     0.9757    -0.0000
  4 H      0.8549     1.0000     0.1451     0.9834     0.9834     0.0000
  5 C      6.2216     6.0000    -0.2216     3.8501     3.8501     0.0000
  6 C      6.2115     6.0000    -0.2115     3.9332     3.9332    -0.0000
  7 H      0.8364     1.0000     0.1636     0.9650     0.9650    -0.0000
  8 H      0.8512     1.0000     0.1488     0.9760     0.9760     0.0000
  9 C      5.7515     6.0000     0.2485     4.0094     4.0094    -0.0000
 10 O      8.4314     8.0000    -0.4314     2.0669     2.0669    -0.0000
 11 H      0.6308     1.0000     0.3692     0.8765     0.8765    -0.0000
 12 N      7.3506     7.0000    -0.3506     2.8514     2.8514    -0.0000
 13 N      6.5596     7.0000     0.4404     3.4427     3.4427    -0.0000
 14 N      7.2079     7.0000    -0.2079     2.4538     2.4538     0.0000

  Mayer bond orders larger than 0.100000
B(  0-C ,  1-C ) :   1.3378 B(  0-C ,  2-C ) :   1.3419 B(  0-C , 12-N ) :   1.0312 
B(  1-C ,  3-H ) :   0.9561 B(  1-C ,  5-C ) :   1.3860 B(  2-C ,  4-H ) :   0.9839 
B(  2-C ,  6-C ) :   1.4553 B(  5-C ,  7-H ) :   0.9549 B(  5-C ,  9-C ) :   1.3628 
B(  6-C ,  8-H ) :   0.9781 B(  6-C ,  9-C ) :   1.3725 B(  9-C , 10-O ) :   1.1357 
B( 10-O , 11-H ) :   0.8505 B( 12-N , 13-N ) :   1.4160 B( 12-N , 14-N ) :   0.3305 
B( 13-N , 14-N ) :   1.9900 

-------
TIMINGS
-------

Total SCF time: 0 days 0 hours 0 min 27 sec 

Total time                  ....      27.465 sec
Sum of individual times     ....      26.155 sec  ( 95.2%)

Fock matrix formation       ....      23.166 sec  ( 84.3%)
  Split-RI-J                ....       2.498 sec  ( 10.8% of F)
  Chain of spheres X        ....      11.106 sec  ( 47.9% of F)
  XC integration            ....       4.264 sec  ( 18.4% of F)
    Basis function eval.    ....       0.425 sec  ( 10.0% of XC)
    Density eval.           ....       0.425 sec  ( 10.0% of XC)
    XC-Functional eval.     ....       0.076 sec  (  1.8% of XC)
    XC-Potential eval.      ....       0.458 sec  ( 10.7% of XC)
Diagonalization             ....       0.988 sec  (  3.6%)
Density matrix formation    ....       0.032 sec  (  0.1%)
Population analysis         ....       0.081 sec  (  0.3%)
Initial guess               ....       0.227 sec  (  0.8%)
Orbital Transformation      ....       0.000 sec  (  0.0%)
Orbital Orthonormalization  ....       0.000 sec  (  0.0%)
DIIS solution               ....       0.230 sec  (  0.8%)
SOSCF solution              ....       0.289 sec  (  1.1%)
Grid generation             ....       1.143 sec  (  4.2%)

Maximum memory used throughout the entire SCF-calculation: 79.9 MB


-------------------------------------------------------------------------------
                          DFT DISPERSION CORRECTION                            
                                                                               
                              DFTD3 V3.1  Rev 1                                
                          USING Becke-Johnson damping                          
-------------------------------------------------------------------------------
The PBE0 functional is recognized
Active option DFTDOPT                   ...         4   

molecular C6(AA) [au] = 3077.499726 


            DFT-D V3
 parameters
 s6 scaling factor         :     1.0000 
 a1 scaling factor         :     0.4145 
 s8 scaling factor         :     1.2177 
 a2 scaling factor         :     4.8593 
 ad hoc parameters k1-k3   :    16.0000     1.3333    -4.0000 

 Edisp/kcal,au: -8.829254020683  -0.014070310400 
 E6   /kcal   :  -5.490341977 
 E8   /kcal   :  -3.338912044 
 % E8         :  37.816468252 

-------------------------   ----------------
Dispersion correction           -0.014070310
-------------------------   ----------------


-------------------------   --------------------
FINAL SINGLE POINT ENERGY      -470.733368459367
-------------------------   --------------------



           ************************************************************
           *        Program running with 24 parallel MPI-processes    *
           *              working on a common directory               *
           ************************************************************
------------------------------------------------------------------------------
                         ORCA SCF GRADIENT CALCULATION
------------------------------------------------------------------------------

 ... reading COSX grid (gridx3)
Gradient of the Kohn-Sham DFT energy:
Kohn-Sham wavefunction type      ... RKS
Hartree-Fock exchange scaling    ...    0.250
Number of operators              ...    1
Number of atoms                  ...   15
Basis set dimensions             ...  340
Integral neglect threshold       ... 2.5e-11
Integral primitive cutoff        ... 2.5e-12
SHARK Integral package           ... ON

Nuc. rep. gradient       (SHARK) ... done (  0.0 sec)
HCore & Overlap gradient (SHARK) ... done (  0.0 sec)
RI-J gradient            (SHARK) ... done (  0.4 sec)
COSX-gradient                    ... done (  2.1 sec)
Exchange-correlation gradient    ... done
Dispersion correction            ... done

------------------
CARTESIAN GRADIENT
------------------

   1   C   :    0.000055325    0.000182062    0.000123482
   2   C   :   -0.000028565   -0.000211632    0.000063928
   3   C   :    0.000017210    0.000130313   -0.000000064
   4   H   :    0.000018359    0.000024405   -0.000005989
   5   H   :   -0.000004042   -0.000049625    0.000039727
   6   C   :   -0.000002876   -0.000105598   -0.000094920
   7   C   :    0.000006974    0.000090213   -0.000128855
   8   H   :    0.000020763    0.000030407    0.000014269
   9   H   :    0.000000149   -0.000020548    0.000048205
  10   C   :    0.000000045   -0.000000897   -0.000093647
  11   O   :    0.000014689   -0.000006300   -0.000143104
  12   H   :    0.000009718    0.000054207    0.000070567
  13   N   :   -0.000006591   -0.000019437    0.000045924
  14   N   :   -0.000007534   -0.000070018    0.000140685
  15   N   :    0.000006813   -0.000048940   -0.000012823

Difference to translation invariance:
           :    0.0001004372   -0.0000213883    0.0000673840

Difference to rotation invariance:
           :   -0.0012517745    0.0000478903   -0.0000476827

[...]
      4       0.008371  -0.097832  -0.025342   0.118513  -0.016006  -0.022862
      5       0.016629   0.080833  -0.004634   0.170560   0.059219   0.160675
      6       0.005563   0.011510  -0.002762   0.010202  -0.004037  -0.016322
      7       0.039959   0.071887  -0.016708   0.096560  -0.048520  -0.094235
      8      -0.006702   0.068049  -0.012414  -0.171800   0.147127  -0.147785
      9      -0.008007   0.033656  -0.059375  -0.041043  -0.034290  -0.051373
     10      -0.041794   0.157065  -0.341881  -0.235173  -0.204195  -0.322279
     11      -0.050986   0.439502  -0.413901  -0.287971  -0.164524  -0.197988
     12       0.002541   0.001481  -0.020099  -0.008205   0.008883  -0.030125
     13       0.002491  -0.049138  -0.210928  -0.109329   0.087482  -0.231888
     14       0.097684   0.403953   0.473153   0.367202  -0.173217   0.129460
     15       0.007184  -0.003861  -0.004754   0.001980  -0.014635  -0.009327
     16       0.056071  -0.014619  -0.047403   0.033785  -0.104028  -0.040653
     17      -0.013482  -0.083053   0.079386  -0.149980  -0.002312  -0.164820
     18       0.006884  -0.013633  -0.012242   0.008913   0.000692   0.010048
     19       0.047260  -0.083959  -0.077628   0.052964   0.013020   0.040403
     20       0.003204  -0.092181  -0.060985   0.071977  -0.057864   0.214187
     21       0.016081  -0.021118   0.007465  -0.002359  -0.012276  -0.024473
     22       0.120765  -0.221077   0.136141   0.004794  -0.060735  -0.244342
     23      -0.164605   0.391097  -0.403831  -0.092812  -0.170052   0.315695
     24       0.046232   0.020414   0.040813   0.020080  -0.024017  -0.058900
     25       0.288255   0.124527   0.241939   0.121444  -0.135046  -0.379300
     26       0.297889   0.151654   0.348766   0.153992  -0.262497  -0.280668
     27      -0.017243  -0.003273   0.001185  -0.028111   0.010158   0.019450
     28      -0.116202   0.029790   0.005893  -0.198015   0.093640   0.139781
     29      -0.046275  -0.363065   0.020888  -0.001790  -0.146369  -0.015994
     30      -0.005064   0.009194   0.001932   0.006630  -0.000205  -0.007239
     31      -0.045554   0.039063   0.015583   0.048286  -0.011872  -0.053430
     32       0.084780   0.175465  -0.017912  -0.019267   0.073511   0.020898
     33       0.014302   0.004128  -0.000186  -0.007436   0.005540   0.001215
     34       0.187075  -0.011175  -0.026604  -0.135699   0.057076   0.071238
     35      -0.837163   0.388021   0.143441   0.680030  -0.176859  -0.444624
     36       0.001692  -0.006733  -0.004859   0.003444   0.037164  -0.005953
     37       0.010702  -0.050257  -0.033438   0.029313   0.314574  -0.043728
     38       0.001737   0.045378   0.006688  -0.057746  -0.567380   0.023565
     39      -0.000637   0.002127   0.002064  -0.002397  -0.011816   0.001835
     40      -0.004216   0.016404   0.012533  -0.016498  -0.088616   0.011628
     41      -0.001026  -0.017186   0.004507   0.006843   0.084260   0.000978
     42      -0.000416   0.003826   0.000405  -0.002540  -0.035738   0.000553
     43      -0.003310   0.029277   0.003015  -0.019812  -0.267928   0.004518
     44       0.005438  -0.029630  -0.004979   0.021482   0.261357  -0.005031
                 36         37         38         39         40         41    
      0      -0.010450  -0.044629  -0.008868   0.005231  -0.000115   0.000153
      1      -0.050095  -0.325726  -0.037756   0.039870  -0.000703   0.000765
      2      -0.167399   0.079376  -0.178447  -0.035233  -0.000818   0.002397
      3       0.020822   0.028397   0.024730  -0.000608   0.004379  -0.004045
      4       0.134002   0.194252   0.133963  -0.005200   0.034713  -0.032673
      5       0.088706   0.045127   0.286440   0.009836  -0.023941   0.026275
      6      -0.007702   0.023823   0.002215  -0.001100  -0.000529   0.006364
      7      -0.071001   0.193126  -0.027698  -0.009171  -0.003610   0.042910
      8       0.120286  -0.178844   0.305266   0.008956  -0.000924   0.014644
      9      -0.046836  -0.008614  -0.045816  -0.002086  -0.049335   0.046349
     10      -0.257098  -0.019730  -0.280554  -0.013847  -0.395711   0.372354
     11      -0.444195  -0.256763  -0.245748   0.008107   0.305766  -0.291318
     12       0.009395   0.008484   0.023008  -0.000742   0.006047  -0.073419
     13       0.123820   0.015048   0.196248  -0.005716   0.040536  -0.491758
     14      -0.401527   0.319527  -0.243621  -0.008672   0.015707  -0.193789
     15      -0.010733  -0.025007  -0.003446   0.000161  -0.010220  -0.003992
     16      -0.094710  -0.195847   0.020652   0.000707  -0.069040  -0.026654
     17       0.118717   0.128067  -0.309630   0.002324  -0.025450  -0.012067
     18       0.015180  -0.031546  -0.027071   0.000887   0.000298  -0.005257
     19       0.100097  -0.219971  -0.148833   0.005781   0.002252  -0.041674
     20       0.052611  -0.018572  -0.301083   0.004106  -0.001105   0.031978
     21       0.004285  -0.016050  -0.022121  -0.000951   0.117723   0.044505
     22       0.118029  -0.078714  -0.212813  -0.008907   0.793105   0.299571
     23      -0.475985  -0.222615   0.279506   0.006936   0.307266   0.118019
     24      -0.031134  -0.000106   0.042252   0.000440  -0.002957   0.059568
     25      -0.175455  -0.035697   0.269516   0.003703  -0.023482   0.475224
     26      -0.319024   0.255293   0.218623  -0.008389   0.018059  -0.383378
     27      -0.008605   0.055637   0.015308  -0.000673   0.000181   0.000376
     28      -0.033348   0.400931   0.076591  -0.002977   0.001669   0.002707
     29      -0.187996  -0.050006   0.219848  -0.011364  -0.002776  -0.000255
     30       0.003208  -0.006789  -0.002530   0.000241  -0.000024  -0.000048
     31       0.016609  -0.051037  -0.014589   0.000391  -0.000228  -0.000355
     32       0.039162   0.023558  -0.022285   0.008580   0.000214   0.000171
     33       0.001205   0.003880   0.000259   0.001540   0.000445   0.000333
     34      -0.021602   0.082900   0.026915   0.010379   0.002877   0.002421
     35       0.171381  -0.448783  -0.143151  -0.000023   0.005508   0.000883
     36      -0.000086   0.002877   0.000670   0.013920   0.000014  -0.000012
     37      -0.006176   0.018870   0.003346   0.110315   0.000114  -0.000072
     38       0.051253   0.007695   0.011259  -0.148693  -0.000124  -0.000159
     39       0.000892  -0.001978   0.000197  -0.068188  -0.000009  -0.000023
     40       0.005958  -0.012800   0.001023  -0.521596  -0.000112  -0.000111
     41      -0.005283  -0.000391   0.000806   0.588576   0.000178  -0.000101
     42       0.001347   0.002023  -0.000262   0.050779  -0.000002   0.000012
     43       0.009437   0.014729  -0.002165   0.386994  -0.000002   0.000084
     44      -0.006333  -0.013200   0.003858  -0.431208  -0.000067   0.000010
                 42         43         44    
      0      -0.000465  -0.000243   0.000002
      1      -0.003212  -0.002097   0.000015
      2      -0.000411   0.002782  -0.000034
      3       0.006047  -0.000262  -0.000015
      4       0.048939  -0.002048  -0.000072
      5      -0.039969   0.001187  -0.000128
      6       0.004879   0.008962  -0.000015
      7       0.032780   0.059691  -0.000122
      8       0.012121   0.025934  -0.000091
      9      -0.069857   0.002544  -0.000052
     10      -0.561276   0.020346  -0.000460
     11       0.439620  -0.015348   0.000883
     12      -0.056595  -0.100745   0.000113
     13      -0.378883  -0.674086   0.000727
     14      -0.150442  -0.270487   0.000193
     15       0.004718  -0.000375   0.000127
     16       0.031502  -0.002580   0.000724
     17       0.014238  -0.000654   0.000941
     18      -0.003528   0.005618   0.000118
     19      -0.027826   0.045310   0.000722
     20       0.020561  -0.039604   0.000538
     21      -0.052364   0.004004  -0.000448
     22      -0.352467   0.026991  -0.003298
     23      -0.138739   0.010144  -0.004053
     24       0.039322  -0.065011   0.000052
     25       0.313607  -0.519276   0.000293
     26      -0.252163   0.422976   0.000024
     27       0.000013  -0.000419  -0.000297
     28      -0.000293  -0.002659  -0.002096
     29       0.002556  -0.002053  -0.000264
     30       0.000011   0.000041  -0.008811
     31       0.000106   0.000253  -0.059490
     32      -0.000311   0.000289  -0.016234
     33      -0.000269   0.000127   0.141135
     34      -0.001788   0.000645   0.956569
     35      -0.002792   0.001906   0.247266
     36       0.000030   0.000031  -0.000012
     37       0.000196   0.000258  -0.000111
     38       0.000193  -0.000336   0.000215
     39       0.000052  -0.000036   0.000042
     40       0.000339  -0.000233   0.000334
     41      -0.000342  -0.000002  -0.000286
     42      -0.000039   0.000017  -0.000031
     43      -0.000293   0.000118  -0.000203
     44       0.000226  -0.000087   0.000207


-----------
IR SPECTRUM
-----------

 Mode   freq       eps      Int      T**2         TX        TY        TZ
       cm**-1   L/(mol*cm) km/mol    a.u.
----------------------------------------------------------------------------
  6:     59.69   0.000085    0.43  0.000445  ( 0.020687 -0.004114 -0.000597)
  7:    135.11   0.000512    2.59  0.001182  ( 0.001322  0.007389  0.033550)
  8:    160.94   0.000005    0.03  0.000010  (-0.002987  0.000576  0.000910)
  9:    340.12   0.000081    0.41  0.000075  ( 0.001954  0.006673  0.005127)
 10:    365.94   0.021623  109.27  0.018439  (-0.134406  0.019227  0.002127)
 11:    366.97   0.014168   71.60  0.012048  ( 0.108674 -0.015329 -0.001764)
 12:    426.97   0.000023    0.12  0.000017  (-0.002800 -0.002262 -0.002036)
 13:    428.77   0.000349    1.76  0.000254  (-0.002563 -0.012111 -0.010028)
 14:    454.29   0.003941   19.92  0.002707  ( 0.001775 -0.002794  0.051927)
 15:    522.07   0.006297   31.82  0.003764  (-0.060704  0.008631  0.002204)
 16:    579.82   0.002576   13.02  0.001386  ( 0.036825 -0.005504  0.000113)
 17:    651.08   0.000152    0.77  0.000073  ( 0.000578  0.004230 -0.007384)
 18:    659.90   0.015962   80.66  0.007548  ( 0.000829  0.015224 -0.085533)
 19:    731.47   0.000069    0.35  0.000029  (-0.005331  0.000755  0.000691)
 20:    802.84   0.004313   21.80  0.001676  ( 0.004352  0.038684  0.012692)
 21:    819.14   0.001839    9.29  0.000701  ( 0.026340 -0.002601  0.000188)
 22:    854.50   0.021236  107.32  0.007755  (-0.087249  0.011861  0.001553)
 23:    872.72   0.002760   13.95  0.000987  (-0.001903 -0.010983  0.029369)
 24:    944.74   0.000019    0.09  0.000006  (-0.002407  0.000535  0.000253)
 25:    970.48   0.000047    0.24  0.000015  ( 0.003836 -0.000697  0.000087)
 26:   1030.48   0.000266    1.34  0.000081  ( 0.000843  0.002417  0.008604)
 27:   1125.76   0.006246   31.56  0.001731  ( 0.005858  0.041039  0.003584)
 28:   1177.39   0.000851    4.30  0.000226  ( 0.002145  0.013712  0.005745)
 29:   1194.41   0.003394   17.15  0.000887  (-0.003621 -0.022017 -0.019722)
 30:   1200.71   0.060247  304.46  0.015658  (-0.002467 -0.001658 -0.125097)
 31:   1304.60   0.052638  266.01  0.012591  (-0.001970  0.000969 -0.112189)
 32:   1336.36   0.000333    1.68  0.000078  ( 0.000214 -0.000521  0.008799)
 33:   1384.33   0.023550  119.01  0.005309  ( 0.001510  0.003833  0.072744)
 34:   1405.49   0.032304  163.25  0.007173  (-0.006678 -0.052319  0.066262)
 35:   1482.81   0.015439   78.02  0.003249  ( 0.000811  0.012223 -0.055670)
 36:   1547.81   0.096579  488.07  0.019472  (-0.003021 -0.003496 -0.139465)
 37:   1657.17   0.000012    0.06  0.000002  (-0.000013 -0.000102 -0.001488)
 38:   1673.86   0.007315   36.97  0.001364  ( 0.002273  0.010812  0.035238)
 39:   2269.89   0.386041  1950.89  0.053073  (-0.013829 -0.115190  0.199030)
 40:   3188.51   0.002154   10.88  0.000211  (-0.000690 -0.003074 -0.014173)
 41:   3203.56   0.000706    3.57  0.000069  ( 0.000095 -0.000850  0.008246)
 42:   3204.35   0.000454    2.29  0.000044  ( 0.000494  0.002948  0.005936)
 43:   3217.12   0.000432    2.18  0.000042  ( 0.000723  0.005758 -0.002864)
 44:   3823.54   0.038851  196.34  0.003171  ( 0.006406  0.039583  0.039535)

* The epsilon (eps) is given for a Dirac delta lineshape.
** The dipole moment derivative (T) already includes vibrational overlap.

The first frequency considered to be a vibration is 6
The total number of vibrations considered is 39


--------------------------
THERMOCHEMISTRY AT 298.15K
--------------------------

Temperature         ... 298.15 K
Pressure            ... 1.00 atm
Total Mass          ... 135.13 AMU

Throughout the following assumptions are being made:
  (1) The electronic state is orbitally nondegenerate
  (2) There are no thermally accessible electronically excited states
  (3) Hindered rotations indicated by low frequency modes are not
      treated as such but are treated as vibrations and this may
      cause some error
  (4) All equations used are the standard statistical mechanics
      equations for an ideal gas
  (5) All vibrations are strictly harmonic

freq.      59.69  E(vib)   ...       0.51 
freq.     135.11  E(vib)   ...       0.42 
freq.     160.94  E(vib)   ...       0.39 
freq.     340.12  E(vib)   ...       0.23 
freq.     365.94  E(vib)   ...       0.22 
freq.     366.97  E(vib)   ...       0.22 
freq.     426.97  E(vib)   ...       0.18 
freq.     428.77  E(vib)   ...       0.18 
freq.     454.29  E(vib)   ...       0.16 
freq.     522.07  E(vib)   ...       0.13 
freq.     579.82  E(vib)   ...       0.11 
freq.     651.08  E(vib)   ...       0.08 
freq.     659.90  E(vib)   ...       0.08 
freq.     731.47  E(vib)   ...       0.06 
freq.     802.84  E(vib)   ...       0.05 
freq.     819.14  E(vib)   ...       0.05 
freq.     854.50  E(vib)   ...       0.04 
freq.     872.72  E(vib)   ...       0.04 
freq.     944.74  E(vib)   ...       0.03 
freq.     970.48  E(vib)   ...       0.03 
freq.    1030.48  E(vib)   ...       0.02 
freq.    1125.76  E(vib)   ...       0.01 
freq.    1177.39  E(vib)   ...       0.01 
freq.    1194.41  E(vib)   ...       0.01 
freq.    1200.71  E(vib)   ...       0.01 
freq.    1304.60  E(vib)   ...       0.01 
freq.    1336.36  E(vib)   ...       0.01 
freq.    1384.33  E(vib)   ...       0.00 
freq.    1405.49  E(vib)   ...       0.00 
freq.    1482.81  E(vib)   ...       0.00 
freq.    1547.81  E(vib)   ...       0.00 
freq.    1657.17  E(vib)   ...       0.00 
freq.    1673.86  E(vib)   ...       0.00 
freq.    2269.89  E(vib)   ...       0.00 
freq.    3188.51  E(vib)   ...       0.00 
freq.    3203.56  E(vib)   ...       0.00 
freq.    3204.35  E(vib)   ...       0.00 
freq.    3217.12  E(vib)   ...       0.00 
freq.    3823.54  E(vib)   ...       0.00 

------------
INNER ENERGY
------------

The inner energy is: U= E(el) + E(ZPE) + E(vib) + E(rot) + E(trans)
    E(el)   - is the total energy from the electronic structure calculation
              = E(kin-el) + E(nuc-el) + E(el-el) + E(nuc-nuc)
    E(ZPE)  - the the zero temperature vibrational energy from the frequency calculation
    E(vib)  - the the finite temperature correction to E(ZPE) due to population
              of excited vibrational states
    E(rot)  - is the rotational thermal energy
    E(trans)- is the translational thermal energy

Summary of contributions to the inner energy U:
Electronic energy                ...   -470.73336871 Eh
Zero point energy                ...      0.10838536 Eh      68.01 kcal/mol
Thermal vibrational correction   ...      0.00525823 Eh       3.30 kcal/mol
Thermal rotational correction    ...      0.00141627 Eh       0.89 kcal/mol
Thermal translational correction ...      0.00141627 Eh       0.89 kcal/mol
-----------------------------------------------------------------------
Total thermal energy                   -470.61689258 Eh


Summary of corrections to the electronic energy:
(perhaps to be used in another calculation)
Total thermal correction                  0.00809077 Eh       5.08 kcal/mol
Non-thermal (ZPE) correction              0.10838536 Eh      68.01 kcal/mol
-----------------------------------------------------------------------
Total correction                          0.11647613 Eh      73.09 kcal/mol


--------
ENTHALPY
--------

The enthalpy is H = U + kB*T
                kB is Boltzmann's constant
Total free energy                 ...   -470.61689258 Eh 
Thermal Enthalpy correction       ...      0.00094421 Eh       0.59 kcal/mol
-----------------------------------------------------------------------
Total Enthalpy                    ...   -470.61594837 Eh


Note: Only C1 symmetry has been detected, increase convergence thresholds 
      if your molecule has a higher symmetry. Symmetry factor of 1.0 is   
      used for the rotational entropy correction. 
 

Note: Rotational entropy computed according to Herzberg 
Infrared and Raman Spectra, Chapter V,1, Van Nostrand Reinhold, 1945 
Point Group:  C1, Symmetry Number:   1  
Rotational constants in cm-1:     0.152489     0.024810     0.021338 

Vibrational entropy computed according to the QRRHO of S. Grimme
Chem.Eur.J. 2012 18 9955


-------
ENTROPY
-------

The entropy contributions are T*S = T*(S(el)+S(vib)+S(rot)+S(trans))
     S(el)   - electronic entropy
     S(vib)  - vibrational entropy
     S(rot)  - rotational entropy
     S(trans)- translational entropy
The entropies will be listed as multiplied by the temperature to get
units of energy

Electronic entropy                ...      0.00000000 Eh      0.00 kcal/mol
Vibrational entropy               ...      0.00862881 Eh      5.41 kcal/mol
Rotational entropy                ...      0.01395999 Eh      8.76 kcal/mol
Translational entropy             ...      0.01929759 Eh     12.11 kcal/mol
-----------------------------------------------------------------------
Final entropy term                ...      0.04188640 Eh     26.28 kcal/mol

In case the symmetry of your molecule has not been determined correctly
or in case you have a reason to use a different symmetry number we print 
out the resulting rotational entropy values for sn=1,12 :
 --------------------------------------------------------
|  sn= 1 | S(rot)=       0.01395999 Eh      8.76 kcal/mol|
|  sn= 2 | S(rot)=       0.01330554 Eh      8.35 kcal/mol|
|  sn= 3 | S(rot)=       0.01292271 Eh      8.11 kcal/mol|
|  sn= 4 | S(rot)=       0.01265108 Eh      7.94 kcal/mol|
|  sn= 5 | S(rot)=       0.01244039 Eh      7.81 kcal/mol|
|  sn= 6 | S(rot)=       0.01226825 Eh      7.70 kcal/mol|
|  sn= 7 | S(rot)=       0.01212270 Eh      7.61 kcal/mol|
|  sn= 8 | S(rot)=       0.01199662 Eh      7.53 kcal/mol|
|  sn= 9 | S(rot)=       0.01188542 Eh      7.46 kcal/mol|
|  sn=10 | S(rot)=       0.01178594 Eh      7.40 kcal/mol|
|  sn=11 | S(rot)=       0.01169595 Eh      7.34 kcal/mol|
|  sn=12 | S(rot)=       0.01161379 Eh      7.29 kcal/mol|
 --------------------------------------------------------


-------------------
GIBBS FREE ENERGY
-------------------

The Gibbs free energy is G = H - T*S

Total enthalpy                    ...   -470.61594837 Eh 
Total entropy correction          ...     -0.04188640 Eh    -26.28 kcal/mol
-----------------------------------------------------------------------
Final Gibbs free energy         ...   -470.65783477 Eh

For completeness - the Gibbs free energy minus the electronic energy
G-E(el)                           ...      0.07553394 Eh     47.40 kcal/mol


Timings for individual modules:

Sum of individual times         ...      246.894 sec (=   4.115 min)
GTO integral calculation        ...        2.545 sec (=   0.042 min)   1.0 %
SCF iterations                  ...       43.352 sec (=   0.723 min)  17.6 %
SCF Gradient evaluation         ...        5.680 sec (=   0.095 min)   2.3 %
Geometry relaxation             ...        0.116 sec (=   0.002 min)   0.0 %
Analytical frequency calculation...      195.201 sec (=   3.253 min)  79.1 %
                             ****ORCA TERMINATED NORMALLY****
TOTAL RUN TIME: 0 days 0 hours 4 minutes 10 seconds 343 msec
