
                                 *****************
                                 * O   R   C   A *
                                 *****************

                                            #,                                       
                                            ###                                      
                                            ####                                     
                                            #####                                    
                                            ######                                   
                                           ########,                                 
                                     ,,################,,,,,                         
                               ,,#################################,,                 
                          ,,##########################################,,             
                       ,#########################################, ''#####,          
                    ,#############################################,,   '####,        
                  ,##################################################,,,,####,       
                ,###########''''           ''''###############################       
              ,#####''   ,,,,##########,,,,          '''####'''          '####       
            ,##' ,,,,###########################,,,                        '##       
           ' ,,###''''                  '''############,,,                           
         ,,##''                                '''############,,,,        ,,,,,,###''
      ,#''                                            '''#######################'''  
     '                                                          ''''####''''         
             ,#######,   #######,   ,#######,      ##                                
            ,#'     '#,  ##    ##  ,#'     '#,    #''#        ######   ,####,        
            ##       ##  ##   ,#'  ##            #'  '#       #        #'  '#        
            ##       ##  #######   ##           ,######,      #####,   #    #        
            '#,     ,#'  ##    ##  '#,     ,#' ,#      #,         ##   #,  ,#        
             '#######'   ##     ##  '#######'  #'      '#     #####' # '####'        



                  #######################################################
                  #                        -***-                        #
                  #          Department of theory and spectroscopy      #
                  #    Directorship and core code : Frank Neese         #
                  #        Max Planck Institute fuer Kohlenforschung    #
                  #                Kaiser Wilhelm Platz 1               #
                  #                 D-45470 Muelheim/Ruhr               #
                  #                      Germany                        #
                  #                                                     #
                  #                  All rights reserved                #
                  #                        -***-                        #
                  #######################################################


                         Program Version 5.0.4 -  RELEASE  -


 With contributions from (in alphabetic order):
   Daniel Aravena         : Magnetic Suceptibility
   Michael Atanasov       : Ab Initio Ligand Field Theory (pilot matlab implementation)
   Alexander A. Auer      : GIAO ZORA, VPT2 properties, NMR spectrum
   Ute Becker             : Parallelization
   Giovanni Bistoni       : ED, misc. LED, open-shell LED, HFLD
   Martin Brehm           : Molecular dynamics
   Dmytro Bykov           : SCF Hessian
   Vijay G. Chilkuri      : MRCI spin determinant printing, contributions to CSF-ICE
   Dipayan Datta          : RHF DLPNO-CCSD density
   Achintya Kumar Dutta   : EOM-CC, STEOM-CC
   Dmitry Ganyushin       : Spin-Orbit,Spin-Spin,Magnetic field MRCI
   Miquel Garcia          : C-PCM and meta-GGA Hessian, CC/C-PCM, Gaussian charge scheme
   Yang Guo               : DLPNO-NEVPT2, F12-NEVPT2, CIM, IAO-localization
   Andreas Hansen         : Spin unrestricted coupled pair/coupled cluster methods
   Benjamin Helmich-Paris : MC-RPA, TRAH-SCF, COSX integrals
   Lee Huntington         : MR-EOM, pCC
   Robert Izsak           : Overlap fitted RIJCOSX, COSX-SCS-MP3, EOM
   Marcus Kettner         : VPT2
   Christian Kollmar      : KDIIS, OOCD, Brueckner-CCSD(T), CCSD density, CASPT2, CASPT2-K
   Simone Kossmann        : Meta GGA functionals, TD-DFT gradient, OOMP2, MP2 Hessian
   Martin Krupicka        : Initial AUTO-CI
   Lucas Lang             : DCDCAS
   Marvin Lechner         : AUTO-CI (C++ implementation), FIC-MRCC
   Dagmar Lenk            : GEPOL surface, SMD
   Dimitrios Liakos       : Extrapolation schemes; Compound Job, initial MDCI parallelization
   Dimitrios Manganas     : Further ROCIS development; embedding schemes
   Dimitrios Pantazis     : SARC Basis sets
   Anastasios Papadopoulos: AUTO-CI, single reference methods and gradients
   Taras Petrenko         : DFT Hessian,TD-DFT gradient, ASA, ECA, R-Raman, ABS, FL, XAS/XES, NRVS
   Peter Pinski           : DLPNO-MP2, DLPNO-MP2 Gradient
   Christoph Reimann      : Effective Core Potentials
   Marius Retegan         : Local ZFS, SOC
   Christoph Riplinger    : Optimizer, TS searches, QM/MM, DLPNO-CCSD(T), (RO)-DLPNO pert. Triples
   Tobias Risthaus        : Range-separated hybrids, TD-DFT gradient, RPA, STAB
   Michael Roemelt        : Original ROCIS implementation
   Masaaki Saitow         : Open-shell DLPNO-CCSD energy and density
   Barbara Sandhoefer     : DKH picture change effects
   Avijit Sen             : IP-ROCIS
   Kantharuban Sivalingam : CASSCF convergence, NEVPT2, FIC-MRCI
   Bernardo de Souza      : ESD, SOC TD-DFT
   Georgi Stoychev        : AutoAux, RI-MP2 NMR, DLPNO-MP2 response
   Willem Van den Heuvel  : Paramagnetic NMR
   Boris Wezisla          : Elementary symmetry handling
   Frank Wennmohs         : Technical directorship


 We gratefully acknowledge several colleagues who have allowed us to
 interface, adapt or use parts of their codes:
   Stefan Grimme, W. Hujo, H. Kruse, P. Pracht,  : VdW corrections, initial TS optimization,
                  C. Bannwarth, S. Ehlert          DFT functionals, gCP, sTDA/sTD-DF
   Ed Valeev, F. Pavosevic, A. Kumar             : LibInt (2-el integral package), F12 methods
   Garnet Chan, S. Sharma, J. Yang, R. Olivares  : DMRG
   Ulf Ekstrom                                   : XCFun DFT Library
   Mihaly Kallay                                 : mrcc  (arbitrary order and MRCC methods)
   Jiri Pittner, Ondrej Demel                    : Mk-CCSD
   Frank Weinhold                                : gennbo (NPA and NBO analysis)
   Christopher J. Cramer and Donald G. Truhlar   : smd solvation model
   Lars Goerigk                                  : TD-DFT with DH, B97 family of functionals
   V. Asgeirsson, H. Jonsson                     : NEB implementation
   FAccTs GmbH                                   : IRC, NEB, NEB-TS, DLPNO-Multilevel, CI-OPT
                                                   MM, QMMM, 2- and 3-layer-ONIOM, Crystal-QMMM,
                                                   LR-CPCM, SF, NACMEs, symmetry and pop. for TD-DFT,
                                                   nearIR, NL-DFT gradient (VV10), updates on ESD,
                                                   ML-optimized integration grids
   S Lehtola, MJT Oliveira, MAL Marques          : LibXC Library
   Liviu Ungur et al                             : ANISO software


 Your calculation uses the libint2 library for the computation of 2-el integrals
 For citations please refer to: http://libint.valeyev.net

 Your ORCA version has been built with support for libXC version: 5.1.0
 For citations please refer to: https://tddft.org/programs/libxc/

 This ORCA versions uses:
   CBLAS   interface :  Fast vector & matrix operations
   LAPACKE interface :  Fast linear algebra routines
   SCALAPACK package :  Parallel linear algebra routines
   Shared memory     :  Shared parallel matrices
   BLAS/LAPACK       :  OpenBLAS 0.3.15  USE64BITINT DYNAMIC_ARCH NO_AFFINITY Haswell SINGLE_THREADED
        Core in use  :  Haswell
   Copyright (c) 2011-2014, The OpenBLAS Project


Your calculation utilizes the atom-pairwise dispersion correction
with the Becke-Johnson damping scheme (D3BJ)
Cite in your paper:
S.Grimme, S.Ehrlich, L.Goerigk, J Comput Chem, (2011), 32, 1456–1465 
S.Grimme, J.Antony, S.Ehrlich and H.Krieg, J.Chem.Phys., 132, (2010), 154104 
   

================================================================================

----- Orbital basis set information -----
Your calculation utilizes the basis: def2-TZVP
   F. Weigend and R. Ahlrichs, Phys. Chem. Chem. Phys. 7, 3297 (2005).

----- AuxJ basis set information -----
Your calculation utilizes the auxiliary basis: def2/J
   F. Weigend, Phys. Chem. Chem. Phys. 8, 1057 (2006).

================================================================================
                                        WARNINGS
                       Please study these warnings very carefully!
================================================================================


WARNING: Geometry Optimization
  ===> : Switching off AutoStart
         For restart on a previous wavefunction, please use MOREAD

INFO   : the flag for use of the SHARK integral package has been found!

================================================================================
                                       INPUT FILE
================================================================================
NAME = NMe2-PhenO/NMe2-PhenO.inp
|  1> %pal nprocs 24 end
|  2> %maxcore 3500
|  3> ! PBE0 D3BJ def2-TZVP TightSCF OPT FREQ TightOpt
|  4> ! CPCM(dmso)
|  5> %scf
|  6> MaxIter 800
|  7> end
|  8> %geom
|  9> MaxIter 800
| 10> MaxStep 0.2
| 11> end
| 12> *xyz -1 1
| 13> 
| 14> C      -0.04217400     -0.49732500     -1.59811000
| 15> C       0.29922000      0.65375700     -0.87942700
| 16> C      -0.39619900     -1.61994700     -0.85032000
| 17> H       0.60168600      1.54475100     -1.42339700
| 18> H      -0.66993300     -2.54160800     -1.35251100
| 19> C       0.27576000      0.68798500      0.50187200
| 20> C      -0.40412800     -1.59975200      0.53991500
| 21> H       0.54895500      1.60528600      1.01808000
| 22> H      -0.67510200     -2.50280200      1.08190800
| 23> C      -0.07764700     -0.44314100      1.29853200
| 24> O      -0.09150500     -0.41270600      2.58247700
| 25> N       0.01402200     -0.48213200     -3.02132400
| 26> C      -0.88061000      0.48119800     -3.63578800
| 27> H      -0.66729900      0.54670900     -4.70574700
| 28> H      -1.94134100      0.20066300     -3.51374700
| 29> H      -0.73822300      1.46976400     -3.20076300
| 30> C      -0.09686000     -1.76926400     -3.66171000
| 31> H       0.09075500     -1.65006100     -4.73120600
| 32> H       0.64503300     -2.46053500     -3.25702300
| 33> H      -1.09298800     -2.23185100     -3.54740900
| 34> *
| 35> 
| 36>                          ****END OF INPUT****
================================================================================

                       *****************************
                       * Geometry Optimization Run *
                       *****************************

Geometry optimization settings:
Update method            Update   .... BFGS
Choice of coordinates    CoordSys .... Z-matrix Internals
Initial Hessian          InHess   .... Almoef's Model

Convergence Tolerances:
Energy Change            TolE     ....  1.0000e-06 Eh
Max. Gradient            TolMAXG  ....  1.0000e-04 Eh/bohr
RMS Gradient             TolRMSG  ....  3.0000e-05 Eh/bohr
Max. Displacement        TolMAXD  ....  1.0000e-03 bohr
RMS Displacement         TolRMSD  ....  6.0000e-04 bohr
Strict Convergence                ....  False
------------------------------------------------------------------------------
                        ORCA OPTIMIZATION COORDINATE SETUP
------------------------------------------------------------------------------

The optimization will be done in new redundant internal coordinates
Making redundant internal coordinates   ...  (new redundants) done
Evaluating the initial hessian          ...  (Almloef) done
Evaluating the coordinates              ...  done
Calculating the B-matrix                .... done
Calculating the G-matrix                .... done
Diagonalizing the G-matrix              .... done
Small eigenvalue found = 2.165e-02
The first mode is                       ....   39
The number of degrees of freedom        ....   54

    -----------------------------------------------------------------
                    Redundant Internal Coordinates


    -----------------------------------------------------------------
         Definition                    Initial Value    Approx d2E/dq
    -----------------------------------------------------------------
      1. B(C   1,C   0)                  1.3993         0.603807   
      2. B(C   2,C   0)                  1.3946         0.614412   
      3. B(H   3,C   1)                  1.0869         0.364281   
      4. B(H   4,C   2)                  1.0847         0.367173   
      5. B(C   5,C   1)                  1.3819         0.643615   
      6. B(C   6,C   2)                  1.3904         0.623869   
      7. B(H   7,C   5)                  1.0874         0.363489   
      8. B(H   8,C   6)                  1.0875         0.363406   
      9. B(C   9,C   6)                  1.4212         0.557115   
     10. B(C   9,C   5)                  1.4279         0.543512   
     11. B(O  10,C   9)                  1.2844         0.824869   
     12. B(N  11,C   0)                  1.4244         0.493158   
     13. B(C  12,N  11)                  1.4512         0.446950   
     14. B(H  13,C  12)                  1.0930         0.356179   
     15. B(H  14,C  12)                  1.1040         0.342089   
     16. B(H  15,C  12)                  1.0894         0.360900   
     17. B(C  16,N  11)                  1.4419         0.462445   
     18. B(H  17,C  16)                  1.0924         0.357003   
     19. B(H  18,C  16)                  1.0918         0.357724   
     20. B(H  19,C  16)                  1.1042         0.341760   
     21. A(C   1,C   0,N  11)          119.6548         0.412008   
     22. A(C   2,C   0,N  11)          123.6675         0.413283   
     23. A(C   1,C   0,C   2)          116.6626         0.431303   
     24. A(C   0,C   1,C   5)          121.9786         0.434920   
     25. A(H   3,C   1,C   5)          118.9923         0.355848   
     26. A(C   0,C   1,H   3)          119.0261         0.352019   
     27. A(C   0,C   2,H   4)          119.9872         0.353531   
     28. A(H   4,C   2,C   6)          118.2826         0.354447   
     29. A(C   0,C   2,C   6)          121.7294         0.433845   
     30. A(H   7,C   5,C   9)          117.7449         0.345704   
     31. A(C   1,C   5,C   9)          122.8362         0.426780   
     32. A(C   1,C   5,H   7)          119.4136         0.355716   
     33. A(C   2,C   6,C   9)          122.9719         0.426288   
     34. A(H   8,C   6,C   9)          117.8394         0.347131   
     35. A(C   2,C   6,H   8)          119.1881         0.353828   
     36. A(C   5,C   9,O  10)          122.7940         0.443353   
     37. A(C   5,C   9,C   6)          113.8104         0.415924   
     38. A(C   6,C   9,O  10)          123.3950         0.445341   
     39. A(C   0,N  11,C  16)          115.5436         0.390583   
     40. A(C  12,N  11,C  16)          110.9227         0.383941   
     41. A(C   0,N  11,C  12)          113.9430         0.388265   
     42. A(H  14,C  12,H  15)          108.1819         0.288609   
     43. A(H  13,C  12,H  15)          108.1205         0.290441   
     44. A(N  11,C  12,H  15)          110.6539         0.332172   
     45. A(H  13,C  12,H  14)          108.1178         0.288015   
     46. A(N  11,C  12,H  14)          112.1383         0.329244   
     47. A(N  11,C  12,H  13)          109.5103         0.331449   
     48. A(N  11,C  16,H  19)          113.4129         0.331051   
     49. A(H  17,C  16,H  18)          108.3782         0.290144   
     50. A(N  11,C  16,H  18)          110.3840         0.333565   
     51. A(N  11,C  16,H  17)          108.9179         0.333454   
     52. A(H  18,C  16,H  19)          108.0220         0.288167   
     53. A(H  17,C  16,H  19)          107.5778         0.288076   
     54. D(C   5,C   1,C   0,C   2)     -0.6465         0.025151   
     55. D(H   3,C   1,C   0,N  11)      0.0853         0.025151   
     56. D(H   3,C   1,C   0,C   2)    178.7197         0.025151   
     57. D(C   5,C   1,C   0,N  11)   -179.2808         0.025151   
     58. D(H   4,C   2,C   0,C   1)   -179.9602         0.026094   
     59. D(H   4,C   2,C   0,N  11)     -1.3861         0.026094   
     60. D(C   6,C   2,C   0,N  11)    178.2906         0.026094   
     61. D(C   6,C   2,C   0,C   1)     -0.2835         0.026094   
     62. D(C   9,C   5,C   1,H   3)   -178.4907         0.028803   
     63. D(C   9,C   5,C   1,C   0)      0.8757         0.028803   
     64. D(H   7,C   5,C   1,H   3)      0.6487         0.028803   
     65. D(H   7,C   5,C   1,C   0)   -179.9850         0.028803   
     66. D(C   9,C   6,C   2,C   0)      1.0418         0.026953   
     67. D(H   8,C   6,C   2,H   4)      0.4432         0.026953   
     68. D(H   8,C   6,C   2,C   0)   -179.2388         0.026953   
     69. D(C   9,C   6,C   2,H   4)   -179.2762         0.026953   
     70. D(O  10,C   9,C   6,H   8)     -0.2331         0.021252   
     71. D(C   5,C   9,C   6,H   8)    179.4810         0.021252   
     72. D(C   5,C   9,C   6,C   2)     -0.7960         0.021252   
     73. D(O  10,C   9,C   5,H   7)      0.4219         0.020193   
     74. D(O  10,C   9,C   5,C   1)    179.5748         0.020193   
     75. D(O  10,C   9,C   6,C   2)    179.4899         0.021252   
     76. D(C   6,C   9,C   5,H   7)   -179.2942         0.020193   
     77. D(C   6,C   9,C   5,C   1)     -0.1413         0.020193   
     78. D(C  16,N  11,C   0,C   2)    -10.2191         0.019211   
     79. D(C  16,N  11,C   0,C   1)    168.3145         0.019211   
     80. D(C  12,N  11,C   0,C   2)    119.9667         0.019211   
     81. D(C  12,N  11,C   0,C   1)    -61.4996         0.019211   
     82. D(H  14,C  12,N  11,C   0)    -68.9549         0.017039   
     83. D(H  13,C  12,N  11,C  16)    -56.5327         0.017039   
     84. D(H  13,C  12,N  11,C   0)    171.0237         0.017039   
     85. D(H  15,C  12,N  11,C  16)   -175.6230         0.017039   
     86. D(H  15,C  12,N  11,C   0)     51.9334         0.017039   
     87. D(H  14,C  12,N  11,C  16)     63.4887         0.017039   
     88. D(H  19,C  16,N  11,C  12)    -63.9734         0.018259   
     89. D(H  19,C  16,N  11,C   0)     67.6518         0.018259   
     90. D(H  18,C  16,N  11,C  12)    174.6568         0.018259   
     91. D(H  18,C  16,N  11,C   0)    -53.7179         0.018259   
     92. D(H  17,C  16,N  11,C  12)     55.7814         0.018259   
     93. D(H  17,C  16,N  11,C   0)   -172.5933         0.018259   
    -----------------------------------------------------------------

Number of atoms                         .... 20
Number of degrees of freedom            .... 93

         *************************************************************
         *                GEOMETRY OPTIMIZATION CYCLE   1            *
         *************************************************************
---------------------------------
CARTESIAN COORDINATES (ANGSTROEM)
---------------------------------
  C     -0.042174   -0.497325   -1.598110
  C      0.299220    0.653757   -0.879427
  C     -0.396199   -1.619947   -0.850320
  H      0.601686    1.544751   -1.423397
  H     -0.669933   -2.541608   -1.352511
  C      0.275760    0.687985    0.501872
  C     -0.404128   -1.599752    0.539915
  H      0.548955    1.605286    1.018080
  H     -0.675102   -2.502802    1.081908
  C     -0.077647   -0.443141    1.298532
  O     -0.091505   -0.412706    2.582477
  N      0.014022   -0.482132   -3.021324
  C     -0.880610    0.481198   -3.635788
  H     -0.667299    0.546709   -4.705747
  H     -1.941341    0.200663   -3.513747
  H     -0.738223    1.469764   -3.200763
  C     -0.096860   -1.769264   -3.661710
  H      0.090755   -1.650061   -4.731206
  H      0.645033   -2.460535   -3.257023
  H     -1.092988   -2.231851   -3.547409

----------------------------
CARTESIAN COORDINATES (A.U.)
----------------------------
  NO LB      ZA    FRAG     MASS         X           Y           Z
   0 C     6.0000    0    12.011   -0.079697   -0.939808   -3.019990
   1 C     6.0000    0    12.011    0.565444    1.235422   -1.661876
   2 C     6.0000    0    12.011   -0.748708   -3.061256   -1.606872
   3 H     1.0000    0     1.008    1.137022    2.919156   -2.689831
   4 H     1.0000    0     1.008   -1.265990   -4.802943   -2.555875
   5 C     6.0000    0    12.011    0.521111    1.300103    0.948401
   6 C     6.0000    0    12.011   -0.763691   -3.023093    1.020291
   7 H     1.0000    0     1.008    1.037375    3.033551    1.923892
   8 H     1.0000    0     1.008   -1.275758   -4.729610    2.044510
   9 C     6.0000    0    12.011   -0.146732   -0.837415    2.453870
  10 O     8.0000    0    15.999   -0.172919   -0.779901    4.880174
  11 N     7.0000    0    14.007    0.026498   -0.911097   -5.709475
  12 C     6.0000    0    12.011   -1.664112    0.909332   -6.870644
  13 H     1.0000    0     1.008   -1.261012    1.033130   -8.892573
  14 H     1.0000    0     1.008   -3.668603    0.379198   -6.640020
  15 H     1.0000    0     1.008   -1.395039    2.777451   -6.048565
  16 C     6.0000    0    12.011   -0.183039   -3.343424   -6.919629
  17 H     1.0000    0     1.008    0.171502   -3.118163   -8.940684
  18 H     1.0000    0     1.008    1.218936   -4.649737   -6.154881
  19 H     1.0000    0     1.008   -2.065448   -4.217587   -6.703631

--------------------------------
INTERNAL COORDINATES (ANGSTROEM)
--------------------------------
 C      0   0   0     0.000000000000     0.00000000     0.00000000
 C      1   0   0     1.399301571660     0.00000000     0.00000000
 C      1   2   0     1.394562203564   116.66257405     0.00000000
 H      2   1   3     1.086857557407   119.02613471   178.71967357
 H      3   1   2     1.084705076119   119.98722264   180.03980497
 C      2   1   3     1.381922159525   121.97860815   359.35354084
 C      3   1   2     1.390404280161   121.72943004   359.71649471
 H      6   2   1     1.087449921555   119.41355961   180.01499328
 H      7   3   1     1.087512125553   119.18808620   180.76124174
 C      7   3   1     1.421210259381   122.97190777     1.04180585
 O     10   7   3     1.284380432899   123.39496199   179.48985789
 N      1   2   3     1.424404053442   119.65475734   181.36562071
 C     12   1   2     1.451184726911   113.94298284   298.50036487
 H     13  12   1     1.092980116710   109.51029860   171.02373119
 H     13  12   1     1.103967457069   112.13830399   291.04513948
 H     13  12   1     1.089395954073   110.65392246    51.93338130
 C     12   1   2     1.441907705904   115.54360697   168.31452661
 H     17  12   1     1.092350876527   108.91787282   187.40668354
 H     17  12   1     1.091802357050   110.38404815   306.28205788
 H     17  12   1     1.104229343730   113.41289431    67.65183475

---------------------------
INTERNAL COORDINATES (A.U.)
---------------------------
 C      0   0   0     0.000000000000     0.00000000     0.00000000
 C      1   0   0     2.644296749202     0.00000000     0.00000000
 C      1   2   0     2.635340641454   116.66257405     0.00000000
 H      2   1   3     2.053863130081   119.02613471   178.71967357
 H      3   1   2     2.049795529939   119.98722264   180.03980497
 C      2   1   3     2.611454419898   121.97860815   359.35354084
 C      3   1   2     2.627483304937   121.72943004   359.71649471
 H      6   2   1     2.054982536093   119.41355961   180.01499328
 H      7   3   1     2.055100084614   119.18808620   180.76124174
 C      7   3   1     2.685698168950   122.97190777     1.04180585
 O     10   7   3     2.427127269946   123.39496199   179.48985789
 N      1   2   3     2.691733565052   119.65475734   181.36562071
 C     12   1   2     2.742341703591   113.94298284   298.50036487
 H     13  12   1     2.065433090403   109.51029860   171.02373119
 H     13  12   1     2.086196154622   112.13830399   291.04513948
 H     13  12   1     2.058660004599   110.65392246    51.93338130
 C     12   1   2     2.724810674548   115.54360697   168.31452661
 H     17  12   1     2.064243998785   108.91787282   187.40668354
 H     17  12   1     2.063207447193   110.38404815   306.28205788
 H     17  12   1     2.086691048689   113.41289431    67.65183475

---------------------
BASIS SET INFORMATION
---------------------
There are 4 groups of distinct atoms

 Group   1 Type C   : 11s6p2d1f contracted to 5s3p2d1f pattern {62111/411/11/1}
 Group   2 Type H   : 5s1p contracted to 3s1p pattern {311/1}
 Group   3 Type O   : 11s6p2d1f contracted to 5s3p2d1f pattern {62111/411/11/1}
 Group   4 Type N   : 11s6p2d1f contracted to 5s3p2d1f pattern {62111/411/11/1}

Atom   0C    basis set group =>   1
Atom   1C    basis set group =>   1
Atom   2C    basis set group =>   1
Atom   3H    basis set group =>   2
Atom   4H    basis set group =>   2
Atom   5C    basis set group =>   1
Atom   6C    basis set group =>   1
Atom   7H    basis set group =>   2
Atom   8H    basis set group =>   2
Atom   9C    basis set group =>   1
Atom  10O    basis set group =>   3
Atom  11N    basis set group =>   4
Atom  12C    basis set group =>   1
Atom  13H    basis set group =>   2
Atom  14H    basis set group =>   2
Atom  15H    basis set group =>   2
Atom  16C    basis set group =>   1
Atom  17H    basis set group =>   2
Atom  18H    basis set group =>   2
Atom  19H    basis set group =>   2
---------------------------------
AUXILIARY/J BASIS SET INFORMATION
---------------------------------
There are 4 groups of distinct atoms

 Group   1 Type C   : 12s5p4d2f1g contracted to 6s4p3d1f1g pattern {711111/2111/211/2/1}
 Group   2 Type H   : 5s2p1d contracted to 3s1p1d pattern {311/2/1}
 Group   3 Type O   : 12s5p4d2f1g contracted to 6s4p3d1f1g pattern {711111/2111/211/2/1}
 Group   4 Type N   : 12s5p4d2f1g contracted to 6s4p3d1f1g pattern {711111/2111/211/2/1}

Atom   0C    basis set group =>   1
Atom   1C    basis set group =>   1
Atom   2C    basis set group =>   1
Atom   3H    basis set group =>   2
Atom   4H    basis set group =>   2
Atom   5C    basis set group =>   1
Atom   6C    basis set group =>   1
Atom   7H    basis set group =>   2
Atom   8H    basis set group =>   2
Atom   9C    basis set group =>   1
Atom  10O    basis set group =>   3
Atom  11N    basis set group =>   4
Atom  12C    basis set group =>   1
Atom  13H    basis set group =>   2
Atom  14H    basis set group =>   2
Atom  15H    basis set group =>   2
Atom  16C    basis set group =>   1
Atom  17H    basis set group =>   2
Atom  18H    basis set group =>   2
Atom  19H    basis set group =>   2


           ************************************************************
           *        Program running with 24 parallel MPI-processes    *
           *              working on a common directory               *
           ************************************************************
------------------------------------------------------------------------------
                           ORCA GTO INTEGRAL CALCULATION
                           -- RI-GTO INTEGRALS CHOSEN --
------------------------------------------------------------------------------
------------------------------------------------------------------------------
                   ___                                                        
                  /   \      - P O W E R E D   B Y -                         
                 /     \                                                     
                 |  |  |   _    _      __       _____    __    __             
                 |  |  |  | |  | |    /  \     |  _  \  |  |  /  |          
                  \  \/   | |  | |   /    \    | | | |  |  | /  /          
                 / \  \   | |__| |  /  /\  \   | |_| |  |  |/  /          
                |  |  |   |  __  | /  /__\  \  |    /   |      \           
                |  |  |   | |  | | |   __   |  |    \   |  |\   \          
                \     /   | |  | | |  |  |  |  | |\  \  |  | \   \       
                 \___/    |_|  |_| |__|  |__|  |_| \__\ |__|  \__/        
                                                                              
                      - O R C A' S   B I G   F R I E N D -                    
                                      &                                       
                       - I N T E G R A L  F E E D E R -                       
                                                                              
 v1 FN, 2020, v2 2021                                                         
------------------------------------------------------------------------------


Reading SHARK input file NMe2-PhenO/NMe2-PhenO.SHARKINP.tmp ... ok
----------------------
SHARK INTEGRAL PACKAGE
----------------------

Number of atoms                             ...     20
Number of basis functions                   ...    370
Number of shells                            ...    150
Maximum angular momentum                    ...      3
Integral batch strategy                     ... SHARK/LIBINT Hybrid
RI-J (if used) integral strategy            ... SPLIT-RIJ (Revised 2003 algorithm where possible)
Printlevel                                  ...      1
Contraction scheme used                     ... SEGMENTED contraction
Coulomb Range Separation                    ... NOT USED
Exchange Range Separation                   ... NOT USED
Finite Nucleus Model                        ... NOT USED
Auxiliary Coulomb fitting basis             ... AVAILABLE
   # of basis functions in Aux-J            ...    600
   # of shells in Aux-J                     ...    200
   Maximum angular momentum in Aux-J        ...      4
Auxiliary J/K fitting basis                 ... NOT available
Auxiliary Correlation fitting basis         ... NOT available
Auxiliary 'external' fitting basis          ... NOT available
Integral threshold                          ...     2.500000e-11
Primitive cut-off                           ...     2.500000e-12
Primitive pair pre-selection threshold      ...     2.500000e-12

Calculating pre-screening integrals         ... done (  0.1 sec) Dimension = 150
Organizing shell pair data                  ... done (  0.1 sec)
Shell pair information
Total number of shell pairs                 ...     11325
Shell pairs after pre-screening             ...      9938
Total number of primitive shell pairs       ...     34180
Primitive shell pairs kept                  ...     22061
          la=0 lb=0:   2732 shell pairs
          la=1 lb=0:   2839 shell pairs
          la=1 lb=1:    756 shell pairs
          la=2 lb=0:   1412 shell pairs
          la=2 lb=1:    733 shell pairs
          la=2 lb=2:    191 shell pairs
          la=3 lb=0:    687 shell pairs
          la=3 lb=1:    359 shell pairs
          la=3 lb=2:    177 shell pairs
          la=3 lb=3:     52 shell pairs

Calculating one electron integrals          ... done (  0.0 sec)
Calculating RI/J V-Matrix + Cholesky decomp.... done (  0.1 sec)
Calculating Nuclear repulsion               ... done (  0.0 sec) ENN=    501.099147785521 Eh

SHARK setup successfully completed in   0.6 seconds

Maximum memory used throughout the entire GTOINT-calculation: 23.0 MB


           ************************************************************
           *        Program running with 24 parallel MPI-processes    *
           *              working on a common directory               *
           ************************************************************
-------------------------------------------------------------------------------
                                 ORCA SCF
-------------------------------------------------------------------------------

------------
SCF SETTINGS
------------
Hamiltonian:
 Density Functional     Method          .... DFT(GTOs)
 Exchange Functional    Exchange        .... PBE
   PBE kappa parameter   XKappa         ....  0.804000
   PBE mue parameter    XMuePBE         ....  0.219520
 Correlation Functional Correlation     .... PBE
   PBE beta parameter  CBetaPBE         ....  0.066725
 LDA part of GGA corr.  LDAOpt          .... PW91-LDA
 Gradients option       PostSCFGGA      .... off
 Hybrid DFT is turned on
   Fraction HF Exchange ScalHFX         ....  0.250000
   Scaling of DF-GGA-X  ScalDFX         ....  0.750000
   Scaling of DF-GGA-C  ScalDFC         ....  1.000000
   Scaling of DF-LDA-C  ScalLDAC        ....  1.000000
   Perturbative correction              ....  0.000000
   Density functional embedding theory  .... OFF
   NL short-range parameter             ....  6.900000
 RI-approximation to the Coulomb term is turned on
   Number of AuxJ basis functions       .... 600
   RIJ-COSX (HFX calculated with COS-X)).... on


General Settings:
 Integral files         IntName         .... NMe2-PhenO/NMe2-PhenO
 Hartree-Fock type      HFTyp           .... RHF
 Total Charge           Charge          ....   -1
 Multiplicity           Mult            ....    1
 Number of Electrons    NEL             ....   74
 Basis Dimension        Dim             ....  370
 Nuclear Repulsion      ENuc            ....    501.0991477855 Eh

Convergence Acceleration:
 DIIS                   CNVDIIS         .... on
   Start iteration      DIISMaxIt       ....    12
   Startup error        DIISStart       ....  0.200000
   # of expansion vecs  DIISMaxEq       ....     5
   Bias factor          DIISBfac        ....   1.050
   Max. coefficient     DIISMaxC        ....  10.000
 Trust-Rad. Augm. Hess. CNVTRAH         .... auto
   Auto Start mean grad. ratio tolernc. ....  1.125000
   Auto Start start iteration           ....    20
   Auto Start num. interpolation iter.  ....    10
   Max. Number of Micro iterations      ....    16
   Max. Number of Macro iterations      .... Maxiter - #DIIS iter
   Number of Davidson start vectors     ....     2
   Converg. threshold I  (grad. norm)   ....   1.000e-05
   Converg. threshold II (energy diff.) ....   1.000e-08
   Grad. Scal. Fac. for Micro threshold ....   0.100
   Minimum threshold for Micro iter.    ....   0.010
   NR start threshold (gradient norm)   ....   0.001
   Initial trust radius                 ....   0.400
   Minimum AH scaling param. (alpha)    ....   1.000
   Maximum AH scaling param. (alpha)    .... 1000.000
   Orbital update algorithm             .... Taylor
   White noise on init. David. guess    .... on
   Maximum white noise                  ....   0.010
   Quad. conv. algorithm                .... NR
 SOSCF                  CNVSOSCF        .... on
   Start iteration      SOSCFMaxIt      ....   150
   Startup grad/error   SOSCFStart      ....  0.003300
 Level Shifting         CNVShift        .... on
   Level shift para.    LevelShift      ....    0.2500
   Turn off err/grad.   ShiftErr        ....    0.0010
 Zerner damping         CNVZerner       .... off
 Static damping         CNVDamp         .... on
   Fraction old density DampFac         ....    0.7000
   Max. Damping (<1)    DampMax         ....    0.9800
   Min. Damping (>=0)   DampMin         ....    0.0000
   Turn off err/grad.   DampErr         ....    0.1000
 Fernandez-Rico         CNVRico         .... off

SCF Procedure:
 Maximum # iterations   MaxIter         ....   800
 SCF integral mode      SCFMode         .... Direct
   Integral package                     .... SHARK and LIBINT hybrid scheme
 Reset frequency        DirectResetFreq ....    20
 Integral Threshold     Thresh          ....  2.500e-11 Eh
 Primitive CutOff       TCut            ....  2.500e-12 Eh

Convergence Tolerance:
 Convergence Check Mode ConvCheckMode   .... Total+1el-Energy
 Convergence forced     ConvForced      .... 0
 Energy Change          TolE            ....  1.000e-08 Eh
 1-El. energy change                    ....  1.000e-05 Eh
 Orbital Gradient       TolG            ....  1.000e-05
 Orbital Rotation angle TolX            ....  1.000e-05
 DIIS Error             TolErr          ....  5.000e-07


Diagonalization of the overlap matrix:
Smallest eigenvalue                        ... 1.048e-05
Time for diagonalization                   ...    0.031 sec
Threshold for overlap eigenvalues          ... 1.000e-08
Number of eigenvalues below threshold      ... 0
Time for construction of square roots      ...    0.024 sec
Total time needed                          ...    0.058 sec

Time for model grid setup =    0.120 sec

------------------------------
INITIAL GUESS: MODEL POTENTIAL
------------------------------
Loading Hartree-Fock densities                     ... done
Calculating cut-offs                               ... done
Initializing the effective Hamiltonian             ... done
Setting up the integral package (SHARK)            ... done
Starting the Coulomb interaction                   ... done (   0.1 sec)
Reading the grid                                   ... done
Mapping shells                                     ... done
Starting the XC term evaluation                    ... done (   0.0 sec)
  promolecular density results
     # of electrons  =     72.998348932
     EX              =    -58.538415301
     EC              =     -2.423931763
     EX+EC           =    -60.962347064
Transforming the Hamiltonian                       ... done (   0.0 sec)
Diagonalizing the Hamiltonian                      ... done (   0.0 sec)
Back transforming the eigenvectors                 ... done (   0.0 sec)
Now organizing SCF variables                       ... done
                      ------------------
                      INITIAL GUESS DONE (   0.4 sec)
                      ------------------
-------------------
DFT GRID GENERATION
-------------------

General Integration Accuracy     IntAcc      ... 4.388
Radial Grid Type                 RadialGrid  ... OptM3 with GC (2021)
Angular Grid (max. ang.)         AngularGrid ... 4 (Lebedev-302)
Angular grid pruning method      GridPruning ... 4 (adaptive)
Weight generation scheme         WeightScheme... Becke
Basis function cutoff            BFCut       ... 1.0000e-11
Integration weight cutoff        WCut        ... 1.0000e-14
Angular grids for H and He will be reduced by one unit
Partially contracted basis set               ... off
Rotationally invariant grid construction     ... off

Total number of grid points                  ...    92086
Total number of batches                      ...     1449
Average number of points per batch           ...       63
Average number of grid points per atom       ...     4604
Time for grid setup =    0.506 sec

--------------------
COSX GRID GENERATION
--------------------

GRIDX 1
-------
General Integration Accuracy     IntAcc      ... 3.816
Radial Grid Type                 RadialGrid  ... OptM3 with GC (2021)
Angular Grid (max. ang.)         AngularGrid ... 1 (Lebedev-50)
Angular grid pruning method      GridPruning ... 4 (adaptive)
Weight generation scheme         WeightScheme... Becke
Basis function cutoff            BFCut       ... 1.0000e-11
Integration weight cutoff        WCut        ... 1.0000e-14
Angular grids for H and He will be reduced by one unit
Partially contracted basis set               ... on
Rotationally invariant grid construction     ... off

Total number of grid points                  ...    11767
Total number of batches                      ...      194
Average number of points per batch           ...       60
Average number of grid points per atom       ...      588
UseSFitting                                  ... on

GRIDX 2
-------
General Integration Accuracy     IntAcc      ... 4.020
Radial Grid Type                 RadialGrid  ... OptM3 with GC (2021)
Angular Grid (max. ang.)         AngularGrid ... 2 (Lebedev-110)
Angular grid pruning method      GridPruning ... 4 (adaptive)
Weight generation scheme         WeightScheme... Becke
Basis function cutoff            BFCut       ... 1.0000e-11
Integration weight cutoff        WCut        ... 1.0000e-14
Angular grids for H and He will be reduced by one unit
Partially contracted basis set               ... on
Rotationally invariant grid construction     ... off

Total number of grid points                  ...    25424
Total number of batches                      ...      407
Average number of points per batch           ...       62
Average number of grid points per atom       ...     1271
UseSFitting                                  ... on

GRIDX 3
-------
General Integration Accuracy     IntAcc      ... 4.338
Radial Grid Type                 RadialGrid  ... OptM3 with GC (2021)
Angular Grid (max. ang.)         AngularGrid ... 3 (Lebedev-194)
Angular grid pruning method      GridPruning ... 4 (adaptive)
Weight generation scheme         WeightScheme... Becke
Basis function cutoff            BFCut       ... 1.0000e-11
Integration weight cutoff        WCut        ... 1.0000e-14
Angular grids for H and He will be reduced by one unit
Partially contracted basis set               ... on
Rotationally invariant grid construction     ... off

Total number of grid points                  ...    55702
Total number of batches                      ...      880
Average number of points per batch           ...       63
Average number of grid points per atom       ...     2785
UseSFitting                                  ... on

Time for X-Grid setup             =    0.715 sec


--------------------
CPCM SOLVATION MODEL
--------------------
CPCM parameters:
  Epsilon                                         ...      47.2000
  Refrac                                          ...       1.4790
  Rsolv                                           ...       1.3000
  Surface type                                    ... GAUSSIAN VDW
  Epsilon function type                           ...         CPCM
Radii:
 Radius for C  used is    3.8550 Bohr (=   2.0400 Ang.)
 Radius for H  used is    2.4944 Bohr (=   1.3200 Ang.)
 Radius for O  used is    3.4469 Bohr (=   1.8240 Ang.)
 Radius for N  used is    3.5149 Bohr (=   1.8600 Ang.)
Calculating surface                               ...        done! (  0.0s)
GEPOL surface points                              ...         1094
GEPOL Volume                                      ...    1188.9885
GEPOL Surface-area                                ...     659.2805
Calculating surface distance matrix               ...        done! (  0.0s)
Performing Cholesky decomposition & store         ...        done! (  0.1s)
Overall time for CPCM initialization              ...                 0.1s
--------------
SCF ITERATIONS
--------------
ITER       Energy         Delta-E        Max-DP      RMS-DP      [F,P]     Damp
               ***  Starting incremental Fock matrix formation  ***
  0   -440.2560701306   0.000000000000 0.60183458  0.00595562  0.3419987 0.7000
  1   -440.4120549444  -0.155984813844 0.58367054  0.00578948  0.1463554 0.7000
                               ***Turning on DIIS***
  2   -440.4785150763  -0.066460131867 0.66339533  0.00739775  0.0432401 0.0000
  3   -440.5775477550  -0.099032678722 0.57056939  0.00540208  0.0853126 0.0000
  4   -440.6008916255  -0.023343870499 0.11415356  0.00112654  0.0157049 0.0000
  5   -440.6020583592  -0.001166733752 0.06342471  0.00061845  0.0122055 0.0000
                      *** Initiating the SOSCF procedure ***
                           *** Shutting down DIIS ***
                      *** Re-Reading the Fockian *** 
                      *** Removing any level shift *** 
ITER      Energy       Delta-E        Grad      Rot      Max-DP    RMS-DP
  6   -440.60223450  -0.0001761430  0.000267  0.000267  0.029295  0.000287
               *** Restarting incremental Fock matrix formation ***
  7   -440.60224462  -0.0000101161  0.000138  0.000654  0.007367  0.000083
  8   -440.60224311   0.0000015068  0.000256  0.000377  0.004213  0.000042
  9   -440.60224584  -0.0000027281  0.000025  0.000103  0.000627  0.000007
 10   -440.60224581   0.0000000267  0.000032  0.000052  0.000636  0.000007
 11   -440.60224586  -0.0000000494  0.000003  0.000012  0.000151  0.000002
 12   -440.60224586  -0.0000000023  0.000004  0.000006  0.000310  0.000004
                 **** Energy Check signals convergence ****
              ***Rediagonalizing the Fockian in SOSCF/NRSCF***

               *****************************************************
               *                     SUCCESS                       *
               *           SCF CONVERGED AFTER  13 CYCLES          *
               *****************************************************

Old exchange energy                            =    -15.035629166 Eh
New exchange energy                            =    -15.035634944 Eh
Exchange energy change after final integration =     -0.000005778 Eh
Total energy after final integration           =   -440.602251647 Eh
Final COS-X integration done in                =     2.321 sec

----------------
TOTAL SCF ENERGY
----------------

Total Energy       :         -440.60225165 Eh          -11989.39680 eV

Components:
Nuclear Repulsion  :          501.09914779 Eh           13635.60103 eV
Electronic Energy  :         -941.70139943 Eh          -25624.99783 eV
One Electron Energy:        -1603.29976302 Eh          -43628.00456 eV
Two Electron Energy:          661.59836359 Eh           18003.00673 eV
Max COSX asymmetry :            0.00000228 Eh               0.00006 eV
CPCM Dielectric    :           -0.10706953 Eh              -2.91351 eV

Virial components:
Potential Energy   :         -879.11234179 Eh          -23921.86298 eV
Kinetic Energy     :          438.51009014 Eh           11932.46619 eV
Virial Ratio       :            2.00477107


DFT components:
N(Alpha)           :       36.999941651248 electrons
N(Beta)            :       36.999941651248 electrons
N(Total)           :       73.999883302495 electrons
E(X)               :      -44.983833726755 Eh       
E(C)               :       -2.463400161958 Eh       
E(XC)              :      -47.447233888712 Eh       
DFET-embed. en.    :        0.000000000000 Eh       
CPCM Solvation Model Properties:
Surface-charge          :            0.96472057
Charge-correction       :           -0.00494798 Eh              -0.13464 eV
Free-energy (cav+disp)  :  This term is not implemented in the current solvation scheme

---------------
SCF CONVERGENCE
---------------

  Last Energy change         ...   -4.9245e-09  Tolerance :   1.0000e-08
  Last MAX-Density change    ...    1.5543e-15  Tolerance :   1.0000e-07
  Last RMS-Density change    ...    1.7216e-17  Tolerance :   5.0000e-09
  Last Orbital Gradient      ...    6.8583e-07  Tolerance :   1.0000e-05
  Last Orbital Rotation      ...    1.9451e-06  Tolerance :   1.0000e-05

             **** THE GBW FILE WAS UPDATED (NMe2-PhenO/NMe2-PhenO.gbw) ****
             **** DENSITY NMe2-PhenO/NMe2-PhenO.scfp WAS UPDATED ****
             **** ENERGY FILE WAS UPDATED (NMe2-PhenO/NMe2-PhenO.en.tmp) ****
             **** THE GBW FILE WAS UPDATED (NMe2-PhenO/NMe2-PhenO.gbw) ****
             **** DENSITY NMe2-PhenO/NMe2-PhenO.scfp WAS UPDATED ****
----------------
ORBITAL ENERGIES
----------------

  NO   OCC          E(Eh)            E(eV) 
   0   2.0000     -19.103767      -519.8399 
   1   2.0000     -14.375782      -391.1849 
   2   2.0000     -10.234863      -278.5048 
   3   2.0000     -10.227031      -278.2917 
   4   2.0000     -10.226296      -278.2717 
   5   2.0000     -10.222691      -278.1736 
   6   2.0000     -10.199759      -277.5496 
   7   2.0000     -10.199342      -277.5382 
   8   2.0000     -10.185621      -277.1648 
   9   2.0000     -10.182673      -277.0846 
  10   2.0000      -0.967611       -26.3300 
  11   2.0000      -0.951128       -25.8815 
  12   2.0000      -0.832659       -22.6578 
  13   2.0000      -0.744267       -20.2525 
  14   2.0000      -0.719193       -19.5702 
  15   2.0000      -0.716417       -19.4947 
  16   2.0000      -0.636478       -17.3194 
  17   2.0000      -0.597344       -16.2545 
  18   2.0000      -0.561104       -15.2684 
  19   2.0000      -0.513331       -13.9685 
  20   2.0000      -0.472771       -12.8647 
  21   2.0000      -0.463436       -12.6107 
  22   2.0000      -0.440898       -11.9975 
  23   2.0000      -0.427540       -11.6340 
  24   2.0000      -0.422198       -11.4886 
  25   2.0000      -0.404261       -11.0005 
  26   2.0000      -0.389845       -10.6082 
  27   2.0000      -0.379254       -10.3200 
  28   2.0000      -0.374131       -10.1806 
  29   2.0000      -0.368171       -10.0184 
  30   2.0000      -0.352119        -9.5817 
  31   2.0000      -0.330729        -8.9996 
  32   2.0000      -0.310565        -8.4509 
  33   2.0000      -0.245223        -6.6729 
  34   2.0000      -0.236200        -6.4273 
  35   2.0000      -0.213857        -5.8194 
  36   2.0000      -0.160235        -4.3602 
  37   0.0000       0.015361         0.4180 
  38   0.0000       0.050563         1.3759 
  39   0.0000       0.061205         1.6655 
  40   0.0000       0.089318         2.4305 
  41   0.0000       0.090955         2.4750 
  42   0.0000       0.112530         3.0621 
  43   0.0000       0.117017         3.1842 
  44   0.0000       0.117247         3.1904 
  45   0.0000       0.127829         3.4784 
  46   0.0000       0.130796         3.5591 
  47   0.0000       0.149802         4.0763 
  48   0.0000       0.157228         4.2784 
  49   0.0000       0.169360         4.6085 
  50   0.0000       0.174684         4.7534 
  51   0.0000       0.185360         5.0439 
  52   0.0000       0.202837         5.5195 
  53   0.0000       0.203251         5.5307 
  54   0.0000       0.209699         5.7062 
  55   0.0000       0.226931         6.1751 
  56   0.0000       0.233323         6.3490 
  57   0.0000       0.240594         6.5469 
  58   0.0000       0.252151         6.8614 
  59   0.0000       0.261940         7.1277 
  60   0.0000       0.270282         7.3547 
  61   0.0000       0.285393         7.7659 
  62   0.0000       0.295068         8.0292 
  63   0.0000       0.312251         8.4968 
  64   0.0000       0.323905         8.8139 
  65   0.0000       0.343326         9.3424 
  66   0.0000       0.347116         9.4455 
  67   0.0000       0.359290         9.7768 
  68   0.0000       0.362626         9.8676 
  69   0.0000       0.365648         9.9498 
  70   0.0000       0.375062        10.2060 
  71   0.0000       0.376769        10.2524 
  72   0.0000       0.385259        10.4834 
  73   0.0000       0.399376        10.8676 
  74   0.0000       0.408078        11.1044 
  75   0.0000       0.414225        11.2716 
  76   0.0000       0.420444        11.4408 
  77   0.0000       0.442312        12.0359 
  78   0.0000       0.448222        12.1967 
  79   0.0000       0.454922        12.3791 
  80   0.0000       0.456501        12.4220 
  81   0.0000       0.461357        12.5542 
  82   0.0000       0.472344        12.8531 
  83   0.0000       0.476663        12.9706 
  84   0.0000       0.486449        13.2369 
  85   0.0000       0.496803        13.5187 
  86   0.0000       0.497811        13.5461 
  87   0.0000       0.505915        13.7667 
  88   0.0000       0.511027        13.9058 
  89   0.0000       0.527503        14.3541 
  90   0.0000       0.528545        14.3824 
  91   0.0000       0.534069        14.5328 
  92   0.0000       0.542825        14.7710 
  93   0.0000       0.556629        15.1466 
  94   0.0000       0.571683        15.5563 
  95   0.0000       0.603139        16.4123 
  96   0.0000       0.610953        16.6249 
  97   0.0000       0.636392        17.3171 
  98   0.0000       0.650426        17.6990 
  99   0.0000       0.659731        17.9522 
 100   0.0000       0.671239        18.2654 
 101   0.0000       0.690776        18.7970 
 102   0.0000       0.704343        19.1661 
 103   0.0000       0.706717        19.2308 
 104   0.0000       0.722603        19.6630 
 105   0.0000       0.735606        20.0169 
 106   0.0000       0.748585        20.3700 
 107   0.0000       0.763992        20.7893 
 108   0.0000       0.768274        20.9058 
 109   0.0000       0.779227        21.2039 
 110   0.0000       0.796849        21.6834 
 111   0.0000       0.820852        22.3365 
 112   0.0000       0.844491        22.9798 
 113   0.0000       0.853431        23.2230 
 114   0.0000       0.865860        23.5612 
 115   0.0000       0.869066        23.6485 
 116   0.0000       0.891700        24.2644 
 117   0.0000       0.893969        24.3261 
 118   0.0000       0.911963        24.8158 
 119   0.0000       0.920061        25.0361 
 120   0.0000       0.941676        25.6243 
 121   0.0000       0.948125        25.7998 
 122   0.0000       0.965914        26.2839 
 123   0.0000       1.002512        27.2797 
 124   0.0000       1.010058        27.4851 
 125   0.0000       1.033633        28.1266 
 126   0.0000       1.047971        28.5167 
 127   0.0000       1.073373        29.2080 
 128   0.0000       1.089347        29.6426 
 129   0.0000       1.098423        29.8896 
 130   0.0000       1.109939        30.2030 
 131   0.0000       1.141230        31.0544 
 132   0.0000       1.165927        31.7265 
 133   0.0000       1.175496        31.9869 
 134   0.0000       1.184631        32.2355 
 135   0.0000       1.214767        33.0555 
 136   0.0000       1.248525        33.9741 
 137   0.0000       1.258276        34.2394 
 138   0.0000       1.268982        34.5308 
 139   0.0000       1.283086        34.9145 
 140   0.0000       1.289135        35.0791 
 141   0.0000       1.294107        35.2145 
 142   0.0000       1.325423        36.0666 
 143   0.0000       1.341466        36.5031 
 144   0.0000       1.412030        38.4233 
 145   0.0000       1.440661        39.2024 
 146   0.0000       1.453071        39.5401 
 147   0.0000       1.456228        39.6260 
 148   0.0000       1.461398        39.7667 
 149   0.0000       1.470180        40.0056 
 150   0.0000       1.496273        40.7157 
 151   0.0000       1.509845        41.0850 
 152   0.0000       1.526489        41.5379 
 153   0.0000       1.536083        41.7989 
 154   0.0000       1.539594        41.8945 
 155   0.0000       1.556713        42.3603 
 156   0.0000       1.560257        42.4568 
 157   0.0000       1.577367        42.9223 
 158   0.0000       1.586546        43.1721 
 159   0.0000       1.595032        43.4030 
 160   0.0000       1.606972        43.7279 
 161   0.0000       1.621725        44.1294 
 162   0.0000       1.636714        44.5373 
 163   0.0000       1.644635        44.7528 
 164   0.0000       1.657724        45.1090 
 165   0.0000       1.671583        45.4861 
 166   0.0000       1.693663        46.0869 
 167   0.0000       1.695340        46.1326 
 168   0.0000       1.720834        46.8263 
 169   0.0000       1.734250        47.1913 
 170   0.0000       1.749274        47.6002 
 171   0.0000       1.770921        48.1892 
 172   0.0000       1.786415        48.6108 
 173   0.0000       1.798855        48.9493 
 174   0.0000       1.839305        50.0500 
 175   0.0000       1.865605        50.7657 
 176   0.0000       1.884003        51.2663 
 177   0.0000       1.896842        51.6157 
 178   0.0000       1.913783        52.0767 
 179   0.0000       1.945754        52.9467 
 180   0.0000       1.951137        53.0931 
 181   0.0000       1.968906        53.5767 
 182   0.0000       1.975531        53.7569 
 183   0.0000       1.983124        53.9635 
 184   0.0000       2.016815        54.8803 
 185   0.0000       2.043463        55.6055 
 186   0.0000       2.056302        55.9548 
 187   0.0000       2.083275        56.6888 
 188   0.0000       2.089502        56.8583 
 189   0.0000       2.126353        57.8610 
 190   0.0000       2.143616        58.3308 
 191   0.0000       2.170331        59.0577 
 192   0.0000       2.180335        59.3299 
 193   0.0000       2.220958        60.4353 
 194   0.0000       2.235213        60.8232 
 195   0.0000       2.245067        61.0914 
 196   0.0000       2.259528        61.4849 
 197   0.0000       2.271675        61.8154 
 198   0.0000       2.284370        62.1609 
 199   0.0000       2.298207        62.5374 
 200   0.0000       2.303930        62.6931 
 201   0.0000       2.347159        63.8694 
 202   0.0000       2.360314        64.2274 
 203   0.0000       2.379302        64.7441 
 204   0.0000       2.390596        65.0514 
 205   0.0000       2.420219        65.8575 
 206   0.0000       2.447824        66.6087 
 207   0.0000       2.455581        66.8197 
 208   0.0000       2.469689        67.2037 
 209   0.0000       2.496329        67.9286 
 210   0.0000       2.518986        68.5451 
 211   0.0000       2.528712        68.8098 
 212   0.0000       2.554623        69.5148 
 213   0.0000       2.573598        70.0312 
 214   0.0000       2.581216        70.2385 
 215   0.0000       2.605175        70.8904 
 216   0.0000       2.616312        71.1935 
 217   0.0000       2.626876        71.4809 
 218   0.0000       2.641328        71.8742 
 219   0.0000       2.660083        72.3845 
 220   0.0000       2.664182        72.4961 
 221   0.0000       2.681031        72.9546 
 222   0.0000       2.691699        73.2448 
 223   0.0000       2.701119        73.5012 
 224   0.0000       2.720821        74.0373 
 225   0.0000       2.725523        74.1653 
 226   0.0000       2.756914        75.0194 
 227   0.0000       2.766787        75.2881 
 228   0.0000       2.770657        75.3934 
 229   0.0000       2.798546        76.1523 
 230   0.0000       2.809096        76.4394 
 231   0.0000       2.819285        76.7167 
 232   0.0000       2.827218        76.9325 
 233   0.0000       2.853036        77.6351 
 234   0.0000       2.867757        78.0356 
 235   0.0000       2.881171        78.4007 
 236   0.0000       2.901549        78.9552 
 237   0.0000       2.920468        79.4700 
 238   0.0000       2.932267        79.7911 
 239   0.0000       2.948003        80.2192 
 240   0.0000       2.954631        80.3996 
 241   0.0000       2.970243        80.8244 
 242   0.0000       2.983503        81.1852 
 243   0.0000       3.011403        81.9444 
 244   0.0000       3.051431        83.0336 
 245   0.0000       3.069542        83.5265 
 246   0.0000       3.089218        84.0619 
 247   0.0000       3.108199        84.5784 
 248   0.0000       3.121224        84.9328 
 249   0.0000       3.138377        85.3996 
 250   0.0000       3.147209        85.6399 
 251   0.0000       3.154179        85.8296 
 252   0.0000       3.165203        86.1296 
 253   0.0000       3.178259        86.4848 
 254   0.0000       3.192081        86.8609 
 255   0.0000       3.197493        87.0082 
 256   0.0000       3.209763        87.3421 
 257   0.0000       3.218072        87.5682 
 258   0.0000       3.231900        87.9445 
 259   0.0000       3.242912        88.2441 
 260   0.0000       3.253503        88.5323 
 261   0.0000       3.275242        89.1239 
 262   0.0000       3.297644        89.7335 
 263   0.0000       3.304628        89.9235 
 264   0.0000       3.312087        90.1265 
 265   0.0000       3.335447        90.7621 
 266   0.0000       3.343873        90.9914 
 267   0.0000       3.362562        91.5000 
 268   0.0000       3.384413        92.0946 
 269   0.0000       3.391912        92.2986 
 270   0.0000       3.402584        92.5890 
 271   0.0000       3.417202        92.9868 
 272   0.0000       3.427559        93.2686 
 273   0.0000       3.440331        93.6162 
 274   0.0000       3.454907        94.0128 
 275   0.0000       3.459440        94.1362 
 276   0.0000       3.474139        94.5361 
 277   0.0000       3.489227        94.9467 
 278   0.0000       3.513089        95.5960 
 279   0.0000       3.519061        95.7585 
 280   0.0000       3.540206        96.3339 
 281   0.0000       3.559034        96.8462 
 282   0.0000       3.568047        97.0915 
 283   0.0000       3.580682        97.4353 
 284   0.0000       3.612024        98.2882 
 285   0.0000       3.634911        98.9110 
 286   0.0000       3.641362        99.0865 
 287   0.0000       3.652902        99.4005 
 288   0.0000       3.697192       100.6057 
 289   0.0000       3.706188       100.8505 
 290   0.0000       3.718343       101.1813 
 291   0.0000       3.768180       102.5374 
 292   0.0000       3.775176       102.7278 
 293   0.0000       3.793147       103.2168 
 294   0.0000       3.835860       104.3790 
 295   0.0000       3.890767       105.8731 
 296   0.0000       3.899240       106.1037 
 297   0.0000       3.927660       106.8771 
 298   0.0000       3.966450       107.9326 
 299   0.0000       4.021109       109.4199 
 300   0.0000       4.046404       110.1083 
 301   0.0000       4.072997       110.8319 
 302   0.0000       4.084615       111.1480 
 303   0.0000       4.114188       111.9528 
 304   0.0000       4.150755       112.9478 
 305   0.0000       4.164839       113.3310 
 306   0.0000       4.174289       113.5882 
 307   0.0000       4.201912       114.3398 
 308   0.0000       4.232797       115.1803 
 309   0.0000       4.245164       115.5168 
 310   0.0000       4.263394       116.0129 
 311   0.0000       4.291994       116.7911 
 312   0.0000       4.310842       117.3040 
 313   0.0000       4.322463       117.6202 
 314   0.0000       4.329791       117.8196 
 315   0.0000       4.358329       118.5962 
 316   0.0000       4.376817       119.0992 
 317   0.0000       4.393290       119.5475 
 318   0.0000       4.442022       120.8736 
 319   0.0000       4.482448       121.9736 
 320   0.0000       4.490690       122.1979 
 321   0.0000       4.550521       123.8260 
 322   0.0000       4.601686       125.2182 
 323   0.0000       4.617639       125.6524 
 324   0.0000       4.648277       126.4861 
 325   0.0000       4.766823       129.7118 
 326   0.0000       4.778633       130.0332 
 327   0.0000       4.870838       132.5422 
 328   0.0000       4.903050       133.4188 
 329   0.0000       4.913587       133.7055 
 330   0.0000       4.943141       134.5097 
 331   0.0000       4.986681       135.6945 
 332   0.0000       5.028452       136.8311 
 333   0.0000       5.045849       137.3045 
 334   0.0000       5.141390       139.9043 
 335   0.0000       5.198623       141.4617 
 336   0.0000       5.238783       142.5545 
 337   0.0000       5.285797       143.8339 
 338   0.0000       5.293042       144.0310 
 339   0.0000       5.335363       145.1826 
 340   0.0000       5.373260       146.2138 
 341   0.0000       5.380466       146.4099 
 342   0.0000       5.436672       147.9394 
 343   0.0000       5.493292       149.4801 
 344   0.0000       5.502813       149.7392 
 345   0.0000       5.604468       152.5053 
 346   0.0000       5.612698       152.7293 
 347   0.0000       5.739145       156.1701 
 348   0.0000       5.812594       158.1687 
 349   0.0000       5.860386       159.4692 
 350   0.0000       5.922085       161.1481 
 351   0.0000       5.980879       162.7480 
 352   0.0000       6.084408       165.5652 
 353   0.0000       6.397229       174.0774 
 354   0.0000       6.468978       176.0298 
 355   0.0000       6.650569       180.9712 
 356   0.0000       6.685127       181.9115 
 357   0.0000       6.886809       187.3996 
 358   0.0000       7.126881       193.9323 
 359   0.0000       7.137264       194.2148 
 360   0.0000      22.316891       607.2735 
 361   0.0000      22.510945       612.5539 
 362   0.0000      22.580472       614.4459 
 363   0.0000      22.755829       619.2176 
 364   0.0000      22.839547       621.4957 
 365   0.0000      22.882406       622.6619 
 366   0.0000      23.072974       627.8475 
 367   0.0000      23.508972       639.7117 
 368   0.0000      32.812023       892.8605 
 369   0.0000      44.092214      1199.8101 

                    ********************************
                    * MULLIKEN POPULATION ANALYSIS *
                    ********************************

-----------------------
MULLIKEN ATOMIC CHARGES
-----------------------
   0 C :    0.169734
   1 C :   -0.310219
   2 C :   -0.291437
   3 H :    0.126837
   4 H :    0.133412
   5 C :   -0.270855
   6 C :   -0.310820
   7 H :    0.094086
   8 H :    0.092927
   9 C :    0.230732
  10 O :   -0.692147
  11 N :   -0.108396
  12 C :   -0.301226
  13 H :    0.134896
  14 H :    0.098941
  15 H :    0.143609
  16 C :   -0.345195
  17 H :    0.145365
  18 H :    0.146491
  19 H :    0.113264
Sum of atomic charges:   -1.0000000

--------------------------------
MULLIKEN REDUCED ORBITAL CHARGES
--------------------------------
  0 C s       :     2.981825  s :     2.981825
      pz      :     0.797723  p :     2.688016
      px      :     0.987752
      py      :     0.902542
      dz2     :     0.033040  d :     0.147907
      dxz     :     0.040146
      dyz     :     0.036867
      dx2y2   :     0.017257
      dxy     :     0.020598
      f0      :     0.002134  f :     0.012516
      f+1     :     0.002429
      f-1     :     0.003675
      f+2     :     0.000922
      f-2     :     0.001059
      f+3     :     0.001071
      f-3     :     0.001227
  1 C s       :     3.268658  s :     3.268658
      pz      :     0.946656  p :     2.937256
      px      :     0.994333
      py      :     0.996267
      dz2     :     0.018525  d :     0.096917
      dxz     :     0.025099
      dyz     :     0.034344
      dx2y2   :     0.008884
      dxy     :     0.010065
      f0      :     0.000843  f :     0.007388
      f+1     :     0.001540
      f-1     :     0.002098
      f+2     :     0.000679
      f-2     :     0.000619
      f+3     :     0.000783
      f-3     :     0.000827
  2 C s       :     3.255528  s :     3.255528
      pz      :     0.928121  p :     2.931029
      px      :     0.987297
      py      :     1.015611
      dz2     :     0.020155  d :     0.097553
      dxz     :     0.025996
      dyz     :     0.032422
      dx2y2   :     0.009948
      dxy     :     0.009031
      f0      :     0.000905  f :     0.007327
      f+1     :     0.001522
      f-1     :     0.002004
      f+2     :     0.000699
      f-2     :     0.000594
      f+3     :     0.000758
      f-3     :     0.000845
  3 H s       :     0.851238  s :     0.851238
      pz      :     0.006163  p :     0.021924
      px      :     0.005560
      py      :     0.010202
  4 H s       :     0.844001  s :     0.844001
      pz      :     0.006212  p :     0.022587
      px      :     0.005641
      py      :     0.010734
  5 C s       :     3.230690  s :     3.230690
      pz      :     0.919074  p :     2.952463
      px      :     1.080259
      py      :     0.953129
      dz2     :     0.016596  d :     0.080628
      dxz     :     0.019523
      dyz     :     0.029438
      dx2y2   :     0.007867
      dxy     :     0.007205
      f0      :     0.000991  f :     0.007074
      f+1     :     0.001528
      f-1     :     0.002034
      f+2     :     0.000666
      f-2     :     0.000535
      f+3     :     0.000646
      f-3     :     0.000673
  6 C s       :     3.250286  s :     3.250286
      pz      :     0.924285  p :     2.973962
      px      :     1.095275
      py      :     0.954402
      dz2     :     0.015864  d :     0.079468
      dxz     :     0.019051
      dyz     :     0.029197
      dx2y2   :     0.007809
      dxy     :     0.007548
      f0      :     0.000977  f :     0.007104
      f+1     :     0.001505
      f-1     :     0.002048
      f+2     :     0.000661
      f-2     :     0.000526
      f+3     :     0.000688
      f-3     :     0.000698
  7 H s       :     0.883670  s :     0.883670
      pz      :     0.005627  p :     0.022244
      px      :     0.006017
      py      :     0.010601
  8 H s       :     0.884760  s :     0.884760
      pz      :     0.005837  p :     0.022313
      px      :     0.006161
      py      :     0.010315
  9 C s       :     2.932324  s :     2.932324
      pz      :     0.873697  p :     2.661161
      px      :     0.869739
      py      :     0.917726
      dz2     :     0.031590  d :     0.159165
      dxz     :     0.055156
      dyz     :     0.042920
      dx2y2   :     0.013769
      dxy     :     0.015730
      f0      :     0.002678  f :     0.016618
      f+1     :     0.003648
      f-1     :     0.006642
      f+2     :     0.000850
      f-2     :     0.000952
      f+3     :     0.000871
      f-3     :     0.000977
 10 O s       :     3.779361  s :     3.779361
      pz      :     1.374062  p :     4.884596
      px      :     1.672112
      py      :     1.838421
      dz2     :     0.012409  d :     0.026633
      dxz     :     0.007626
      dyz     :     0.006456
      dx2y2   :     0.000078
      dxy     :     0.000065
      f0      :     0.000675  f :     0.001557
      f+1     :     0.000454
      f-1     :     0.000414
      f+2     :     0.000006
      f-2     :     0.000006
      f+3     :     0.000002
      f-3     :     0.000002
 11 N s       :     3.377380  s :     3.377380
      pz      :     1.049917  p :     3.637899
      px      :     1.494928
      py      :     1.093053
      dz2     :     0.022482  d :     0.088684
      dxz     :     0.015857
      dyz     :     0.021673
      dx2y2   :     0.013817
      dxy     :     0.014854
      f0      :     0.000688  f :     0.004433
      f+1     :     0.000644
      f-1     :     0.000983
      f+2     :     0.000413
      f-2     :     0.000450
      f+3     :     0.000666
      f-3     :     0.000590
 12 C s       :     3.231088  s :     3.231088
      pz      :     1.043291  p :     2.976193
      px      :     0.964678
      py      :     0.968224
      dz2     :     0.022935  d :     0.088036
      dxz     :     0.006348
      dyz     :     0.011885
      dx2y2   :     0.038028
      dxy     :     0.008839
      f0      :     0.000874  f :     0.005909
      f+1     :     0.000589
      f-1     :     0.000525
      f+2     :     0.000907
      f-2     :     0.000654
      f+3     :     0.000862
      f-3     :     0.001498
 13 H s       :     0.844314  s :     0.844314
      pz      :     0.012433  p :     0.020791
      px      :     0.004210
      py      :     0.004148
 14 H s       :     0.880635  s :     0.880635
      pz      :     0.004089  p :     0.020425
      px      :     0.012180
      py      :     0.004156
 15 H s       :     0.834992  s :     0.834992
      pz      :     0.005634  p :     0.021399
      px      :     0.004223
      py      :     0.011543
 16 C s       :     3.250829  s :     3.250829
      pz      :     1.055002  p :     2.998702
      px      :     1.077568
      py      :     0.866131
      dz2     :     0.022349  d :     0.089606
      dxz     :     0.005777
      dyz     :     0.014003
      dx2y2   :     0.009910
      dxy     :     0.037568
      f0      :     0.000853  f :     0.006058
      f+1     :     0.000107
      f-1     :     0.001116
      f+2     :     0.000731
      f-2     :     0.000942
      f+3     :     0.001293
      f-3     :     0.001017
 17 H s       :     0.833656  s :     0.833656
      pz      :     0.012485  p :     0.020980
      px      :     0.004751
      py      :     0.003743
 18 H s       :     0.832743  s :     0.832743
      pz      :     0.005272  p :     0.020766
      px      :     0.008085
      py      :     0.007409
 19 H s       :     0.866408  s :     0.866408
      pz      :     0.004160  p :     0.020328
      px      :     0.010699
      py      :     0.005469


                     *******************************
                     * LOEWDIN POPULATION ANALYSIS *
                     *******************************

----------------------
LOEWDIN ATOMIC CHARGES
----------------------
   0 C :   -0.256493
   1 C :   -0.166939
   2 C :   -0.178510
   3 H :    0.146866
   4 H :    0.148791
   5 C :   -0.192047
   6 C :   -0.202005
   7 H :    0.134667
   8 H :    0.133225
   9 C :   -0.450808
  10 O :   -0.228832
  11 N :    0.083583
  12 C :   -0.323525
  13 H :    0.118271
  14 H :    0.103237
  15 H :    0.119156
  16 C :   -0.335061
  17 H :    0.120477
  18 H :    0.121799
  19 H :    0.104149

-------------------------------
LOEWDIN REDUCED ORBITAL CHARGES
-------------------------------
  0 C s       :     2.701079  s :     2.701079
      pz      :     0.886360  p :     2.871261
      px      :     0.933312
      py      :     1.051589
      dz2     :     0.166597  d :     0.610650
      dxz     :     0.129037
      dyz     :     0.167034
      dx2y2   :     0.072549
      dxy     :     0.075433
      f0      :     0.011554  f :     0.073503
      f+1     :     0.013918
      f-1     :     0.023887
      f+2     :     0.006814
      f-2     :     0.007495
      f+3     :     0.005206
      f-3     :     0.004629
  1 C s       :     2.760578  s :     2.760578
      pz      :     1.051345  p :     2.958467
      px      :     0.918486
      py      :     0.988636
      dz2     :     0.094116  d :     0.404727
      dxz     :     0.087810
      dyz     :     0.143947
      dx2y2   :     0.040149
      dxy     :     0.038705
      f0      :     0.007313  f :     0.043168
      f+1     :     0.007213
      f-1     :     0.013527
      f+2     :     0.004173
      f-2     :     0.003770
      f+3     :     0.003708
      f-3     :     0.003464
  2 C s       :     2.758790  s :     2.758790
      pz      :     1.048118  p :     2.969476
      px      :     0.928444
      py      :     0.992913
      dz2     :     0.097942  d :     0.407203
      dxz     :     0.092096
      dyz     :     0.140103
      dx2y2   :     0.041679
      dxy     :     0.035383
      f0      :     0.007224  f :     0.043042
      f+1     :     0.007107
      f-1     :     0.013432
      f+2     :     0.004307
      f-2     :     0.004029
      f+3     :     0.003517
      f-3     :     0.003426
  3 H s       :     0.793531  s :     0.793531
      pz      :     0.016872  p :     0.059602
      px      :     0.015612
      py      :     0.027118
  4 H s       :     0.789916  s :     0.789916
      pz      :     0.016816  p :     0.061293
      px      :     0.016073
      py      :     0.028404
  5 C s       :     2.775064  s :     2.775064
      pz      :     1.051582  p :     3.005584
      px      :     0.967420
      py      :     0.986583
      dz2     :     0.097033  d :     0.371410
      dxz     :     0.070301
      dyz     :     0.137533
      dx2y2   :     0.038181
      dxy     :     0.028362
      f0      :     0.007450  f :     0.039989
      f+1     :     0.006774
      f-1     :     0.012986
      f+2     :     0.003921
      f-2     :     0.003340
      f+3     :     0.002850
      f-3     :     0.002669
  6 C s       :     2.774482  s :     2.774482
      pz      :     1.044790  p :     3.016773
      px      :     0.980953
      py      :     0.991030
      dz2     :     0.094768  d :     0.370907
      dxz     :     0.068151
      dyz     :     0.140262
      dx2y2   :     0.038084
      dxy     :     0.029643
      f0      :     0.007214  f :     0.039842
      f+1     :     0.006651
      f-1     :     0.013091
      f+2     :     0.003967
      f-2     :     0.003124
      f+3     :     0.002979
      f-3     :     0.002815
  7 H s       :     0.805012  s :     0.805012
      pz      :     0.015668  p :     0.060321
      px      :     0.016776
      py      :     0.027877
  8 H s       :     0.806213  s :     0.806213
      pz      :     0.016185  p :     0.060562
      px      :     0.017219
      py      :     0.027157
  9 C s       :     2.730051  s :     2.730051
      pz      :     0.946370  p :     2.814578
      px      :     0.835241
      py      :     1.032967
      dz2     :     0.203581  d :     0.800311
      dxz     :     0.192928
      dyz     :     0.279227
      dx2y2   :     0.061326
      dxy     :     0.063250
      f0      :     0.020074  f :     0.105868
      f+1     :     0.022361
      f-1     :     0.040512
      f+2     :     0.006163
      f-2     :     0.006538
      f+3     :     0.005082
      f-3     :     0.005136
 10 O s       :     3.434778  s :     3.434778
      pz      :     1.462652  p :     4.728874
      px      :     1.569858
      py      :     1.696364
      dz2     :     0.026916  d :     0.060377
      dxz     :     0.015121
      dyz     :     0.018177
      dx2y2   :     0.000089
      dxy     :     0.000075
      f0      :     0.002076  f :     0.004804
      f+1     :     0.001171
      f-1     :     0.001530
      f+2     :     0.000011
      f-2     :     0.000012
      f+3     :     0.000002
      f-3     :     0.000002
 11 N s       :     2.915604  s :     2.915604
      pz      :     1.122283  p :     3.678347
      px      :     1.402118
      py      :     1.153946
      dz2     :     0.078587  d :     0.301095
      dxz     :     0.048268
      dyz     :     0.078840
      dx2y2   :     0.047255
      dxy     :     0.048144
      f0      :     0.002442  f :     0.021370
      f+1     :     0.003272
      f-1     :     0.005593
      f+2     :     0.002405
      f-2     :     0.002768
      f+3     :     0.002653
      f-3     :     0.002238
 12 C s       :     2.841657  s :     2.841657
      pz      :     1.053080  p :     3.086899
      px      :     1.024008
      py      :     1.009811
      dz2     :     0.095032  d :     0.354889
      dxz     :     0.027981
      dyz     :     0.047734
      dx2y2   :     0.134700
      dxy     :     0.049441
      f0      :     0.003840  f :     0.040079
      f+1     :     0.004760
      f-1     :     0.003721
      f+2     :     0.007117
      f-2     :     0.006754
      f+3     :     0.005113
      f-3     :     0.008774
 13 H s       :     0.820366  s :     0.820366
      pz      :     0.036138  p :     0.061362
      px      :     0.012933
      py      :     0.012292
 14 H s       :     0.835232  s :     0.835232
      pz      :     0.012683  p :     0.061531
      px      :     0.035888
      py      :     0.012960
 15 H s       :     0.818221  s :     0.818221
      pz      :     0.017247  p :     0.062623
      px      :     0.012781
      py      :     0.032596
 16 C s       :     2.837033  s :     2.837033
      pz      :     1.050915  p :     3.095655
      px      :     1.088564
      py      :     0.956176
      dz2     :     0.097591  d :     0.361379
      dxz     :     0.018750
      dyz     :     0.058510
      dx2y2   :     0.052038
      dxy     :     0.134490
      f0      :     0.003838  f :     0.040994
      f+1     :     0.001655
      f-1     :     0.007559
      f+2     :     0.006648
      f-2     :     0.007729
      f+3     :     0.007588
      f-3     :     0.005976
 17 H s       :     0.818211  s :     0.818211
      pz      :     0.035780  p :     0.061312
      px      :     0.014458
      py      :     0.011074
 18 H s       :     0.816512  s :     0.816512
      pz      :     0.016370  p :     0.061689
      px      :     0.024819
      py      :     0.020501
 19 H s       :     0.834232  s :     0.834232
      pz      :     0.012767  p :     0.061619
      px      :     0.033280
      py      :     0.015572


                      *****************************
                      * MAYER POPULATION ANALYSIS *
[...]
     31       0.020499  -0.002323   0.000013   0.000011  -0.000005   0.000003
     32       0.010178  -0.034692  -0.000165   0.000530   0.000091   0.000127
     33       0.009668   0.010208   0.000023   0.003260  -0.000178  -0.000480
     34      -0.063326   0.003885  -0.003783  -0.000065  -0.000005   0.000231
     35       0.015864   0.051148  -0.000955   0.002151   0.000265   0.000860
     36      -0.011867   0.001117   0.027961   0.061169   0.003442  -0.033883
     37       0.007559  -0.007002   0.004608   0.009897   0.001266  -0.038237
     38       0.006440   0.006744   0.000062  -0.001405  -0.002253   0.059879
     39       0.047624  -0.063232   0.026039   0.046848  -0.007035   0.176222
     40      -0.023590   0.017302   0.008574   0.018079   0.000108   0.041595
     41       0.017495  -0.003809  -0.088982  -0.151685   0.030387  -0.872344
     42      -0.022661  -0.018112  -0.382982  -0.840620  -0.029209   0.190470
     43       0.044520   0.037653  -0.116448  -0.235792  -0.009813   0.053553
     44       0.002823  -0.068315   0.051794   0.104269   0.003957  -0.013155
     45      -0.056611   0.010159   0.019141   0.035153  -0.001201   0.044496
     46       0.026578  -0.007060   0.067033   0.127696  -0.009258   0.354287
     47      -0.018765  -0.004376   0.027197   0.048425  -0.007342   0.175889
     48       0.000917  -0.006188  -0.052977   0.025324  -0.059710  -0.001294
     49       0.013570   0.003151  -0.032086   0.015037   0.019379   0.002047
     50      -0.017083   0.000206   0.002358  -0.002004   0.042439   0.001472
     51      -0.007572  -0.004063  -0.044356   0.016993   0.118063   0.005443
     52      -0.069458  -0.049837  -0.020532   0.006114   0.092055   0.001393
     53      -0.029316  -0.002051   0.140946  -0.043033  -0.731319  -0.030347
     54       0.011965  -0.003043  -0.118909   0.044498   0.422756   0.020823
     55       0.050261  -0.001542   0.086883  -0.033047  -0.399106  -0.019695
     56       0.026354  -0.012489  -0.048809   0.016607   0.247405   0.009288
     57      -0.005602   0.012618   0.797156  -0.372022   0.169532  -0.010393
     58       0.026195  -0.038738   0.354117  -0.175138   0.081551  -0.003022
     59       0.014682  -0.030334  -0.104176   0.045360  -0.016844   0.002200
                 54         55         56         57         58         59    
      0       0.000324  -0.000232   0.000079  -0.000286  -0.000665  -0.000586
      1       0.000430   0.000151   0.000125  -0.000682  -0.002237  -0.001997
      2       0.000469   0.000766   0.001274  -0.000562  -0.002567   0.002775
      3      -0.000110  -0.004777  -0.012271   0.001992   0.020126  -0.001014
      4      -0.000540  -0.014768  -0.035850   0.005797   0.058779  -0.002868
      5       0.000481   0.008411   0.018941  -0.002984  -0.037471   0.000946
      6      -0.000828   0.000096   0.000322  -0.005216   0.001460   0.021052
      7      -0.002882   0.000145   0.000923  -0.017359   0.005071   0.070955
      8      -0.001640  -0.000568  -0.000105  -0.006267   0.003304   0.038556
      9       0.002006   0.057361   0.142610  -0.022412  -0.229321   0.010310
     10       0.005743   0.169024   0.421149  -0.066090  -0.677335   0.030077
     11      -0.003706  -0.100547  -0.253279   0.039836   0.413722  -0.017041
     12       0.009836   0.000199  -0.002723   0.061701  -0.018132  -0.241268
     13       0.033038   0.000500  -0.009545   0.208007  -0.060513  -0.817371
     14       0.019679   0.000741  -0.004601   0.110508  -0.034353  -0.448782
     15       0.000077   0.003934   0.017552   0.000166   0.011877  -0.001121
     16       0.000288   0.012781   0.058694   0.000517   0.040027  -0.003734
     17       0.000094   0.006488   0.032021   0.001000   0.025044  -0.001786
     18       0.000476   0.000023   0.001044   0.020699  -0.001188   0.005497
     19       0.001482   0.000097   0.003425   0.068635  -0.004059   0.017950
     20      -0.000805   0.000136  -0.002427  -0.040613   0.001672  -0.013201
     21      -0.001140  -0.044956  -0.206060  -0.000863  -0.137153   0.012233
     22      -0.003353  -0.150525  -0.688269  -0.002650  -0.458670   0.040802
     23      -0.001890  -0.083395  -0.382617  -0.003436  -0.257587   0.022496
     24      -0.005474   0.000052  -0.011292  -0.241521   0.013850  -0.061257
     25      -0.018432   0.000339  -0.036932  -0.800894   0.046065  -0.202602
     26       0.010811   0.000190   0.023462   0.475472  -0.026329   0.122500
     27      -0.000020  -0.000085  -0.000290  -0.000424  -0.000490  -0.000238
     28      -0.000002  -0.000295  -0.000937  -0.001592  -0.001429  -0.001029
     29      -0.000020   0.000411   0.002229  -0.003068   0.002652  -0.001737
     30       0.000000  -0.000017  -0.000015   0.000001   0.000056   0.000014
     31      -0.000013  -0.000000  -0.000043   0.000045   0.000126   0.000140
     32      -0.000023   0.000008  -0.000277   0.000487  -0.000757   0.000620
     33      -0.000570   0.000240  -0.000107   0.000098   0.000082  -0.000013
     34       0.000235   0.000463  -0.000208   0.000054   0.000424   0.000483
     35      -0.001033   0.000700  -0.000076  -0.000177   0.000302  -0.000015
     36       0.000309   0.006936  -0.002178   0.000284   0.000654   0.000278
     37       0.002352   0.064025  -0.017479   0.000945   0.005516   0.000067
     38       0.002624   0.059592  -0.015329   0.000935   0.003761   0.000292
     39       0.003602   0.086541  -0.021483   0.001323   0.004471   0.000594
     40      -0.001161   0.031097  -0.007489   0.000643   0.001224   0.000607
     41      -0.011693  -0.382573   0.094083  -0.006443  -0.017454  -0.004964
     42       0.000847  -0.053106   0.017086  -0.003206  -0.003853  -0.002421
     43       0.000262  -0.004032   0.002092  -0.000623  -0.000774  -0.000701
     44      -0.000186   0.021391  -0.005740   0.000576   0.001346   0.000555
     45      -0.005542  -0.120822   0.032988  -0.001886  -0.010554  -0.000159
     46      -0.033716  -0.785294   0.214464  -0.011861  -0.067391  -0.001335
     47      -0.013541  -0.356682   0.097347  -0.005456  -0.030873  -0.000413
     48      -0.034769   0.001256  -0.000150   0.000834  -0.000052  -0.000795
     49       0.044418  -0.002254   0.000149  -0.001306  -0.000039   0.001818
     50      -0.074152   0.002546  -0.000166   0.002230  -0.000312  -0.001821
     51      -0.119079   0.005388  -0.000536   0.003744  -0.000814  -0.003126
     52      -0.075689   0.001353   0.000113   0.003135  -0.000410  -0.004337
     53       0.627534  -0.025521   0.001943  -0.020046   0.005497   0.015545
     54       0.520552  -0.019451   0.000885  -0.015845   0.001491   0.020734
     55      -0.472935   0.018335  -0.000892   0.013841  -0.001183  -0.017772
     56       0.279609  -0.011474   0.000811  -0.008393   0.000564   0.011662
     57       0.013898   0.000524   0.001274   0.002519   0.000005  -0.010607
     58       0.020495  -0.000754   0.001044   0.000180   0.000115  -0.003415
     59      -0.022659   0.001188  -0.000140  -0.000097  -0.000036   0.002536


-----------
IR SPECTRUM
-----------

 Mode   freq       eps      Int      T**2         TX        TY        TZ
       cm**-1   L/(mol*cm) km/mol    a.u.
----------------------------------------------------------------------------
  6:     55.40   0.000777    3.93  0.004376  (-0.001667 -0.024708  0.061343)
  7:     99.10   0.000498    2.52  0.001568  ( 0.029179 -0.017324  0.020402)
  8:    210.52   0.001017    5.14  0.001507  (-0.030569  0.000395  0.023931)
  9:    223.93   0.000175    0.89  0.000244  (-0.014715 -0.005267  0.000022)
 10:    253.74   0.001670    8.44  0.002054  ( 0.034186 -0.005939 -0.029148)
 11:    306.57   0.000299    1.51  0.000304  ( 0.008487  0.010074 -0.011438)
 12:    354.90   0.000801    4.05  0.000704  ( 0.012937  0.003816  0.022849)
 13:    407.84   0.002175   10.99  0.001664  ( 0.022649  0.022089 -0.025758)
 14:    426.94   0.000147    0.74  0.000107  ( 0.003174  0.009327 -0.003183)
 15:    435.89   0.000354    1.79  0.000254  ( 0.005776  0.001671 -0.014749)
 16:    479.94   0.001520    7.68  0.000988  (-0.019652 -0.012899 -0.020875)
 17:    507.38   0.000729    3.68  0.000448  (-0.018768 -0.001259 -0.009724)
 18:    547.84   0.009031   45.64  0.005144  (-0.065633  0.028893 -0.001193)
 19:    649.72   0.000018    0.09  0.000009  ( 0.001165  0.002382 -0.001337)
 20:    714.77   0.017731   89.60  0.007741  ( 0.020316  0.008645 -0.085169)
 21:    747.18   0.000382    1.93  0.000160  (-0.010000 -0.007130  0.002978)
 22:    806.69   0.000693    3.50  0.000268  ( 0.014952 -0.001703  0.006445)
 23:    849.83   0.020826  105.25  0.007648  ( 0.084458 -0.022288 -0.004206)
 24:    854.63   0.002160   10.92  0.000789  (-0.023029  0.007894 -0.014002)
 25:    934.68   0.000486    2.45  0.000162  (-0.011495  0.005307  0.001356)
 26:    956.19   0.000518    2.62  0.000169  ( 0.001046  0.005015  0.011945)
 27:    972.57   0.020883  105.53  0.006701  ( 0.037761  0.009680  0.071979)
 28:   1002.54   0.000891    4.50  0.000277  (-0.010597 -0.003860  0.012255)
 29:   1068.11   0.003934   19.88  0.001149  (-0.004485  0.032926  0.006727)
 30:   1107.30   0.005792   29.27  0.001632  (-0.011262 -0.036983  0.011733)
 31:   1114.34   0.000890    4.50  0.000249  ( 0.012661  0.005398  0.007733)
 32:   1168.28   0.004592   23.21  0.001227  ( 0.020983  0.015414 -0.023426)
 33:   1173.51   0.018740   94.70  0.004983  ( 0.002641  0.003888 -0.070436)
 34:   1178.05   0.000384    1.94  0.000102  (-0.008935 -0.000571  0.004649)
 35:   1234.61   0.017791   89.91  0.004497  ( 0.008014 -0.065708  0.010725)
 36:   1271.92   0.001314    6.64  0.000322  (-0.007976 -0.015951 -0.002055)
 37:   1327.29   0.004898   24.75  0.001152  (-0.006476 -0.020104  0.026561)
 38:   1337.93   0.031687  160.13  0.007391  (-0.015879 -0.019347 -0.082246)
 39:   1390.84   0.046061  232.77  0.010335  ( 0.002317 -0.007768 -0.101336)
 40:   1426.45   0.000351    1.77  0.000077  (-0.003298 -0.006884  0.004304)
 41:   1452.18   0.003466   17.52  0.000745  (-0.007511  0.008224 -0.024916)
 42:   1454.25   0.008723   44.08  0.001872  (-0.009200 -0.041611  0.007468)
 43:   1463.30   0.003215   16.25  0.000686  ( 0.014516 -0.006631 -0.020762)
 44:   1471.49   0.014514   73.35  0.003078  ( 0.021800  0.014438 -0.048931)
 45:   1480.17   0.003538   17.88  0.000746  (-0.001297  0.025058 -0.010785)
 46:   1495.96   0.000587    2.97  0.000122  (-0.008036  0.000030 -0.007609)
 47:   1536.09   0.205180  1036.90  0.041683  ( 0.006134  0.008349  0.203902)
 48:   1574.59   0.006317   31.92  0.001252  (-0.005663 -0.027496 -0.021539)
 49:   1659.33   0.020805  105.14  0.003913  (-0.000105  0.003886  0.062431)
 50:   2940.04   0.018460   93.29  0.001959  (-0.009954 -0.042266 -0.008597)
 51:   2944.69   0.052539  265.51  0.005568  ( 0.067287  0.008249  0.031180)
 52:   3076.00   0.011031   55.75  0.001119  (-0.023490  0.011140  0.021054)
 53:   3081.50   0.013622   68.84  0.001380  (-0.012834 -0.016048  0.030940)
 54:   3125.88   0.007968   40.27  0.000795  (-0.010582  0.012595 -0.022909)
 55:   3142.85   0.009230   46.65  0.000917  ( 0.002398  0.015607  0.025830)
 56:   3149.44   0.005532   27.96  0.000548  ( 0.002386  0.007209  0.022146)
 57:   3151.32   0.012198   61.64  0.001208  ( 0.006242  0.020169 -0.027607)
 58:   3170.74   0.009554   48.28  0.000940  ( 0.009175  0.029259  0.000288)
 59:   3190.64   0.004744   23.98  0.000464  ( 0.004767  0.019911  0.006697)

* The epsilon (eps) is given for a Dirac delta lineshape.
** The dipole moment derivative (T) already includes vibrational overlap.

The first frequency considered to be a vibration is 6
The total number of vibrations considered is 54


--------------------------
THERMOCHEMISTRY AT 298.15K
--------------------------

Temperature         ... 298.15 K
Pressure            ... 1.00 atm
Total Mass          ... 136.17 AMU

Throughout the following assumptions are being made:
  (1) The electronic state is orbitally nondegenerate
  (2) There are no thermally accessible electronically excited states
  (3) Hindered rotations indicated by low frequency modes are not
      treated as such but are treated as vibrations and this may
      cause some error
  (4) All equations used are the standard statistical mechanics
      equations for an ideal gas
  (5) All vibrations are strictly harmonic

freq.      55.40  E(vib)   ...       0.52 
freq.      99.10  E(vib)   ...       0.46 
freq.     210.52  E(vib)   ...       0.34 
freq.     223.93  E(vib)   ...       0.33 
freq.     253.74  E(vib)   ...       0.30 
freq.     306.57  E(vib)   ...       0.26 
freq.     354.90  E(vib)   ...       0.22 
freq.     407.84  E(vib)   ...       0.19 
freq.     426.94  E(vib)   ...       0.18 
freq.     435.89  E(vib)   ...       0.17 
freq.     479.94  E(vib)   ...       0.15 
freq.     507.38  E(vib)   ...       0.14 
freq.     547.84  E(vib)   ...       0.12 
freq.     649.72  E(vib)   ...       0.08 
freq.     714.77  E(vib)   ...       0.07 
freq.     747.18  E(vib)   ...       0.06 
freq.     806.69  E(vib)   ...       0.05 
freq.     849.83  E(vib)   ...       0.04 
freq.     854.63  E(vib)   ...       0.04 
freq.     934.68  E(vib)   ...       0.03 
freq.     956.19  E(vib)   ...       0.03 
freq.     972.57  E(vib)   ...       0.03 
freq.    1002.54  E(vib)   ...       0.02 
freq.    1068.11  E(vib)   ...       0.02 
freq.    1107.30  E(vib)   ...       0.02 
freq.    1114.34  E(vib)   ...       0.01 
freq.    1168.28  E(vib)   ...       0.01 
freq.    1173.51  E(vib)   ...       0.01 
freq.    1178.05  E(vib)   ...       0.01 
freq.    1234.61  E(vib)   ...       0.01 
freq.    1271.92  E(vib)   ...       0.01 
freq.    1327.29  E(vib)   ...       0.01 
freq.    1337.93  E(vib)   ...       0.01 
freq.    1390.84  E(vib)   ...       0.00 
freq.    1426.45  E(vib)   ...       0.00 
freq.    1452.18  E(vib)   ...       0.00 
freq.    1454.25  E(vib)   ...       0.00 
freq.    1463.30  E(vib)   ...       0.00 
freq.    1471.49  E(vib)   ...       0.00 
freq.    1480.17  E(vib)   ...       0.00 
freq.    1495.96  E(vib)   ...       0.00 
freq.    1536.09  E(vib)   ...       0.00 
freq.    1574.59  E(vib)   ...       0.00 
freq.    1659.33  E(vib)   ...       0.00 
freq.    2940.04  E(vib)   ...       0.00 
freq.    2944.69  E(vib)   ...       0.00 
freq.    3076.00  E(vib)   ...       0.00 
freq.    3081.50  E(vib)   ...       0.00 
freq.    3125.88  E(vib)   ...       0.00 
freq.    3142.85  E(vib)   ...       0.00 
freq.    3149.44  E(vib)   ...       0.00 
freq.    3151.32  E(vib)   ...       0.00 
freq.    3170.74  E(vib)   ...       0.00 
freq.    3190.64  E(vib)   ...       0.00 

------------
INNER ENERGY
------------

The inner energy is: U= E(el) + E(ZPE) + E(vib) + E(rot) + E(trans)
    E(el)   - is the total energy from the electronic structure calculation
              = E(kin-el) + E(nuc-el) + E(el-el) + E(nuc-nuc)
    E(ZPE)  - the the zero temperature vibrational energy from the frequency calculation
    E(vib)  - the the finite temperature correction to E(ZPE) due to population
              of excited vibrational states
    E(rot)  - is the rotational thermal energy
    E(trans)- is the translational thermal energy

Summary of contributions to the inner energy U:
Electronic energy                ...   -440.62051631 Eh
Zero point energy                ...      0.16438783 Eh     103.15 kcal/mol
Thermal vibrational correction   ...      0.00633671 Eh       3.98 kcal/mol
Thermal rotational correction    ...      0.00141627 Eh       0.89 kcal/mol
Thermal translational correction ...      0.00141627 Eh       0.89 kcal/mol
-----------------------------------------------------------------------
Total thermal energy                   -440.44695922 Eh


Summary of corrections to the electronic energy:
(perhaps to be used in another calculation)
Total thermal correction                  0.00916925 Eh       5.75 kcal/mol
Non-thermal (ZPE) correction              0.16438783 Eh     103.15 kcal/mol
-----------------------------------------------------------------------
Total correction                          0.17355709 Eh     108.91 kcal/mol


--------
ENTHALPY
--------

The enthalpy is H = U + kB*T
                kB is Boltzmann's constant
Total free energy                 ...   -440.44695922 Eh 
Thermal Enthalpy correction       ...      0.00094421 Eh       0.59 kcal/mol
-----------------------------------------------------------------------
Total Enthalpy                    ...   -440.44601501 Eh


Note: Only C1 symmetry has been detected, increase convergence thresholds 
      if your molecule has a higher symmetry. Symmetry factor of 1.0 is   
      used for the rotational entropy correction. 
 

Note: Rotational entropy computed according to Herzberg 
Infrared and Raman Spectra, Chapter V,1, Van Nostrand Reinhold, 1945 
Point Group:  C1, Symmetry Number:   1  
Rotational constants in cm-1:     0.118753     0.026600     0.022758 

Vibrational entropy computed according to the QRRHO of S. Grimme
Chem.Eur.J. 2012 18 9955


-------
ENTROPY
-------

The entropy contributions are T*S = T*(S(el)+S(vib)+S(rot)+S(trans))
     S(el)   - electronic entropy
     S(vib)  - vibrational entropy
     S(rot)  - rotational entropy
     S(trans)- translational entropy
The entropies will be listed as multiplied by the temperature to get
units of energy

Electronic entropy                ...      0.00000000 Eh      0.00 kcal/mol
Vibrational entropy               ...      0.01042517 Eh      6.54 kcal/mol
Rotational entropy                ...      0.01401474 Eh      8.79 kcal/mol
Translational entropy             ...      0.01930853 Eh     12.12 kcal/mol
-----------------------------------------------------------------------
Final entropy term                ...      0.04374845 Eh     27.45 kcal/mol

In case the symmetry of your molecule has not been determined correctly
or in case you have a reason to use a different symmetry number we print 
out the resulting rotational entropy values for sn=1,12 :
 --------------------------------------------------------
|  sn= 1 | S(rot)=       0.01401474 Eh      8.79 kcal/mol|
|  sn= 2 | S(rot)=       0.01336029 Eh      8.38 kcal/mol|
|  sn= 3 | S(rot)=       0.01297746 Eh      8.14 kcal/mol|
|  sn= 4 | S(rot)=       0.01270583 Eh      7.97 kcal/mol|
|  sn= 5 | S(rot)=       0.01249514 Eh      7.84 kcal/mol|
|  sn= 6 | S(rot)=       0.01232300 Eh      7.73 kcal/mol|
|  sn= 7 | S(rot)=       0.01217745 Eh      7.64 kcal/mol|
|  sn= 8 | S(rot)=       0.01205138 Eh      7.56 kcal/mol|
|  sn= 9 | S(rot)=       0.01194017 Eh      7.49 kcal/mol|
|  sn=10 | S(rot)=       0.01184069 Eh      7.43 kcal/mol|
|  sn=11 | S(rot)=       0.01175070 Eh      7.37 kcal/mol|
|  sn=12 | S(rot)=       0.01166854 Eh      7.32 kcal/mol|
 --------------------------------------------------------


-------------------
GIBBS FREE ENERGY
-------------------

The Gibbs free energy is G = H - T*S

Total enthalpy                    ...   -440.44601501 Eh 
Total entropy correction          ...     -0.04374845 Eh    -27.45 kcal/mol
-----------------------------------------------------------------------
Final Gibbs free energy         ...   -440.48976346 Eh

For completeness - the Gibbs free energy minus the electronic energy
G-E(el)                           ...      0.13075285 Eh     82.05 kcal/mol


Timings for individual modules:

Sum of individual times         ...      361.936 sec (=   6.032 min)
GTO integral calculation        ...        3.978 sec (=   0.066 min)   1.1 %
SCF iterations                  ...       77.916 sec (=   1.299 min)  21.5 %
SCF Gradient evaluation         ...       14.145 sec (=   0.236 min)   3.9 %
Geometry relaxation             ...        0.199 sec (=   0.003 min)   0.1 %
Analytical frequency calculation...      265.697 sec (=   4.428 min)  73.4 %
                             ****ORCA TERMINATED NORMALLY****
TOTAL RUN TIME: 0 days 0 hours 6 minutes 8 seconds 831 msec
