
                                 *****************
                                 * O   R   C   A *
                                 *****************

                                            #,                                       
                                            ###                                      
                                            ####                                     
                                            #####                                    
                                            ######                                   
                                           ########,                                 
                                     ,,################,,,,,                         
                               ,,#################################,,                 
                          ,,##########################################,,             
                       ,#########################################, ''#####,          
                    ,#############################################,,   '####,        
                  ,##################################################,,,,####,       
                ,###########''''           ''''###############################       
              ,#####''   ,,,,##########,,,,          '''####'''          '####       
            ,##' ,,,,###########################,,,                        '##       
           ' ,,###''''                  '''############,,,                           
         ,,##''                                '''############,,,,        ,,,,,,###''
      ,#''                                            '''#######################'''  
     '                                                          ''''####''''         
             ,#######,   #######,   ,#######,      ##                                
            ,#'     '#,  ##    ##  ,#'     '#,    #''#        ######   ,####,        
            ##       ##  ##   ,#'  ##            #'  '#       #        #'  '#        
            ##       ##  #######   ##           ,######,      #####,   #    #        
            '#,     ,#'  ##    ##  '#,     ,#' ,#      #,         ##   #,  ,#        
             '#######'   ##     ##  '#######'  #'      '#     #####' # '####'        



                  #######################################################
                  #                        -***-                        #
                  #          Department of theory and spectroscopy      #
                  #    Directorship and core code : Frank Neese         #
                  #        Max Planck Institute fuer Kohlenforschung    #
                  #                Kaiser Wilhelm Platz 1               #
                  #                 D-45470 Muelheim/Ruhr               #
                  #                      Germany                        #
                  #                                                     #
                  #                  All rights reserved                #
                  #                        -***-                        #
                  #######################################################


                         Program Version 5.0.4 -  RELEASE  -


 With contributions from (in alphabetic order):
   Daniel Aravena         : Magnetic Suceptibility
   Michael Atanasov       : Ab Initio Ligand Field Theory (pilot matlab implementation)
   Alexander A. Auer      : GIAO ZORA, VPT2 properties, NMR spectrum
   Ute Becker             : Parallelization
   Giovanni Bistoni       : ED, misc. LED, open-shell LED, HFLD
   Martin Brehm           : Molecular dynamics
   Dmytro Bykov           : SCF Hessian
   Vijay G. Chilkuri      : MRCI spin determinant printing, contributions to CSF-ICE
   Dipayan Datta          : RHF DLPNO-CCSD density
   Achintya Kumar Dutta   : EOM-CC, STEOM-CC
   Dmitry Ganyushin       : Spin-Orbit,Spin-Spin,Magnetic field MRCI
   Miquel Garcia          : C-PCM and meta-GGA Hessian, CC/C-PCM, Gaussian charge scheme
   Yang Guo               : DLPNO-NEVPT2, F12-NEVPT2, CIM, IAO-localization
   Andreas Hansen         : Spin unrestricted coupled pair/coupled cluster methods
   Benjamin Helmich-Paris : MC-RPA, TRAH-SCF, COSX integrals
   Lee Huntington         : MR-EOM, pCC
   Robert Izsak           : Overlap fitted RIJCOSX, COSX-SCS-MP3, EOM
   Marcus Kettner         : VPT2
   Christian Kollmar      : KDIIS, OOCD, Brueckner-CCSD(T), CCSD density, CASPT2, CASPT2-K
   Simone Kossmann        : Meta GGA functionals, TD-DFT gradient, OOMP2, MP2 Hessian
   Martin Krupicka        : Initial AUTO-CI
   Lucas Lang             : DCDCAS
   Marvin Lechner         : AUTO-CI (C++ implementation), FIC-MRCC
   Dagmar Lenk            : GEPOL surface, SMD
   Dimitrios Liakos       : Extrapolation schemes; Compound Job, initial MDCI parallelization
   Dimitrios Manganas     : Further ROCIS development; embedding schemes
   Dimitrios Pantazis     : SARC Basis sets
   Anastasios Papadopoulos: AUTO-CI, single reference methods and gradients
   Taras Petrenko         : DFT Hessian,TD-DFT gradient, ASA, ECA, R-Raman, ABS, FL, XAS/XES, NRVS
   Peter Pinski           : DLPNO-MP2, DLPNO-MP2 Gradient
   Christoph Reimann      : Effective Core Potentials
   Marius Retegan         : Local ZFS, SOC
   Christoph Riplinger    : Optimizer, TS searches, QM/MM, DLPNO-CCSD(T), (RO)-DLPNO pert. Triples
   Tobias Risthaus        : Range-separated hybrids, TD-DFT gradient, RPA, STAB
   Michael Roemelt        : Original ROCIS implementation
   Masaaki Saitow         : Open-shell DLPNO-CCSD energy and density
   Barbara Sandhoefer     : DKH picture change effects
   Avijit Sen             : IP-ROCIS
   Kantharuban Sivalingam : CASSCF convergence, NEVPT2, FIC-MRCI
   Bernardo de Souza      : ESD, SOC TD-DFT
   Georgi Stoychev        : AutoAux, RI-MP2 NMR, DLPNO-MP2 response
   Willem Van den Heuvel  : Paramagnetic NMR
   Boris Wezisla          : Elementary symmetry handling
   Frank Wennmohs         : Technical directorship


 We gratefully acknowledge several colleagues who have allowed us to
 interface, adapt or use parts of their codes:
   Stefan Grimme, W. Hujo, H. Kruse, P. Pracht,  : VdW corrections, initial TS optimization,
                  C. Bannwarth, S. Ehlert          DFT functionals, gCP, sTDA/sTD-DF
   Ed Valeev, F. Pavosevic, A. Kumar             : LibInt (2-el integral package), F12 methods
   Garnet Chan, S. Sharma, J. Yang, R. Olivares  : DMRG
   Ulf Ekstrom                                   : XCFun DFT Library
   Mihaly Kallay                                 : mrcc  (arbitrary order and MRCC methods)
   Jiri Pittner, Ondrej Demel                    : Mk-CCSD
   Frank Weinhold                                : gennbo (NPA and NBO analysis)
   Christopher J. Cramer and Donald G. Truhlar   : smd solvation model
   Lars Goerigk                                  : TD-DFT with DH, B97 family of functionals
   V. Asgeirsson, H. Jonsson                     : NEB implementation
   FAccTs GmbH                                   : IRC, NEB, NEB-TS, DLPNO-Multilevel, CI-OPT
                                                   MM, QMMM, 2- and 3-layer-ONIOM, Crystal-QMMM,
                                                   LR-CPCM, SF, NACMEs, symmetry and pop. for TD-DFT,
                                                   nearIR, NL-DFT gradient (VV10), updates on ESD,
                                                   ML-optimized integration grids
   S Lehtola, MJT Oliveira, MAL Marques          : LibXC Library
   Liviu Ungur et al                             : ANISO software


 Your calculation uses the libint2 library for the computation of 2-el integrals
 For citations please refer to: http://libint.valeyev.net

 Your ORCA version has been built with support for libXC version: 5.1.0
 For citations please refer to: https://tddft.org/programs/libxc/

 This ORCA versions uses:
   CBLAS   interface :  Fast vector & matrix operations
   LAPACKE interface :  Fast linear algebra routines
   SCALAPACK package :  Parallel linear algebra routines
   Shared memory     :  Shared parallel matrices
   BLAS/LAPACK       :  OpenBLAS 0.3.15  USE64BITINT DYNAMIC_ARCH NO_AFFINITY Haswell SINGLE_THREADED
        Core in use  :  Haswell
   Copyright (c) 2011-2014, The OpenBLAS Project


Your calculation utilizes the atom-pairwise dispersion correction
with the Becke-Johnson damping scheme (D3BJ)
Cite in your paper:
S.Grimme, S.Ehrlich, L.Goerigk, J Comput Chem, (2011), 32, 1456–1465 
S.Grimme, J.Antony, S.Ehrlich and H.Krieg, J.Chem.Phys., 132, (2010), 154104 
   

================================================================================

----- Orbital basis set information -----
Your calculation utilizes the basis: def2-TZVP
   F. Weigend and R. Ahlrichs, Phys. Chem. Chem. Phys. 7, 3297 (2005).

----- AuxJ basis set information -----
Your calculation utilizes the auxiliary basis: def2/J
   F. Weigend, Phys. Chem. Chem. Phys. 8, 1057 (2006).

================================================================================
                                        WARNINGS
                       Please study these warnings very carefully!
================================================================================


WARNING: Geometry Optimization
  ===> : Switching off AutoStart
         For restart on a previous wavefunction, please use MOREAD

INFO   : the flag for use of the SHARK integral package has been found!

================================================================================
                                       INPUT FILE
================================================================================
NAME = NMe2-PhenOH/NMe2-PhenOH.inp
|  1> %pal nprocs 24 end
|  2> %maxcore 3500
|  3> ! PBE0 D3BJ def2-TZVP TightSCF OPT FREQ TightOpt
|  4> ! CPCM(dmso)
|  5> %scf
|  6> MaxIter 800
|  7> end
|  8> %geom
|  9> MaxIter 800
| 10> MaxStep 0.2
| 11> end
| 12> *xyz 0 1
| 13> 
| 14> C      -0.12025000     -0.54321200     -1.58786900
| 15> C      -0.12290300      0.67585800     -0.89390700
| 16> C      -0.11159900     -1.71410500     -0.81265400
| 17> H      -0.15424700      1.61366000     -1.43149800
| 18> H      -0.13445000     -2.68510800     -1.28829500
| 19> C      -0.08188300      0.71904300      0.49139300
| 20> C      -0.07083100     -1.66652500      0.57127000
| 21> H      -0.08140300      1.68057400      0.99647600
| 22> H      -0.06166700     -2.58766100      1.14382900
| 23> C      -0.05089800     -0.44984600      1.23757700
| 24> O      -0.01313300     -0.45645400      2.60184500
| 25> H      -0.00587700      0.45181600      2.92341800
| 26> N      -0.10956400     -0.58899300     -2.97366600
| 27> C      -0.46608900      0.61085400     -3.69238000
| 28> H      -0.40358800      0.41298400     -4.76160300
| 29> H      -1.48435300      0.95977700     -3.46271000
| 30> H       0.22710000      1.42444800     -3.46742400
| 31> C      -0.45108400     -1.83687000     -3.61339700
| 32> H      -0.37715100     -1.71114700     -4.69272100
| 33> H       0.24501600     -2.62792500     -3.32662400
| 34> H      -1.46972200     -2.17669400     -3.37216100
| 35> *
| 36> 
| 37>                          ****END OF INPUT****
================================================================================

                       *****************************
                       * Geometry Optimization Run *
                       *****************************

Geometry optimization settings:
Update method            Update   .... BFGS
Choice of coordinates    CoordSys .... Z-matrix Internals
Initial Hessian          InHess   .... Almoef's Model

Convergence Tolerances:
Energy Change            TolE     ....  1.0000e-06 Eh
Max. Gradient            TolMAXG  ....  1.0000e-04 Eh/bohr
RMS Gradient             TolRMSG  ....  3.0000e-05 Eh/bohr
Max. Displacement        TolMAXD  ....  1.0000e-03 bohr
RMS Displacement         TolRMSD  ....  6.0000e-04 bohr
Strict Convergence                ....  False
------------------------------------------------------------------------------
                        ORCA OPTIMIZATION COORDINATE SETUP
------------------------------------------------------------------------------

The optimization will be done in new redundant internal coordinates
Making redundant internal coordinates   ...  (new redundants) done
Evaluating the initial hessian          ...  (Almloef) done
Evaluating the coordinates              ...  done
Calculating the B-matrix                .... done
Calculating the G-matrix                .... done
Diagonalizing the G-matrix              .... done
Small eigenvalue found = 1.685e-02
The first mode is                       ....   40
The number of degrees of freedom        ....   57

    -----------------------------------------------------------------
                    Redundant Internal Coordinates


    -----------------------------------------------------------------
         Definition                    Initial Value    Approx d2E/dq
    -----------------------------------------------------------------
      1. B(C   1,C   0)                  1.4028         0.596195   
      2. B(C   2,C   0)                  1.4043         0.592848   
      3. B(H   3,C   1)                  1.0814         0.371637   
      4. B(H   4,C   2)                  1.0815         0.371546   
      5. B(C   5,C   1)                  1.3866         0.632696   
      6. B(C   6,C   2)                  1.3853         0.635581   
      7. B(H   7,C   5)                  1.0861         0.365273   
      8. B(H   8,C   6)                  1.0846         0.367289   
      9. B(C   9,C   6)                  1.3873         0.630967   
     10. B(C   9,C   5)                  1.3871         0.631484   
     11. B(O  10,C   9)                  1.3648         0.613861   
     12. B(H  11,O  10)                  0.9635         0.513231   
     13. B(N  12,C   0)                  1.3866         0.566643   
     14. B(C  13,N  12)                  1.4434         0.459982   
     15. B(H  14,C  13)                  1.0892         0.361196   
     16. B(H  15,C  13)                  1.1006         0.346326   
     17. B(H  16,C  13)                  1.0923         0.357111   
     18. B(C  17,N  12)                  1.4433         0.460101   
     19. B(H  18,C  17)                  1.0891         0.361248   
     20. B(H  19,C  17)                  1.0920         0.357405   
     21. B(H  20,C  17)                  1.1006         0.346360   
     22. A(C   2,C   0,N  12)          121.6104         0.420945   
     23. A(C   1,C   0,C   2)          116.8418         0.427573   
     24. A(C   1,C   0,N  12)          121.5429         0.421368   
     25. A(C   0,C   1,H   3)          120.5152         0.352455   
     26. A(H   3,C   1,C   5)          118.0673         0.356022   
     27. A(C   0,C   1,C   5)          121.4173         0.432595   
     28. A(C   0,C   2,C   6)          121.5346         0.432511   
     29. A(H   4,C   2,C   6)          118.0871         0.356282   
     30. A(C   0,C   2,H   4)          120.3781         0.352104   
     31. A(H   7,C   5,C   9)          119.7257         0.354864   
     32. A(C   1,C   5,C   9)          120.7880         0.437096   
     33. A(C   1,C   5,H   7)          119.4847         0.354980   
     34. A(H   8,C   6,C   9)          119.4162         0.355146   
     35. A(C   2,C   6,C   9)          120.6861         0.437390   
     36. A(C   2,C   6,H   8)          119.8961         0.355586   
     37. A(C   5,C   9,O  10)          122.8492         0.431878   
     38. A(C   5,C   9,C   6)          118.7079         0.436880   
     39. A(C   6,C   9,O  10)          118.4404         0.431814   
     40. A(C   9,O  10,H  11)          109.2234         0.368658   
     41. A(C  13,N  12,C  17)          116.0767         0.385525   
     42. A(C   0,N  12,C  13)          117.9245         0.399838   
     43. A(C   0,N  12,C  17)          118.0157         0.399857   
     44. A(H  15,C  13,H  16)          107.9404         0.288688   
     45. A(H  14,C  13,H  16)          107.5227         0.290598   
     46. A(N  12,C  13,H  16)          111.0930         0.333175   
     47. A(H  14,C  13,H  15)          108.3932         0.289203   
     48. A(N  12,C  13,H  15)          112.8400         0.331486   
     49. A(N  12,C  13,H  14)          108.8826         0.333805   
     50. A(H  18,C  17,H  19)          107.4927         0.290642   
     51. A(N  12,C  17,H  19)          111.0433         0.333235   
     52. A(N  12,C  17,H  18)          108.8677         0.333827   
     53. A(H  19,C  17,H  20)          107.9834         0.288730   
     54. A(H  18,C  17,H  20)          108.4021         0.289214   
     55. A(N  12,C  17,H  20)          112.8806         0.331506   
     56. D(H   3,C   1,C   0,C   2)   -178.4766         0.024487   
     57. D(H   3,C   1,C   0,N  12)      2.3157         0.024487   
     58. D(C   5,C   1,C   0,N  12)   -177.4956         0.024487   
     59. D(C   5,C   1,C   0,C   2)      1.7121         0.024487   
     60. D(H   4,C   2,C   0,N  12)     -2.3462         0.024199   
     61. D(C   6,C   2,C   0,C   1)     -1.7048         0.024199   
     62. D(H   4,C   2,C   0,C   1)    178.4467         0.024199   
     63. D(C   6,C   2,C   0,N  12)    177.5023         0.024199   
     64. D(C   9,C   5,C   1,H   3)    179.5014         0.027771   
     65. D(H   7,C   5,C   1,H   3)     -0.0489         0.027771   
     66. D(H   7,C   5,C   1,C   0)    179.7668         0.027771   
     67. D(C   9,C   5,C   1,C   0)     -0.6828         0.027771   
     68. D(H   8,C   6,C   2,H   4)      0.0614         0.028041   
     69. D(C   9,C   6,C   2,C   0)      0.6641         0.028041   
     70. D(H   8,C   6,C   2,C   0)   -179.7904         0.028041   
     71. D(C   9,C   6,C   2,H   4)   -179.4840         0.028041   
     72. D(O  10,C   9,C   6,H   8)      0.3373         0.027609   
     73. D(C   5,C   9,C   6,H   8)   -179.1094         0.027609   
     74. D(O  10,C   9,C   5,H   7)     -0.3010         0.027657   
     75. D(O  10,C   9,C   5,C   1)   -179.8502         0.027657   
     76. D(C   6,C   9,C   5,H   7)    179.1200         0.027657   
     77. D(O  10,C   9,C   6,C   2)    179.8850         0.027609   
     78. D(C   6,C   9,C   5,C   1)     -0.4293         0.027657   
     79. D(C   5,C   9,C   6,C   2)      0.4382         0.027609   
     80. D(H  11,O  10,C   9,C   6)   -179.8265         0.027607   
     81. D(H  11,O  10,C   9,C   5)     -0.4041         0.027607   
     82. D(C  17,N  12,C   0,C   2)     16.4781         0.025678   
     83. D(C  17,N  12,C   0,C   1)   -164.3521         0.025678   
     84. D(C  13,N  12,C   0,C   2)    164.2079         0.025678   
     85. D(C  13,N  12,C   0,C   1)    -16.6223         0.025678   
     86. D(H  14,C  13,N  12,C   0)    179.6717         0.018062   
     87. D(H  16,C  13,N  12,C  17)   -150.2095         0.018062   
     88. D(H  16,C  13,N  12,C   0)     61.4430         0.018062   
     89. D(H  15,C  13,N  12,C  17)     88.4113         0.018062   
     90. D(H  15,C  13,N  12,C   0)    -59.9362         0.018062   
     91. D(H  14,C  13,N  12,C  17)    -31.9808         0.018062   
     92. D(H  20,C  17,N  12,C  13)    -87.6651         0.018071   
     93. D(H  20,C  17,N  12,C   0)     60.6525         0.018071   
     94. D(H  19,C  17,N  12,C  13)    150.9074         0.018071   
     95. D(H  19,C  17,N  12,C   0)    -60.7750         0.018071   
     96. D(H  18,C  17,N  12,C  13)     32.7541         0.018071   
     97. D(H  18,C  17,N  12,C   0)   -178.9282         0.018071   
    -----------------------------------------------------------------

Number of atoms                         .... 21
Number of degrees of freedom            .... 97

         *************************************************************
         *                GEOMETRY OPTIMIZATION CYCLE   1            *
         *************************************************************
---------------------------------
CARTESIAN COORDINATES (ANGSTROEM)
---------------------------------
  C     -0.120250   -0.543212   -1.587869
  C     -0.122903    0.675858   -0.893907
  C     -0.111599   -1.714105   -0.812654
  H     -0.154247    1.613660   -1.431498
  H     -0.134450   -2.685108   -1.288295
  C     -0.081883    0.719043    0.491393
  C     -0.070831   -1.666525    0.571270
  H     -0.081403    1.680574    0.996476
  H     -0.061667   -2.587661    1.143829
  C     -0.050898   -0.449846    1.237577
  O     -0.013133   -0.456454    2.601845
  H     -0.005877    0.451816    2.923418
  N     -0.109564   -0.588993   -2.973666
  C     -0.466089    0.610854   -3.692380
  H     -0.403588    0.412984   -4.761603
  H     -1.484353    0.959777   -3.462710
  H      0.227100    1.424448   -3.467424
  C     -0.451084   -1.836870   -3.613397
  H     -0.377151   -1.711147   -4.692721
  H      0.245016   -2.627925   -3.326624
  H     -1.469722   -2.176694   -3.372161

----------------------------
CARTESIAN COORDINATES (A.U.)
----------------------------
  NO LB      ZA    FRAG     MASS         X           Y           Z
   0 C     6.0000    0    12.011   -0.227240   -1.026522   -3.000638
   1 C     6.0000    0    12.011   -0.232253    1.277187   -1.689239
   2 C     6.0000    0    12.011   -0.210892   -3.239189   -1.535694
   3 H     1.0000    0     1.008   -0.291485    3.049375   -2.705139
   4 H     1.0000    0     1.008   -0.254074   -5.074119   -2.434525
   5 C     6.0000    0    12.011   -0.154736    1.358794    0.928598
   6 C     6.0000    0    12.011   -0.133851   -3.149276    1.079544
   7 H     1.0000    0     1.008   -0.153829    3.175825    1.883067
   8 H     1.0000    0     1.008   -0.116534   -4.889971    2.161524
   9 C     6.0000    0    12.011   -0.096183   -0.850086    2.338682
  10 O     8.0000    0    15.999   -0.024818   -0.862573    4.916774
  11 H     1.0000    0     1.008   -0.011106    0.853809    5.524459
  12 N     7.0000    0    14.007   -0.207046   -1.113035   -5.619414
  13 C     6.0000    0    12.011   -0.880781    1.154347   -6.977587
  14 H     1.0000    0     1.008   -0.762671    0.780427   -8.998126
  15 H     1.0000    0     1.008   -2.805021    1.813716   -6.543574
  16 H     1.0000    0     1.008    0.429157    2.691817   -6.552482
  17 C     6.0000    0    12.011   -0.852425   -3.471181   -6.828331
  18 H     1.0000    0     1.008   -0.712712   -3.233599   -8.867958
  19 H     1.0000    0     1.008    0.463013   -4.966059   -6.286408
  20 H     1.0000    0     1.008   -2.777372   -4.113356   -6.372461

--------------------------------
INTERNAL COORDINATES (ANGSTROEM)
--------------------------------
 C      0   0   0     0.000000000000     0.00000000     0.00000000
 C      1   0   0     1.402755132143     0.00000000     0.00000000
 C      1   2   0     1.404287560820   116.84181180     0.00000000
 H      2   1   3     1.081415332248   120.51516214   181.52337598
 H      3   1   2     1.081482017923   120.37810927   178.44674484
 C      2   1   3     1.386579847908   121.41732183     1.71208438
 C      3   1   2     1.385341663273   121.53462038   358.29520736
 H      6   2   1     1.086117365320   119.48473204   179.76684421
 H      7   3   1     1.084619434582   119.89613441   180.20962502
 C      6   2   1     1.387102060557   120.78803463   359.31718948
 O     10   6   2     1.364806593153   122.84924070   180.14977500
 H     11  10   6     0.963543583220   109.22342168   359.59590033
 N      1   2   3     1.386594178470   121.54292291   180.79235320
 C     13   1   2     1.443361601550   117.92453036   343.37769990
 H     14  13   1     1.089172500401   108.88258329   179.67173124
 H     14  13   1     1.100616710088   112.83995836   300.06382140
 H     14  13   1     1.092268917663   111.09303012    61.44299549
 C     13   1   2     1.443290916583   118.01565565   195.64791927
 H     18  13   1     1.089133902784   108.86774839   181.07176023
 H     18  13   1     1.092044860138   111.04331318   299.22504956
 H     18  13   1     1.100590084326   112.88063040    60.65248384

---------------------------
INTERNAL COORDINATES (A.U.)
---------------------------
 C      0   0   0     0.000000000000     0.00000000     0.00000000
 C      1   0   0     2.650823032702     0.00000000     0.00000000
 C      1   2   0     2.653718903223   116.84181180     0.00000000
 H      2   1   3     2.043578814972   120.51516214   181.52337598
 H      3   1   2     2.043704832635   120.37810927   178.44674484
 C      2   1   3     2.620256175361   121.41732183     1.71208438
 C      3   1   2     2.617916345497   121.53462038   358.29520736
 H      6   2   1     2.052464369751   119.48473204   179.76684421
 H      7   3   1     2.049633690889   119.89613441   180.20962502
 C      6   2   1     2.621243014251   120.78803463   359.31718948
 O     10   6   2     2.579110686829   122.84924070   180.14977500
 H     11  10   6     1.820833490384   109.22342168   359.59590033
 N      1   2   3     2.620283256197   121.54292291   180.79235320
 C     13   1   2     2.727558139148   117.92453036   343.37769990
 H     14  13   1     2.058237738356   108.88258329   179.67173124
 H     14  13   1     2.079864160484   112.83995836   300.06382140
 H     14  13   1     2.064089118978   111.09303012    61.44299549
 C     13   1   2     2.727424563917   118.01565565   195.64791927
 H     18  13   1     2.058164799431   108.86774839   181.07176023
 H     18  13   1     2.063665711617   111.04331318   299.22504956
 H     18  13   1     2.079813845085   112.88063040    60.65248384

---------------------
BASIS SET INFORMATION
---------------------
There are 4 groups of distinct atoms

 Group   1 Type C   : 11s6p2d1f contracted to 5s3p2d1f pattern {62111/411/11/1}
 Group   2 Type H   : 5s1p contracted to 3s1p pattern {311/1}
 Group   3 Type O   : 11s6p2d1f contracted to 5s3p2d1f pattern {62111/411/11/1}
 Group   4 Type N   : 11s6p2d1f contracted to 5s3p2d1f pattern {62111/411/11/1}

Atom   0C    basis set group =>   1
Atom   1C    basis set group =>   1
Atom   2C    basis set group =>   1
Atom   3H    basis set group =>   2
Atom   4H    basis set group =>   2
Atom   5C    basis set group =>   1
Atom   6C    basis set group =>   1
Atom   7H    basis set group =>   2
Atom   8H    basis set group =>   2
Atom   9C    basis set group =>   1
Atom  10O    basis set group =>   3
Atom  11H    basis set group =>   2
Atom  12N    basis set group =>   4
Atom  13C    basis set group =>   1
Atom  14H    basis set group =>   2
Atom  15H    basis set group =>   2
Atom  16H    basis set group =>   2
Atom  17C    basis set group =>   1
Atom  18H    basis set group =>   2
Atom  19H    basis set group =>   2
Atom  20H    basis set group =>   2
---------------------------------
AUXILIARY/J BASIS SET INFORMATION
---------------------------------
There are 4 groups of distinct atoms

 Group   1 Type C   : 12s5p4d2f1g contracted to 6s4p3d1f1g pattern {711111/2111/211/2/1}
 Group   2 Type H   : 5s2p1d contracted to 3s1p1d pattern {311/2/1}
 Group   3 Type O   : 12s5p4d2f1g contracted to 6s4p3d1f1g pattern {711111/2111/211/2/1}
 Group   4 Type N   : 12s5p4d2f1g contracted to 6s4p3d1f1g pattern {711111/2111/211/2/1}

Atom   0C    basis set group =>   1
Atom   1C    basis set group =>   1
Atom   2C    basis set group =>   1
Atom   3H    basis set group =>   2
Atom   4H    basis set group =>   2
Atom   5C    basis set group =>   1
Atom   6C    basis set group =>   1
Atom   7H    basis set group =>   2
Atom   8H    basis set group =>   2
Atom   9C    basis set group =>   1
Atom  10O    basis set group =>   3
Atom  11H    basis set group =>   2
Atom  12N    basis set group =>   4
Atom  13C    basis set group =>   1
Atom  14H    basis set group =>   2
Atom  15H    basis set group =>   2
Atom  16H    basis set group =>   2
Atom  17C    basis set group =>   1
Atom  18H    basis set group =>   2
Atom  19H    basis set group =>   2
Atom  20H    basis set group =>   2


           ************************************************************
           *        Program running with 24 parallel MPI-processes    *
           *              working on a common directory               *
           ************************************************************
------------------------------------------------------------------------------
                           ORCA GTO INTEGRAL CALCULATION
                           -- RI-GTO INTEGRALS CHOSEN --
------------------------------------------------------------------------------
------------------------------------------------------------------------------
                   ___                                                        
                  /   \      - P O W E R E D   B Y -                         
                 /     \                                                     
                 |  |  |   _    _      __       _____    __    __             
                 |  |  |  | |  | |    /  \     |  _  \  |  |  /  |          
                  \  \/   | |  | |   /    \    | | | |  |  | /  /          
                 / \  \   | |__| |  /  /\  \   | |_| |  |  |/  /          
                |  |  |   |  __  | /  /__\  \  |    /   |      \           
                |  |  |   | |  | | |   __   |  |    \   |  |\   \          
                \     /   | |  | | |  |  |  |  | |\  \  |  | \   \       
                 \___/    |_|  |_| |__|  |__|  |_| \__\ |__|  \__/        
                                                                              
                      - O R C A' S   B I G   F R I E N D -                    
                                      &                                       
                       - I N T E G R A L  F E E D E R -                       
                                                                              
 v1 FN, 2020, v2 2021                                                         
------------------------------------------------------------------------------


Reading SHARK input file NMe2-PhenOH/NMe2-PhenOH.SHARKINP.tmp ... ok
----------------------
SHARK INTEGRAL PACKAGE
----------------------

Number of atoms                             ...     21
Number of basis functions                   ...    376
Number of shells                            ...    154
Maximum angular momentum                    ...      3
Integral batch strategy                     ... SHARK/LIBINT Hybrid
RI-J (if used) integral strategy            ... SPLIT-RIJ (Revised 2003 algorithm where possible)
Printlevel                                  ...      1
Contraction scheme used                     ... SEGMENTED contraction
Coulomb Range Separation                    ... NOT USED
Exchange Range Separation                   ... NOT USED
Finite Nucleus Model                        ... NOT USED
Auxiliary Coulomb fitting basis             ... AVAILABLE
   # of basis functions in Aux-J            ...    611
   # of shells in Aux-J                     ...    205
   Maximum angular momentum in Aux-J        ...      4
Auxiliary J/K fitting basis                 ... NOT available
Auxiliary Correlation fitting basis         ... NOT available
Auxiliary 'external' fitting basis          ... NOT available
Integral threshold                          ...     2.500000e-11
Primitive cut-off                           ...     2.500000e-12
Primitive pair pre-selection threshold      ...     2.500000e-12

Calculating pre-screening integrals         ... done (  0.1 sec) Dimension = 154
Organizing shell pair data                  ... done (  0.1 sec)
Shell pair information
Total number of shell pairs                 ...     11935
Shell pairs after pre-screening             ...     10398
Total number of primitive shell pairs       ...     35764
Primitive shell pairs kept                  ...     22967
          la=0 lb=0:   2928 shell pairs
          la=1 lb=0:   2977 shell pairs
          la=1 lb=1:    782 shell pairs
          la=2 lb=0:   1463 shell pairs
          la=2 lb=1:    747 shell pairs
          la=2 lb=2:    191 shell pairs
          la=3 lb=0:    715 shell pairs
          la=3 lb=1:    365 shell pairs
          la=3 lb=2:    178 shell pairs
          la=3 lb=3:     52 shell pairs

Calculating one electron integrals          ... done (  0.0 sec)
Calculating RI/J V-Matrix + Cholesky decomp.... done (  0.1 sec)
Calculating Nuclear repulsion               ... done (  0.0 sec) ENN=    514.955417493224 Eh

SHARK setup successfully completed in   0.6 seconds

Maximum memory used throughout the entire GTOINT-calculation: 23.4 MB


           ************************************************************
           *        Program running with 24 parallel MPI-processes    *
           *              working on a common directory               *
           ************************************************************
-------------------------------------------------------------------------------
                                 ORCA SCF
-------------------------------------------------------------------------------

------------
SCF SETTINGS
------------
Hamiltonian:
 Density Functional     Method          .... DFT(GTOs)
 Exchange Functional    Exchange        .... PBE
   PBE kappa parameter   XKappa         ....  0.804000
   PBE mue parameter    XMuePBE         ....  0.219520
 Correlation Functional Correlation     .... PBE
   PBE beta parameter  CBetaPBE         ....  0.066725
 LDA part of GGA corr.  LDAOpt          .... PW91-LDA
 Gradients option       PostSCFGGA      .... off
 Hybrid DFT is turned on
   Fraction HF Exchange ScalHFX         ....  0.250000
   Scaling of DF-GGA-X  ScalDFX         ....  0.750000
   Scaling of DF-GGA-C  ScalDFC         ....  1.000000
   Scaling of DF-LDA-C  ScalLDAC        ....  1.000000
   Perturbative correction              ....  0.000000
   Density functional embedding theory  .... OFF
   NL short-range parameter             ....  6.900000
 RI-approximation to the Coulomb term is turned on
   Number of AuxJ basis functions       .... 611
   RIJ-COSX (HFX calculated with COS-X)).... on


General Settings:
 Integral files         IntName         .... NMe2-PhenOH/NMe2-PhenOH
 Hartree-Fock type      HFTyp           .... RHF
 Total Charge           Charge          ....    0
 Multiplicity           Mult            ....    1
 Number of Electrons    NEL             ....   74
 Basis Dimension        Dim             ....  376
 Nuclear Repulsion      ENuc            ....    514.9554174932 Eh

Convergence Acceleration:
 DIIS                   CNVDIIS         .... on
   Start iteration      DIISMaxIt       ....    12
   Startup error        DIISStart       ....  0.200000
   # of expansion vecs  DIISMaxEq       ....     5
   Bias factor          DIISBfac        ....   1.050
   Max. coefficient     DIISMaxC        ....  10.000
 Trust-Rad. Augm. Hess. CNVTRAH         .... auto
   Auto Start mean grad. ratio tolernc. ....  1.125000
   Auto Start start iteration           ....    20
   Auto Start num. interpolation iter.  ....    10
   Max. Number of Micro iterations      ....    16
   Max. Number of Macro iterations      .... Maxiter - #DIIS iter
   Number of Davidson start vectors     ....     2
   Converg. threshold I  (grad. norm)   ....   1.000e-05
   Converg. threshold II (energy diff.) ....   1.000e-08
   Grad. Scal. Fac. for Micro threshold ....   0.100
   Minimum threshold for Micro iter.    ....   0.010
   NR start threshold (gradient norm)   ....   0.001
   Initial trust radius                 ....   0.400
   Minimum AH scaling param. (alpha)    ....   1.000
   Maximum AH scaling param. (alpha)    .... 1000.000
   Orbital update algorithm             .... Taylor
   White noise on init. David. guess    .... on
   Maximum white noise                  ....   0.010
   Quad. conv. algorithm                .... NR
 SOSCF                  CNVSOSCF        .... on
   Start iteration      SOSCFMaxIt      ....   150
   Startup grad/error   SOSCFStart      ....  0.003300
 Level Shifting         CNVShift        .... on
   Level shift para.    LevelShift      ....    0.2500
   Turn off err/grad.   ShiftErr        ....    0.0010
 Zerner damping         CNVZerner       .... off
 Static damping         CNVDamp         .... on
   Fraction old density DampFac         ....    0.7000
   Max. Damping (<1)    DampMax         ....    0.9800
   Min. Damping (>=0)   DampMin         ....    0.0000
   Turn off err/grad.   DampErr         ....    0.1000
 Fernandez-Rico         CNVRico         .... off

SCF Procedure:
 Maximum # iterations   MaxIter         ....   800
 SCF integral mode      SCFMode         .... Direct
   Integral package                     .... SHARK and LIBINT hybrid scheme
 Reset frequency        DirectResetFreq ....    20
 Integral Threshold     Thresh          ....  2.500e-11 Eh
 Primitive CutOff       TCut            ....  2.500e-12 Eh

Convergence Tolerance:
 Convergence Check Mode ConvCheckMode   .... Total+1el-Energy
 Convergence forced     ConvForced      .... 0
 Energy Change          TolE            ....  1.000e-08 Eh
 1-El. energy change                    ....  1.000e-05 Eh
 Orbital Gradient       TolG            ....  1.000e-05
 Orbital Rotation angle TolX            ....  1.000e-05
 DIIS Error             TolErr          ....  5.000e-07


Diagonalization of the overlap matrix:
Smallest eigenvalue                        ... 8.436e-06
Time for diagonalization                   ...    0.035 sec
Threshold for overlap eigenvalues          ... 1.000e-08
Number of eigenvalues below threshold      ... 0
Time for construction of square roots      ...    0.028 sec
Total time needed                          ...    0.066 sec

Time for model grid setup =    0.120 sec

------------------------------
INITIAL GUESS: MODEL POTENTIAL
------------------------------
Loading Hartree-Fock densities                     ... done
Calculating cut-offs                               ... done
Initializing the effective Hamiltonian             ... done
Setting up the integral package (SHARK)            ... done
Starting the Coulomb interaction                   ... done (   0.1 sec)
Reading the grid                                   ... done
Mapping shells                                     ... done
Starting the XC term evaluation                    ... done (   0.0 sec)
  promolecular density results
     # of electrons  =     73.995579885
     EX              =    -58.910138013
     EC              =     -2.464698902
     EX+EC           =    -61.374836915
Transforming the Hamiltonian                       ... done (   0.0 sec)
Diagonalizing the Hamiltonian                      ... done (   0.0 sec)
Back transforming the eigenvectors                 ... done (   0.0 sec)
Now organizing SCF variables                       ... done
                      ------------------
                      INITIAL GUESS DONE (   0.4 sec)
                      ------------------
-------------------
DFT GRID GENERATION
-------------------

General Integration Accuracy     IntAcc      ... 4.388
Radial Grid Type                 RadialGrid  ... OptM3 with GC (2021)
Angular Grid (max. ang.)         AngularGrid ... 4 (Lebedev-302)
Angular grid pruning method      GridPruning ... 4 (adaptive)
Weight generation scheme         WeightScheme... Becke
Basis function cutoff            BFCut       ... 1.0000e-11
Integration weight cutoff        WCut        ... 1.0000e-14
Angular grids for H and He will be reduced by one unit
Partially contracted basis set               ... off
Rotationally invariant grid construction     ... off

Total number of grid points                  ...    95225
Total number of batches                      ...     1499
Average number of points per batch           ...       63
Average number of grid points per atom       ...     4535
Time for grid setup =    0.503 sec

--------------------
COSX GRID GENERATION
--------------------

GRIDX 1
-------
General Integration Accuracy     IntAcc      ... 3.816
Radial Grid Type                 RadialGrid  ... OptM3 with GC (2021)
Angular Grid (max. ang.)         AngularGrid ... 1 (Lebedev-50)
Angular grid pruning method      GridPruning ... 4 (adaptive)
Weight generation scheme         WeightScheme... Becke
Basis function cutoff            BFCut       ... 1.0000e-11
Integration weight cutoff        WCut        ... 1.0000e-14
Angular grids for H and He will be reduced by one unit
Partially contracted basis set               ... on
Rotationally invariant grid construction     ... off

Total number of grid points                  ...    12204
Total number of batches                      ...      199
Average number of points per batch           ...       61
Average number of grid points per atom       ...      581
UseSFitting                                  ... on

GRIDX 2
-------
General Integration Accuracy     IntAcc      ... 4.020
Radial Grid Type                 RadialGrid  ... OptM3 with GC (2021)
Angular Grid (max. ang.)         AngularGrid ... 2 (Lebedev-110)
Angular grid pruning method      GridPruning ... 4 (adaptive)
Weight generation scheme         WeightScheme... Becke
Basis function cutoff            BFCut       ... 1.0000e-11
Integration weight cutoff        WCut        ... 1.0000e-14
Angular grids for H and He will be reduced by one unit
Partially contracted basis set               ... on
Rotationally invariant grid construction     ... off

Total number of grid points                  ...    26097
Total number of batches                      ...      418
Average number of points per batch           ...       62
Average number of grid points per atom       ...     1243
UseSFitting                                  ... on

GRIDX 3
-------
General Integration Accuracy     IntAcc      ... 4.338
Radial Grid Type                 RadialGrid  ... OptM3 with GC (2021)
Angular Grid (max. ang.)         AngularGrid ... 3 (Lebedev-194)
Angular grid pruning method      GridPruning ... 4 (adaptive)
Weight generation scheme         WeightScheme... Becke
Basis function cutoff            BFCut       ... 1.0000e-11
Integration weight cutoff        WCut        ... 1.0000e-14
Angular grids for H and He will be reduced by one unit
Partially contracted basis set               ... on
Rotationally invariant grid construction     ... off

Total number of grid points                  ...    57180
Total number of batches                      ...      908
Average number of points per batch           ...       62
Average number of grid points per atom       ...     2723
UseSFitting                                  ... on

Time for X-Grid setup             =    0.736 sec


--------------------
CPCM SOLVATION MODEL
--------------------
CPCM parameters:
  Epsilon                                         ...      47.2000
  Refrac                                          ...       1.4790
  Rsolv                                           ...       1.3000
  Surface type                                    ... GAUSSIAN VDW
  Epsilon function type                           ...         CPCM
Radii:
 Radius for C  used is    3.8550 Bohr (=   2.0400 Ang.)
 Radius for H  used is    2.4944 Bohr (=   1.3200 Ang.)
 Radius for O  used is    3.4469 Bohr (=   1.8240 Ang.)
 Radius for N  used is    3.5149 Bohr (=   1.8600 Ang.)
Calculating surface                               ...        done! (  0.0s)
GEPOL surface points                              ...         1142
GEPOL Volume                                      ...    1201.3770
GEPOL Surface-area                                ...     663.6495
Calculating surface distance matrix               ...        done! (  0.0s)
Performing Cholesky decomposition & store         ...        done! (  0.1s)
Overall time for CPCM initialization              ...                 0.1s
--------------
SCF ITERATIONS
--------------
ITER       Energy         Delta-E        Max-DP      RMS-DP      [F,P]     Damp
               ***  Starting incremental Fock matrix formation  ***
  0   -440.8460578062   0.000000000000 0.12704532  0.00129759  0.2180445 0.7000
  1   -440.9551292095  -0.109071403368 0.13894732  0.00132177  0.1034449 0.7000
                               ***Turning on DIIS***
  2   -441.0044587711  -0.049329561549 0.22842062  0.00242720  0.0384062 0.0000
  3   -441.0759127197  -0.071453948650 0.11850936  0.00101134  0.0504358 0.0000
  4   -441.0929576208  -0.017044901038 0.03044758  0.00029491  0.0083682 0.0000
  5   -441.0936229089  -0.000665288127 0.01553465  0.00013705  0.0062139 0.0000
                      *** Initiating the SOSCF procedure ***
                           *** Shutting down DIIS ***
                      *** Re-Reading the Fockian *** 
                      *** Removing any level shift *** 
ITER      Energy       Delta-E        Grad      Rot      Max-DP    RMS-DP
  6   -441.09369751  -0.0000746023  0.000266  0.000266  0.003901  0.000051
               *** Restarting incremental Fock matrix formation ***
  7   -441.09369177   0.0000057421  0.000090  0.000414  0.001362  0.000019
  8   -441.09369144   0.0000003296  0.000156  0.000294  0.000639  0.000006
  9   -441.09369223  -0.0000007936  0.000015  0.000054  0.000072  0.000001
 10   -441.09369223   0.0000000060  0.000019  0.000031  0.000031  0.000001
                  ***Gradient check signals convergence***
              ***Rediagonalizing the Fockian in SOSCF/NRSCF***

               *****************************************************
               *                     SUCCESS                       *
               *           SCF CONVERGED AFTER  11 CYCLES          *
               *****************************************************

Old exchange energy                            =    -15.076520670 Eh
New exchange energy                            =    -15.076520765 Eh
Exchange energy change after final integration =     -0.000000095 Eh
Total energy after final integration           =   -441.093692341 Eh
Final COS-X integration done in                =     2.420 sec

----------------
TOTAL SCF ENERGY
----------------

Total Energy       :         -441.09369234 Eh          -12002.76958 eV

Components:
Nuclear Repulsion  :          514.95541749 Eh           14012.64930 eV
Electronic Energy  :         -956.04910983 Eh          -26015.41888 eV
One Electron Energy:        -1618.71336921 Eh          -44047.43010 eV
Two Electron Energy:          662.66425938 Eh           18032.01123 eV
Max COSX asymmetry :            0.00000152 Eh               0.00004 eV
CPCM Dielectric    :           -0.01479041 Eh              -0.40247 eV

Virial components:
Potential Energy   :         -880.09662895 Eh          -23948.64680 eV
Kinetic Energy     :          439.00293660 Eh           11945.87722 eV
Virial Ratio       :            2.00476251


DFT components:
N(Alpha)           :       37.000026423211 electrons
N(Beta)            :       37.000026423211 electrons
N(Total)           :       74.000052846422 electrons
E(X)               :      -45.092526709981 Eh       
E(C)               :       -2.468562756635 Eh       
E(XC)              :      -47.561089466617 Eh       
DFET-embed. en.    :        0.000000000000 Eh       
CPCM Solvation Model Properties:
Surface-charge          :           -0.02719470
Charge-correction       :            0.00001192 Eh               0.00032 eV
Free-energy (cav+disp)  :  This term is not implemented in the current solvation scheme

---------------
SCF CONVERGENCE
---------------

  Last Energy change         ...   -1.8793e-08  Tolerance :   1.0000e-08
  Last MAX-Density change    ...    9.9920e-16  Tolerance :   1.0000e-07
  Last RMS-Density change    ...    1.5990e-17  Tolerance :   5.0000e-09
  Last Orbital Gradient      ...    2.0209e-06  Tolerance :   1.0000e-05
  Last Orbital Rotation      ...    4.2952e-06  Tolerance :   1.0000e-05

             **** THE GBW FILE WAS UPDATED (NMe2-PhenOH/NMe2-PhenOH.gbw) ****
             **** DENSITY NMe2-PhenOH/NMe2-PhenOH.scfp WAS UPDATED ****
             **** ENERGY FILE WAS UPDATED (NMe2-PhenOH/NMe2-PhenOH.en.tmp) ****
             **** THE GBW FILE WAS UPDATED (NMe2-PhenOH/NMe2-PhenOH.gbw) ****
             **** DENSITY NMe2-PhenOH/NMe2-PhenOH.scfp WAS UPDATED ****
----------------
ORBITAL ENERGIES
----------------

  NO   OCC          E(Eh)            E(eV) 
   0   2.0000     -19.229450      -523.2599 
   1   2.0000     -14.395778      -391.7290 
   2   2.0000     -10.274221      -279.5758 
   3   2.0000     -10.257235      -279.1135 
   4   2.0000     -10.237569      -278.5784 
   5   2.0000     -10.237514      -278.5769 
   6   2.0000     -10.221233      -278.1339 
   7   2.0000     -10.219681      -278.0917 
   8   2.0000     -10.219450      -278.0854 
   9   2.0000     -10.219036      -278.0741 
  10   2.0000      -1.085081       -29.5266 
  11   2.0000      -0.974196       -26.5092 
  12   2.0000      -0.869744       -23.6669 
  13   2.0000      -0.774275       -21.0691 
  14   2.0000      -0.762806       -20.7570 
  15   2.0000      -0.735161       -20.0048 
  16   2.0000      -0.674363       -18.3503 
  17   2.0000      -0.634438       -17.2639 
  18   2.0000      -0.598068       -16.2742 
  19   2.0000      -0.561107       -15.2685 
  20   2.0000      -0.528747       -14.3879 
  21   2.0000      -0.500272       -13.6131 
  22   2.0000      -0.475767       -12.9463 
  23   2.0000      -0.460752       -12.5377 
  24   2.0000      -0.451401       -12.2832 
  25   2.0000      -0.433393       -11.7932 
  26   2.0000      -0.426217       -11.5980 
  27   2.0000      -0.417320       -11.3558 
  28   2.0000      -0.406891       -11.0721 
  29   2.0000      -0.396193       -10.7810 
  30   2.0000      -0.386538       -10.5182 
  31   2.0000      -0.381556       -10.3827 
  32   2.0000      -0.359598        -9.7851 
  33   2.0000      -0.340808        -9.2739 
  34   2.0000      -0.279684        -7.6106 
  35   2.0000      -0.268370        -7.3027 
  36   2.0000      -0.194650        -5.2967 
  37   0.0000      -0.008121        -0.2210 
  38   0.0000       0.023628         0.6430 
  39   0.0000       0.055241         1.5032 
  40   0.0000       0.064519         1.7557 
  41   0.0000       0.083108         2.2615 
  42   0.0000       0.085530         2.3274 
  43   0.0000       0.100426         2.7327 
  44   0.0000       0.109703         2.9852 
  45   0.0000       0.117057         3.1853 
  46   0.0000       0.133650         3.6368 
  47   0.0000       0.139543         3.7972 
  48   0.0000       0.147139         4.0039 
  49   0.0000       0.155565         4.2332 
  50   0.0000       0.157914         4.2971 
  51   0.0000       0.168475         4.5844 
  52   0.0000       0.174571         4.7503 
  53   0.0000       0.180638         4.9154 
  54   0.0000       0.204648         5.5688 
  55   0.0000       0.211067         5.7434 
  56   0.0000       0.215350         5.8600 
  57   0.0000       0.226547         6.1647 
  58   0.0000       0.235803         6.4165 
  59   0.0000       0.244884         6.6636 
  60   0.0000       0.252948         6.8831 
  61   0.0000       0.265457         7.2235 
  62   0.0000       0.274869         7.4796 
  63   0.0000       0.297145         8.0857 
  64   0.0000       0.298332         8.1180 
  65   0.0000       0.309038         8.4093 
  66   0.0000       0.320022         8.7082 
  67   0.0000       0.324475         8.8294 
  68   0.0000       0.335142         9.1197 
  69   0.0000       0.342401         9.3172 
  70   0.0000       0.353506         9.6194 
  71   0.0000       0.358980         9.7683 
  72   0.0000       0.365961         9.9583 
  73   0.0000       0.378557        10.3011 
  74   0.0000       0.383575        10.4376 
  75   0.0000       0.392782        10.6881 
  76   0.0000       0.404076        10.9955 
  77   0.0000       0.416656        11.3378 
  78   0.0000       0.422791        11.5047 
  79   0.0000       0.435774        11.8580 
  80   0.0000       0.440513        11.9870 
  81   0.0000       0.446932        12.1617 
  82   0.0000       0.453965        12.3530 
  83   0.0000       0.466526        12.6948 
  84   0.0000       0.475030        12.9262 
  85   0.0000       0.480060        13.0631 
  86   0.0000       0.481759        13.1093 
  87   0.0000       0.487443        13.2640 
  88   0.0000       0.495306        13.4780 
  89   0.0000       0.504962        13.7407 
  90   0.0000       0.512866        13.9558 
  91   0.0000       0.515203        14.0194 
  92   0.0000       0.522502        14.2180 
  93   0.0000       0.526523        14.3274 
  94   0.0000       0.552743        15.0409 
  95   0.0000       0.557815        15.1789 
  96   0.0000       0.578848        15.7513 
  97   0.0000       0.588371        16.0104 
  98   0.0000       0.602681        16.3998 
  99   0.0000       0.625859        17.0305 
 100   0.0000       0.635867        17.3028 
 101   0.0000       0.655839        17.8463 
 102   0.0000       0.663466        18.0538 
 103   0.0000       0.671176        18.2636 
 104   0.0000       0.686664        18.6851 
 105   0.0000       0.693776        18.8786 
 106   0.0000       0.709140        19.2967 
 107   0.0000       0.720551        19.6072 
 108   0.0000       0.728440        19.8219 
 109   0.0000       0.740055        20.1379 
 110   0.0000       0.757942        20.6247 
 111   0.0000       0.771036        20.9810 
 112   0.0000       0.776750        21.1364 
 113   0.0000       0.804186        21.8830 
 114   0.0000       0.826159        22.4809 
 115   0.0000       0.836045        22.7499 
 116   0.0000       0.847132        23.0516 
 117   0.0000       0.853675        23.2297 
 118   0.0000       0.863327        23.4923 
 119   0.0000       0.876130        23.8407 
 120   0.0000       0.894618        24.3438 
 121   0.0000       0.897816        24.4308 
 122   0.0000       0.899620        24.4799 
 123   0.0000       0.952494        25.9187 
 124   0.0000       0.961190        26.1553 
 125   0.0000       0.976946        26.5840 
 126   0.0000       0.990954        26.9652 
 127   0.0000       1.028563        27.9886 
 128   0.0000       1.048076        28.5196 
 129   0.0000       1.053652        28.6713 
 130   0.0000       1.075352        29.2618 
 131   0.0000       1.088383        29.6164 
 132   0.0000       1.091082        29.6898 
 133   0.0000       1.123247        30.5651 
 134   0.0000       1.150845        31.3161 
 135   0.0000       1.157264        31.4908 
 136   0.0000       1.163510        31.6607 
 137   0.0000       1.211602        32.9694 
 138   0.0000       1.218898        33.1679 
 139   0.0000       1.230159        33.4743 
 140   0.0000       1.245101        33.8809 
 141   0.0000       1.258526        34.2462 
 142   0.0000       1.280401        34.8415 
 143   0.0000       1.293572        35.1999 
 144   0.0000       1.305799        35.5326 
 145   0.0000       1.315750        35.8034 
 146   0.0000       1.327612        36.1261 
 147   0.0000       1.392652        37.8960 
 148   0.0000       1.415412        38.5153 
 149   0.0000       1.434045        39.0223 
 150   0.0000       1.440126        39.1878 
 151   0.0000       1.453823        39.5605 
 152   0.0000       1.458239        39.6807 
 153   0.0000       1.476298        40.1721 
 154   0.0000       1.494678        40.6723 
 155   0.0000       1.520229        41.3675 
 156   0.0000       1.530096        41.6360 
 157   0.0000       1.542209        41.9656 
 158   0.0000       1.553255        42.2662 
 159   0.0000       1.562487        42.5174 
 160   0.0000       1.572622        42.7932 
 161   0.0000       1.577386        42.9229 
 162   0.0000       1.591297        43.3014 
 163   0.0000       1.598223        43.4899 
 164   0.0000       1.613598        43.9082 
 165   0.0000       1.622038        44.1379 
 166   0.0000       1.651962        44.9522 
 167   0.0000       1.656908        45.0867 
 168   0.0000       1.665401        45.3179 
 169   0.0000       1.687957        45.9316 
 170   0.0000       1.691540        46.0291 
 171   0.0000       1.708594        46.4932 
 172   0.0000       1.738748        47.3137 
 173   0.0000       1.745777        47.5050 
 174   0.0000       1.758126        47.8410 
 175   0.0000       1.764936        48.0264 
 176   0.0000       1.775220        48.3062 
 177   0.0000       1.819647        49.5151 
 178   0.0000       1.830380        49.8072 
 179   0.0000       1.844551        50.1928 
 180   0.0000       1.869405        50.8691 
 181   0.0000       1.877050        51.0771 
 182   0.0000       1.893575        51.5268 
 183   0.0000       1.923163        52.3319 
 184   0.0000       1.942857        52.8678 
 185   0.0000       1.959911        53.3319 
 186   0.0000       1.964515        53.4572 
 187   0.0000       1.986104        54.0446 
 188   0.0000       2.008650        54.6581 
 189   0.0000       2.041203        55.5440 
 190   0.0000       2.044856        55.6433 
 191   0.0000       2.070722        56.3472 
 192   0.0000       2.084685        56.7272 
 193   0.0000       2.093944        56.9791 
 194   0.0000       2.108932        57.3870 
 195   0.0000       2.129270        57.9404 
 196   0.0000       2.163954        58.8842 
 197   0.0000       2.175464        59.1974 
 198   0.0000       2.179239        59.3001 
 199   0.0000       2.189602        59.5821 
 200   0.0000       2.217108        60.3306 
 201   0.0000       2.238897        60.9235 
 202   0.0000       2.245735        61.1096 
 203   0.0000       2.282835        62.1191 
 204   0.0000       2.318039        63.0771 
 205   0.0000       2.321966        63.1839 
 206   0.0000       2.351294        63.9820 
 207   0.0000       2.356542        64.1248 
 208   0.0000       2.379593        64.7520 
 209   0.0000       2.387216        64.9595 
 210   0.0000       2.408813        65.5471 
 211   0.0000       2.430510        66.1375 
 212   0.0000       2.452063        66.7240 
 213   0.0000       2.474616        67.3377 
 214   0.0000       2.499106        68.0041 
 215   0.0000       2.516712        68.4832 
 216   0.0000       2.532435        68.9111 
 217   0.0000       2.541820        69.1664 
 218   0.0000       2.551631        69.4334 
 219   0.0000       2.575925        70.0945 
 220   0.0000       2.591516        70.5187 
 221   0.0000       2.604440        70.8704 
 222   0.0000       2.609009        70.9947 
 223   0.0000       2.627773        71.5053 
 224   0.0000       2.633807        71.6695 
 225   0.0000       2.653009        72.1920 
 226   0.0000       2.666085        72.5479 
 227   0.0000       2.678080        72.8743 
 228   0.0000       2.694987        73.3343 
 229   0.0000       2.709795        73.7373 
 230   0.0000       2.718262        73.9677 
 231   0.0000       2.738583        74.5206 
 232   0.0000       2.752045        74.8869 
 233   0.0000       2.759137        75.0799 
 234   0.0000       2.779138        75.6242 
 235   0.0000       2.784434        75.7683 
 236   0.0000       2.806599        76.3714 
 237   0.0000       2.810449        76.4762 
 238   0.0000       2.838973        77.2524 
 239   0.0000       2.856484        77.7289 
 240   0.0000       2.879073        78.3436 
 241   0.0000       2.879501        78.3552 
 242   0.0000       2.894710        78.7691 
 243   0.0000       2.917707        79.3948 
 244   0.0000       2.928338        79.6841 
 245   0.0000       2.948944        80.2449 
 246   0.0000       2.952381        80.3384 
 247   0.0000       2.961553        80.5880 
 248   0.0000       2.979176        81.0675 
 249   0.0000       3.018259        82.1310 
 250   0.0000       3.052248        83.0559 
 251   0.0000       3.072034        83.5943 
 252   0.0000       3.095079        84.2214 
 253   0.0000       3.117152        84.8220 
 254   0.0000       3.119579        84.8881 
 255   0.0000       3.130664        85.1897 
 256   0.0000       3.141776        85.4921 
 257   0.0000       3.144089        85.5550 
 258   0.0000       3.154416        85.8360 
 259   0.0000       3.168383        86.2161 
 260   0.0000       3.180638        86.5496 
 261   0.0000       3.184489        86.6543 
 262   0.0000       3.213523        87.4444 
 263   0.0000       3.226449        87.7961 
 264   0.0000       3.229798        87.8873 
 265   0.0000       3.263070        88.7926 
 266   0.0000       3.278608        89.2155 
 267   0.0000       3.284037        89.3632 
 268   0.0000       3.290852        89.5486 
 269   0.0000       3.311178        90.1017 
 270   0.0000       3.317285        90.2679 
 271   0.0000       3.339303        90.8671 
 272   0.0000       3.346753        91.0698 
 273   0.0000       3.358518        91.3899 
 274   0.0000       3.366070        91.5954 
 275   0.0000       3.376155        91.8699 
 276   0.0000       3.390514        92.2606 
 277   0.0000       3.395727        92.4024 
 278   0.0000       3.410829        92.8134 
 279   0.0000       3.431497        93.3758 
 280   0.0000       3.433499        93.4303 
 281   0.0000       3.445687        93.7619 
 282   0.0000       3.468025        94.3698 
 283   0.0000       3.477553        94.6290 
 284   0.0000       3.504154        95.3529 
 285   0.0000       3.514416        95.6321 
 286   0.0000       3.525669        95.9383 
 287   0.0000       3.546131        96.4951 
 288   0.0000       3.555499        96.7500 
 289   0.0000       3.562735        96.9469 
 290   0.0000       3.587551        97.6222 
 291   0.0000       3.616636        98.4137 
 292   0.0000       3.634615        98.9029 
 293   0.0000       3.665549        99.7447 
 294   0.0000       3.720083       101.2286 
 295   0.0000       3.727047       101.4181 
 296   0.0000       3.744993       101.9064 
 297   0.0000       3.789932       103.1293 
 298   0.0000       3.812105       103.7327 
 299   0.0000       3.827387       104.1485 
 300   0.0000       3.860463       105.0485 
 301   0.0000       3.887782       105.7919 
 302   0.0000       3.919986       106.6682 
 303   0.0000       3.958781       107.7239 
 304   0.0000       3.989661       108.5642 
 305   0.0000       4.025569       109.5413 
 306   0.0000       4.040883       109.9580 
 307   0.0000       4.053972       110.3142 
 308   0.0000       4.076507       110.9274 
 309   0.0000       4.088336       111.2493 
 310   0.0000       4.152582       112.9975 
 311   0.0000       4.172564       113.5412 
 312   0.0000       4.190388       114.0262 
 313   0.0000       4.200309       114.2962 
 314   0.0000       4.217306       114.7587 
 315   0.0000       4.248450       115.6062 
 316   0.0000       4.262478       115.9879 
 317   0.0000       4.284612       116.5902 
 318   0.0000       4.289686       116.7283 
 319   0.0000       4.315632       117.4343 
 320   0.0000       4.341520       118.1388 
 321   0.0000       4.344451       118.2185 
 322   0.0000       4.366505       118.8186 
 323   0.0000       4.400379       119.7404 
 324   0.0000       4.429949       120.5450 
 325   0.0000       4.483510       122.0025 
 326   0.0000       4.514463       122.8448 
 327   0.0000       4.527486       123.1992 
 328   0.0000       4.614211       125.5591 
 329   0.0000       4.654366       126.6517 
 330   0.0000       4.662101       126.8622 
 331   0.0000       4.746372       129.1553 
 332   0.0000       4.833258       131.5196 
 333   0.0000       4.852485       132.0428 
 334   0.0000       4.903471       133.4302 
 335   0.0000       4.917236       133.8048 
 336   0.0000       4.948092       134.6444 
 337   0.0000       5.024729       136.7298 
 338   0.0000       5.070433       137.9735 
 339   0.0000       5.098203       138.7292 
 340   0.0000       5.164945       140.5453 
 341   0.0000       5.172432       140.7490 
 342   0.0000       5.243043       142.6705 
 343   0.0000       5.279008       143.6491 
 344   0.0000       5.290227       143.9544 
 345   0.0000       5.341302       145.3442 
 346   0.0000       5.354215       145.6956 
 347   0.0000       5.381654       146.4422 
 348   0.0000       5.413077       147.2973 
 349   0.0000       5.468630       148.8090 
 350   0.0000       5.501121       149.6931 
 351   0.0000       5.523302       150.2967 
 352   0.0000       5.607983       152.6010 
 353   0.0000       5.799122       157.8021 
 354   0.0000       5.814082       158.2092 
 355   0.0000       5.915701       160.9744 
 356   0.0000       5.937206       161.5596 
 357   0.0000       6.002082       163.3249 
 358   0.0000       6.063230       164.9889 
 359   0.0000       6.363554       173.1611 
 360   0.0000       6.444156       175.3544 
 361   0.0000       6.445314       175.3859 
 362   0.0000       6.735832       183.2913 
 363   0.0000       6.831626       185.8980 
 364   0.0000       7.013614       190.8501 
 365   0.0000       7.309678       198.9065 
 366   0.0000      22.270578       606.0132 
 367   0.0000      22.509879       612.5249 
 368   0.0000      22.583120       614.5179 
 369   0.0000      22.790888       620.1716 
 370   0.0000      22.819736       620.9566 
 371   0.0000      22.840593       621.5241 
 372   0.0000      23.056587       627.4016 
 373   0.0000      23.438321       637.7891 
 374   0.0000      32.903686       895.3548 
 375   0.0000      44.033092      1198.2014 

                    ********************************
                    * MULLIKEN POPULATION ANALYSIS *
                    ********************************

-----------------------
MULLIKEN ATOMIC CHARGES
-----------------------
   0 C :    0.246373
   1 C :   -0.311267
   2 C :   -0.296358
   3 H :    0.147191
   4 H :    0.144524
   5 C :   -0.241358
   6 C :   -0.248718
   7 H :    0.151997
   8 H :    0.137709
   9 C :    0.234642
  10 O :   -0.450066
  11 H :    0.363187
  12 N :   -0.070824
  13 C :   -0.332603
  14 H :    0.151748
  15 H :    0.128529
  16 H :    0.148844
  17 C :   -0.332802
  18 H :    0.151754
  19 H :    0.149049
  20 H :    0.128448
Sum of atomic charges:   -0.0000000

--------------------------------
MULLIKEN REDUCED ORBITAL CHARGES
--------------------------------
  0 C s       :     2.997909  s :     2.997909
      pz      :     0.784170  p :     2.584076
      px      :     0.946469
      py      :     0.853437
      dz2     :     0.035627  d :     0.158575
      dxz     :     0.049804
      dyz     :     0.038122
      dx2y2   :     0.012895
      dxy     :     0.022128
      f0      :     0.002147  f :     0.013066
      f+1     :     0.002710
      f-1     :     0.003898
      f+2     :     0.000813
      f-2     :     0.001089
      f+3     :     0.001613
      f-3     :     0.000795
  1 C s       :     3.274639  s :     3.274639
      pz      :     0.945613  p :     2.939597
      px      :     1.034991
      py      :     0.958993
      dz2     :     0.019399  d :     0.089603
      dxz     :     0.020776
      dyz     :     0.030943
      dx2y2   :     0.008964
      dxy     :     0.009520
      f0      :     0.000907  f :     0.007428
      f+1     :     0.001515
      f-1     :     0.002102
      f+2     :     0.000820
      f-2     :     0.000438
      f+3     :     0.000967
      f-3     :     0.000678
  2 C s       :     3.275813  s :     3.275813
      pz      :     0.923762  p :     2.923162
      px      :     1.032981
      py      :     0.966419
      dz2     :     0.021308  d :     0.090015
      dxz     :     0.021376
      dyz     :     0.030081
      dx2y2   :     0.008791
      dxy     :     0.008458
      f0      :     0.000950  f :     0.007367
      f+1     :     0.001501
      f-1     :     0.002077
      f+2     :     0.000768
      f-2     :     0.000532
      f+3     :     0.000858
      f-3     :     0.000682
  3 H s       :     0.829494  s :     0.829494
      pz      :     0.006628  p :     0.023315
      px      :     0.005358
      py      :     0.011329
  4 H s       :     0.832181  s :     0.832181
      pz      :     0.006030  p :     0.023294
      px      :     0.005332
      py      :     0.011931
  5 C s       :     3.226447  s :     3.226447
      pz      :     0.938119  p :     2.920751
      px      :     1.026840
      py      :     0.955792
      dz2     :     0.015623  d :     0.086883
      dxz     :     0.021975
      dyz     :     0.030532
      dx2y2   :     0.009497
      dxy     :     0.009257
      f0      :     0.000864  f :     0.007278
      f+1     :     0.001537
      f-1     :     0.001975
      f+2     :     0.000753
      f-2     :     0.000488
      f+3     :     0.000969
      f-3     :     0.000691
  6 C s       :     3.255172  s :     3.255172
      pz      :     0.937690  p :     2.899443
      px      :     1.017208
      py      :     0.944545
      dz2     :     0.014452  d :     0.086564
      dxz     :     0.021094
      dyz     :     0.031593
      dx2y2   :     0.008126
      dxy     :     0.011299
      f0      :     0.000831  f :     0.007539
      f+1     :     0.001549
      f-1     :     0.002148
      f+2     :     0.000799
      f-2     :     0.000443
      f+3     :     0.001089
      f-3     :     0.000681
  7 H s       :     0.825944  s :     0.825944
      pz      :     0.005515  p :     0.022059
      px      :     0.005013
      py      :     0.011532
  8 H s       :     0.840195  s :     0.840195
      pz      :     0.006309  p :     0.022096
      px      :     0.004959
      py      :     0.010829
  9 C s       :     2.995592  s :     2.995592
      pz      :     0.718394  p :     2.579697
      px      :     0.963451
      py      :     0.897851
      dz2     :     0.033388  d :     0.174630
      dxz     :     0.044929
      dyz     :     0.056817
      dx2y2   :     0.015234
      dxy     :     0.024261
      f0      :     0.002533  f :     0.015440
      f+1     :     0.003256
      f-1     :     0.005284
      f+2     :     0.000723
      f-2     :     0.001110
      f+3     :     0.001711
      f-3     :     0.000822
 10 O s       :     3.752133  s :     3.752133
      pz      :     1.348260  p :     4.664189
      px      :     1.838326
      py      :     1.477603
      dz2     :     0.011435  d :     0.032022
      dxz     :     0.005754
      dyz     :     0.007079
      dx2y2   :     0.006421
      dxy     :     0.001333
      f0      :     0.000526  f :     0.001722
      f+1     :     0.000298
      f-1     :     0.000241
      f+2     :     0.000228
      f-2     :     0.000021
      f+3     :     0.000057
      f-3     :     0.000351
 11 H s       :     0.591275  s :     0.591275
      pz      :     0.010961  p :     0.045537
      px      :     0.015261
      py      :     0.019315
 12 N s       :     3.378749  s :     3.378749
      pz      :     1.018790  p :     3.598434
      px      :     1.560904
      py      :     1.018741
      dz2     :     0.022212  d :     0.088887
      dxz     :     0.014161
      dyz     :     0.026085
      dx2y2   :     0.011184
      dxy     :     0.015246
      f0      :     0.000695  f :     0.004753
      f+1     :     0.000687
      f-1     :     0.001205
      f+2     :     0.000517
      f-2     :     0.000405
      f+3     :     0.000538
      f-3     :     0.000707
 13 C s       :     3.249452  s :     3.249452
      pz      :     1.033140  p :     2.989022
      px      :     1.063002
      py      :     0.892880
      dz2     :     0.020038  d :     0.088060
      dxz     :     0.006349
      dyz     :     0.013068
      dx2y2   :     0.016076
      dxy     :     0.032528
      f0      :     0.000835  f :     0.006069
      f+1     :     0.000067
      f-1     :     0.001225
      f+2     :     0.000850
      f-2     :     0.000987
      f+3     :     0.001130
      f-3     :     0.000974
 14 H s       :     0.826723  s :     0.826723
      pz      :     0.013006  p :     0.021529
      px      :     0.004490
      py      :     0.004034
 15 H s       :     0.851130  s :     0.851130
      pz      :     0.004200  p :     0.020341
      px      :     0.011338
      py      :     0.004802
 16 H s       :     0.829997  s :     0.829997
      pz      :     0.004659  p :     0.021159
      px      :     0.007595
      py      :     0.008904
 17 C s       :     3.249763  s :     3.249763
      pz      :     1.049710  p :     2.988836
      px      :     1.064983
      py      :     0.874144
      dz2     :     0.019355  d :     0.088130
      dxz     :     0.005472
      dyz     :     0.013302
      dx2y2   :     0.016167
      dxy     :     0.033834
      f0      :     0.000938  f :     0.006072
      f+1     :     0.000045
      f-1     :     0.001040
      f+2     :     0.000823
      f-2     :     0.000887
      f+3     :     0.001273
      f-3     :     0.001066
 18 H s       :     0.826733  s :     0.826733
      pz      :     0.013134  p :     0.021513
      px      :     0.004506
      py      :     0.003873
 19 H s       :     0.829765  s :     0.829765
      pz      :     0.004932  p :     0.021186
      px      :     0.007647
      py      :     0.008607
 20 H s       :     0.851211  s :     0.851211
      pz      :     0.004300  p :     0.020341
      px      :     0.011339
      py      :     0.004702


                     *******************************
                     * LOEWDIN POPULATION ANALYSIS *
                     *******************************

----------------------
LOEWDIN ATOMIC CHARGES
----------------------
   0 C :   -0.218679
   1 C :   -0.142372
   2 C :   -0.140853
   3 H :    0.155847
   4 H :    0.155780
   5 C :   -0.152345
   6 C :   -0.143237
   7 H :    0.156430
   8 H :    0.154896
   9 C :   -0.313447
  10 O :    0.055403
  11 H :    0.203034
  12 N :    0.126058
  13 C :   -0.310132
  14 H :    0.126462
  15 H :    0.113514
  16 H :    0.121920
  17 C :   -0.310161
  18 H :    0.126393
  19 H :    0.122060
  20 H :    0.113429

-------------------------------
LOEWDIN REDUCED ORBITAL CHARGES
-------------------------------
  0 C s       :     2.696083  s :     2.696083
      pz      :     0.897882  p :     2.816643
      px      :     0.865045
      py      :     1.053716
      dz2     :     0.167291  d :     0.629507
      dxz     :     0.143464
      dyz     :     0.175355
      dx2y2   :     0.068587
      dxy     :     0.074811
      f0      :     0.012263  f :     0.076446
      f+1     :     0.014170
      f-1     :     0.025661
      f+2     :     0.006149
      f-2     :     0.007553
      f+3     :     0.005418
      f-3     :     0.005232
  1 C s       :     2.754530  s :     2.754530
      pz      :     1.036602  p :     2.962358
      px      :     0.932490
      py      :     0.993266
      dz2     :     0.093683  d :     0.382926
      dxz     :     0.067828
      dyz     :     0.146905
      dx2y2   :     0.044358
      dxy     :     0.030153
      f0      :     0.007284  f :     0.042559
      f+1     :     0.006575
      f-1     :     0.014151
      f+2     :     0.004596
      f-2     :     0.002849
      f+3     :     0.003251
      f-3     :     0.003852
  2 C s       :     2.754630  s :     2.754630
      pz      :     1.039970  p :     2.961109
      px      :     0.930643
      py      :     0.990496
      dz2     :     0.098783  d :     0.382631
      dxz     :     0.071197
      dyz     :     0.141676
      dx2y2   :     0.044787
      dxy     :     0.026187
      f0      :     0.007467  f :     0.042483
      f+1     :     0.006271
      f-1     :     0.014207
      f+2     :     0.004567
      f-2     :     0.003574
      f+3     :     0.002749
      f-3     :     0.003648
  3 H s       :     0.781012  s :     0.781012
      pz      :     0.017743  p :     0.063141
      px      :     0.015436
      py      :     0.029961
  4 H s       :     0.781163  s :     0.781163
      pz      :     0.016344  p :     0.063057
      px      :     0.015348
      py      :     0.031364
  5 C s       :     2.760188  s :     2.760188
      pz      :     1.043335  p :     2.962005
      px      :     0.925509
      py      :     0.993162
      dz2     :     0.094872  d :     0.386710
      dxz     :     0.074289
      dyz     :     0.145107
      dx2y2   :     0.044548
      dxy     :     0.027895
      f0      :     0.007473  f :     0.043442
      f+1     :     0.006407
      f-1     :     0.014163
      f+2     :     0.004810
      f-2     :     0.003688
      f+3     :     0.003201
      f-3     :     0.003698
  6 C s       :     2.759233  s :     2.759233
      pz      :     1.041548  p :     2.957732
      px      :     0.918295
      py      :     0.997889
      dz2     :     0.088639  d :     0.382887
      dxz     :     0.068730
      dyz     :     0.149053
      dx2y2   :     0.044071
      dxy     :     0.032394
      f0      :     0.007338  f :     0.043385
      f+1     :     0.006676
      f-1     :     0.014062
      f+2     :     0.004836
      f-2     :     0.002851
      f+3     :     0.003720
      f-3     :     0.003903
  7 H s       :     0.783092  s :     0.783092
      pz      :     0.015541  p :     0.060478
      px      :     0.014441
      py      :     0.030496
  8 H s       :     0.784585  s :     0.784585
      pz      :     0.017373  p :     0.060519
      px      :     0.014280
      py      :     0.028867
  9 C s       :     2.712552  s :     2.712552
      pz      :     0.836295  p :     2.808995
      px      :     0.886237
      py      :     1.086462
      dz2     :     0.204585  d :     0.694117
      dxz     :     0.143060
      dyz     :     0.196376
      dx2y2   :     0.069213
      dxy     :     0.080883
      f0      :     0.019286  f :     0.097783
      f+1     :     0.019391
      f-1     :     0.033997
      f+2     :     0.006360
      f-2     :     0.007825
      f+3     :     0.005233
      f-3     :     0.005691
 10 O s       :     3.323481  s :     3.323481
      pz      :     1.381785  p :     4.545034
      px      :     1.723826
      py      :     1.439423
      dz2     :     0.024024  d :     0.071301
      dxz     :     0.015614
      dyz     :     0.021779
      dx2y2   :     0.009379
      dxy     :     0.000505
      f0      :     0.001376  f :     0.004781
      f+1     :     0.001065
      f-1     :     0.001355
      f+2     :     0.000399
      f-2     :     0.000011
      f+3     :     0.000002
      f-3     :     0.000573
 11 H s       :     0.642557  s :     0.642557
      pz      :     0.030014  p :     0.154409
      px      :     0.042607
      py      :     0.081787
 12 N s       :     2.885489  s :     2.885489
      pz      :     1.128574  p :     3.660577
      px      :     1.407503
      py      :     1.124499
      dz2     :     0.082096  d :     0.306841
      dxz     :     0.042046
      dyz     :     0.095987
      dx2y2   :     0.041414
      dxy     :     0.045298
      f0      :     0.002439  f :     0.021034
      f+1     :     0.002594
      f-1     :     0.006862
      f+2     :     0.002039
      f-2     :     0.002572
      f+3     :     0.002139
      f-3     :     0.002389
 13 C s       :     2.833148  s :     2.833148
      pz      :     1.039282  p :     3.088219
      px      :     1.083471
      py      :     0.965466
      dz2     :     0.090854  d :     0.347989
      dxz     :     0.018817
      dyz     :     0.055006
      dx2y2   :     0.064140
      dxy     :     0.119171
      f0      :     0.003643  f :     0.040776
      f+1     :     0.001958
      f-1     :     0.007559
      f+2     :     0.007516
      f-2     :     0.008229
      f+3     :     0.006319
      f-3     :     0.005552
 14 H s       :     0.811202  s :     0.811202
      pz      :     0.036773  p :     0.062336
      px      :     0.013745
      py      :     0.011818
 15 H s       :     0.824474  s :     0.824474
      pz      :     0.013206  p :     0.062012
      px      :     0.034812
      py      :     0.013994
 16 H s       :     0.815631  s :     0.815631
      pz      :     0.014059  p :     0.062449
      px      :     0.023482
[...]
     14      -0.000941   0.014372   0.012351  -0.009840  -0.007925  -0.093311
     15      -0.000091  -0.000020   0.000035   0.000028   0.000027  -0.000032
     16      -0.000094   0.000035   0.000568   0.000741   0.076454  -0.000821
     17      -0.000109   0.000094   0.000289   0.000334   0.038901  -0.001255
     18       0.000000  -0.000090  -0.000040   0.000034  -0.000025   0.000691
     19      -0.000025   0.000033   0.000365  -0.000420  -0.000785  -0.072573
     20       0.000100  -0.000079  -0.000223   0.000206  -0.000481   0.043501
     21       0.000109   0.000007   0.000005  -0.000038  -0.000123   0.000022
     22       0.003407  -0.000574  -0.007684  -0.008724  -0.875786   0.011333
     23       0.001762  -0.000133  -0.003877  -0.004298  -0.450514   0.006625
     24      -0.000019   0.000139   0.000048  -0.000086  -0.000028  -0.007903
     25       0.000925  -0.002615  -0.005358   0.005012   0.006044   0.829719
     26      -0.000426   0.001652   0.003210  -0.002884  -0.002516  -0.507140
     27      -0.000038  -0.000043   0.000001   0.000019   0.000108   0.000069
     28      -0.000152   0.000130   0.000063  -0.000014  -0.002471   0.002773
     29      -0.000066  -0.000080   0.000013   0.000030   0.003493   0.002836
     30       0.000029   0.000024  -0.000002  -0.000008  -0.000002  -0.000003
     31       0.000013  -0.000043  -0.000011  -0.000003   0.000342  -0.000290
     32       0.000049   0.000068  -0.000000   0.000016  -0.000345  -0.000252
     33      -0.000051   0.000095   0.000041  -0.000018  -0.000268  -0.000001
     34       0.000177   0.000285   0.000014   0.000063  -0.002775   0.000577
     35       0.000184  -0.000007  -0.000152  -0.000105  -0.007608  -0.001751
     36       0.000392   0.000440  -0.000011  -0.000481  -0.000035  -0.000039
     37      -0.000096   0.000091   0.001264   0.000048   0.000030   0.000032
     38       0.000408   0.000489  -0.000048   0.000958   0.000300   0.000297
     39      -0.067839  -0.005748   0.005705   0.005122  -0.000733  -0.000127
     40      -0.042573  -0.006064   0.027171   0.026042  -0.000902   0.000150
     41       0.016427   0.000296   0.058319   0.058575  -0.001235  -0.000009
     42       0.004643  -0.000111   0.039891   0.040633  -0.000932  -0.000014
     43      -0.071497  -0.004413  -0.124836  -0.125382   0.002889   0.000005
     44      -0.332013  -0.020853  -0.629411  -0.646007   0.012840   0.000199
     45       0.235739   0.003833   0.069523   0.066597   0.000535   0.001894
     46      -0.089461  -0.002060  -0.013735  -0.013778  -0.000904  -0.000831
     47      -0.063142  -0.001792  -0.004760  -0.003647  -0.000475  -0.000362
     48       0.564452   0.060563  -0.175360  -0.162749   0.009167  -0.000274
     49       0.662596   0.070868  -0.195335  -0.180483   0.010244  -0.000473
     50       0.204568   0.020595  -0.049605  -0.049086   0.003678   0.000090
     51       0.007211  -0.067684  -0.006354   0.005438  -0.000136  -0.000781
     52      -0.002244   0.042925   0.024087  -0.022367  -0.000151   0.000820
     53      -0.002615   0.014216  -0.060460   0.059465  -0.000103  -0.001024
     54      -0.001465   0.009100  -0.046263   0.046146  -0.000097  -0.000856
     55      -0.006545   0.051312  -0.083074   0.080553  -0.000127  -0.001767
     56       0.043556  -0.352892   0.637450  -0.641085   0.001661   0.009888
     57      -0.047646   0.563717   0.186670  -0.169280  -0.000233   0.009689
     58       0.054260  -0.639699  -0.201977   0.182252   0.000437  -0.010473
     59      -0.022785   0.253522   0.068918  -0.065648   0.000042   0.005006
     60      -0.040576   0.229706  -0.066667   0.063391   0.002027   0.000537
     61      -0.014397   0.084402  -0.012779   0.012885   0.000876   0.000918
     62       0.010583  -0.064541   0.003843  -0.003078  -0.000450  -0.000488
                 60         61         62    
      0      -0.000002  -0.000104  -0.000038
      1       0.003468   0.000318  -0.000021
      2       0.000294  -0.003071   0.000243
      3       0.001973  -0.001511   0.000000
      4      -0.058660   0.045186  -0.000002
      5       0.034114  -0.025546   0.000022
      6      -0.001112  -0.001437  -0.000005
      7      -0.046195  -0.059933   0.000166
      8      -0.023369  -0.029436  -0.000062
      9      -0.022428   0.017268  -0.000020
     10       0.674997  -0.516448   0.000657
     11      -0.394376   0.300638  -0.000855
     12       0.012501   0.016268  -0.000001
     13       0.532712   0.687267  -0.000694
     14       0.266773   0.342771  -0.000232
     15      -0.000093   0.000065  -0.000033
     16      -0.008381   0.008170  -0.000723
     17      -0.006513   0.005708  -0.000756
     18       0.000152   0.000221  -0.000020
     19      -0.008341  -0.013777  -0.000561
     20       0.006858   0.010520  -0.000449
     21       0.000057  -0.000028  -0.000115
     22       0.092248  -0.088688   0.003481
     23       0.049688  -0.047116   0.003321
     24      -0.000931  -0.001480  -0.000038
     25       0.094276   0.153709  -0.000413
     26      -0.059366  -0.095923  -0.000021
     27      -0.000013   0.000058   0.000000
     28       0.001674   0.000407   0.002128
     29      -0.000149   0.001636   0.000362
     30       0.000007  -0.000020   0.000511
     31      -0.000223   0.000044   0.058015
     32       0.000052  -0.000336   0.022484
     33      -0.000036  -0.000054  -0.007421
     34       0.000752  -0.001536  -0.935415
     35       0.000107  -0.001510  -0.347908
     36      -0.000005   0.000053   0.000071
     37      -0.000827  -0.000108  -0.000010
     38       0.000062  -0.000113  -0.000306
     39      -0.001547   0.001164   0.000031
     40      -0.002028   0.001590  -0.000110
     41      -0.001268   0.000840   0.000034
     42      -0.001337   0.000974  -0.000009
     43       0.003850  -0.002611  -0.000031
     44       0.013469  -0.006346  -0.000249
     45      -0.002473   0.001714  -0.000628
     46      -0.000630   0.000557   0.000410
     47       0.000121  -0.000207   0.000109
     48       0.022053  -0.016637   0.000149
     49       0.025399  -0.019108   0.000295
     50       0.011337  -0.008836   0.000098
     51       0.001158   0.001480   0.000020
     52      -0.001434  -0.001893   0.000110
     53       0.001052   0.001211   0.000030
     54       0.001063   0.001273  -0.000017
     55       0.002226   0.002801  -0.000009
     56      -0.010993  -0.009282  -0.000259
     57      -0.016554  -0.020985   0.000173
     58       0.018282   0.023064  -0.000314
     59      -0.009745  -0.012728   0.000129
     60       0.001892   0.002053  -0.000639
     61      -0.000422  -0.000727  -0.000409
     62       0.000009  -0.000105   0.000130


-----------
IR SPECTRUM
-----------

 Mode   freq       eps      Int      T**2         TX        TY        TZ
       cm**-1   L/(mol*cm) km/mol    a.u.
----------------------------------------------------------------------------
  6:     69.20   0.000144    0.73  0.000647  (-0.025414  0.001099  0.000497)
  7:     98.31   0.001511    7.64  0.004797  (-0.048313  0.001854  0.049595)
  8:    164.93   0.003111   15.72  0.005886  ( 0.019823 -0.002550 -0.074069)
  9:    181.62   0.000099    0.50  0.000169  (-0.002076 -0.000075 -0.012845)
 10:    228.71   0.001756    8.87  0.002395  (-0.024817  0.001989  0.042137)
 11:    265.32   0.000733    3.71  0.000863  ( 0.005198  0.021749 -0.019044)
 12:    306.99   0.034521  174.46  0.035091  (-0.187307  0.000113  0.002743)
 13:    374.20   0.000300    1.52  0.000251  (-0.001781 -0.000628  0.015716)
 14:    393.68   0.002064   10.43  0.001636  ( 0.000606 -0.011895  0.038659)
 15:    399.13   0.001817    9.18  0.001421  ( 0.026109 -0.001627 -0.027142)
 16:    429.80   0.000296    1.50  0.000215  (-0.012461  0.005373  0.005541)
 17:    493.30   0.001862    9.41  0.001178  (-0.000056 -0.027690 -0.020278)
 18:    511.12   0.003690   18.65  0.002253  (-0.044323  0.000316 -0.016975)
 19:    536.37   0.004972   25.13  0.002893  ( 0.052103  0.001560  0.013257)
 20:    656.36   0.000213    1.07  0.000101  (-0.000383  0.003186  0.009529)
 21:    713.56   0.011902   60.15  0.005205  (-0.012938  0.000543  0.070976)
 22:    734.16   0.000159    0.81  0.000068  (-0.004879 -0.000503 -0.006608)
 23:    806.71   0.000546    2.76  0.000211  ( 0.014368  0.001311 -0.001775)
 24:    838.60   0.024700  124.83  0.009192  ( 0.095145 -0.000400 -0.011785)
 25:    851.37   0.010102   51.05  0.003703  ( 0.005997  0.002635  0.060498)
 26:    930.19   0.000141    0.71  0.000047  ( 0.005013  0.001206  0.004541)
 27:    947.95   0.000035    0.18  0.000012  ( 0.001968 -0.001808  0.002122)
 28:    976.75   0.008292   41.90  0.002649  (-0.024349 -0.000760 -0.045340)
 29:   1023.92   0.000107    0.54  0.000032  (-0.000603  0.001804  0.005370)
 30:   1079.22   0.006672   33.72  0.001929  (-0.000174  0.043897  0.001454)
 31:   1123.14   0.000372    1.88  0.000103  (-0.000019 -0.009343 -0.004000)
 32:   1137.19   0.003564   18.01  0.000978  ( 0.000182  0.024414  0.019543)
 33:   1147.51   0.015800   79.85  0.004297  (-0.004747  0.001913  0.065350)
 34:   1188.33   0.001353    6.84  0.000355  (-0.001075 -0.009807 -0.016060)
 35:   1192.24   0.052199  263.79  0.013663  ( 0.003235 -0.023467  0.114462)
 36:   1201.69   0.007957   40.21  0.002066  (-0.003793  0.012905 -0.043421)
 37:   1275.09   0.018997   96.00  0.004649  ( 0.000963  0.064953  0.020721)
 38:   1292.86   0.039169  197.94  0.009454  (-0.007070 -0.006585 -0.096753)
 39:   1358.77   0.000470    2.38  0.000108  ( 0.000835 -0.004395 -0.009379)
 40:   1378.10   0.005519   27.89  0.001250  ( 0.004826 -0.020680  0.028264)
 41:   1381.74   0.029143  147.28  0.006582  ( 0.005349  0.025670  0.076775)
 42:   1434.95   0.000702    3.55  0.000153  (-0.000524 -0.007882 -0.009502)
 43:   1466.52   0.002384   12.05  0.000507  (-0.001954  0.009489  0.020332)
 44:   1469.09   0.010979   55.48  0.002332  (-0.005821 -0.009218  0.047046)
 45:   1471.75   0.004606   23.28  0.000977  (-0.027754 -0.005547  0.013251)
 46:   1475.36   0.003817   19.29  0.000807  (-0.008190  0.025350 -0.009884)
 47:   1496.59   0.002425   12.26  0.000506  (-0.002574  0.010127 -0.019914)
 48:   1506.74   0.019315   97.61  0.004000  ( 0.000217  0.001262  0.063236)
 49:   1557.97   0.120347  608.18  0.024106  (-0.011711 -0.007631 -0.154629)
 50:   1646.25   0.000210    1.06  0.000040  (-0.000157  0.004334  0.004586)
 51:   1685.80   0.000968    4.89  0.000179  ( 0.001470  0.000417  0.013302)
 52:   2978.44   0.022978  116.12  0.002407  ( 0.000226  0.049055 -0.000999)
 53:   2985.31   0.033029  166.92  0.003453  (-0.049931 -0.001261 -0.030951)
 54:   3085.69   0.008529   43.10  0.000863  (-0.021125 -0.017916  0.009761)
 55:   3088.19   0.009963   50.35  0.001007  (-0.025515  0.015101  0.011301)
 56:   3142.71   0.001528    7.72  0.000152  (-0.000224  0.012258 -0.001176)
 57:   3151.99   0.007873   39.79  0.000779  ( 0.000946  0.000807  0.027892)
 58:   3180.11   0.003187   16.10  0.000313  ( 0.000591  0.007079  0.016194)
 59:   3195.90   0.002419   12.22  0.000236  ( 0.000553 -0.006044  0.014118)
 60:   3230.58   0.001544    7.80  0.000149  (-0.000005 -0.012028  0.002103)
 61:   3230.92   0.000790    3.99  0.000076  ( 0.000276 -0.002504 -0.008366)
 62:   3829.69   0.034961  176.68  0.002849  (-0.001583 -0.035834 -0.039525)

* The epsilon (eps) is given for a Dirac delta lineshape.
** The dipole moment derivative (T) already includes vibrational overlap.

The first frequency considered to be a vibration is 6
The total number of vibrations considered is 57


--------------------------
THERMOCHEMISTRY AT 298.15K
--------------------------

Temperature         ... 298.15 K
Pressure            ... 1.00 atm
Total Mass          ... 137.18 AMU

Throughout the following assumptions are being made:
  (1) The electronic state is orbitally nondegenerate
  (2) There are no thermally accessible electronically excited states
  (3) Hindered rotations indicated by low frequency modes are not
      treated as such but are treated as vibrations and this may
      cause some error
  (4) All equations used are the standard statistical mechanics
      equations for an ideal gas
  (5) All vibrations are strictly harmonic

freq.      69.20  E(vib)   ...       0.50 
freq.      98.31  E(vib)   ...       0.46 
freq.     164.93  E(vib)   ...       0.39 
freq.     181.62  E(vib)   ...       0.37 
freq.     228.71  E(vib)   ...       0.32 
freq.     265.32  E(vib)   ...       0.29 
freq.     306.99  E(vib)   ...       0.26 
freq.     374.20  E(vib)   ...       0.21 
freq.     393.68  E(vib)   ...       0.20 
freq.     399.13  E(vib)   ...       0.19 
freq.     429.80  E(vib)   ...       0.18 
freq.     493.30  E(vib)   ...       0.14 
freq.     511.12  E(vib)   ...       0.14 
freq.     536.37  E(vib)   ...       0.12 
freq.     656.36  E(vib)   ...       0.08 
freq.     713.56  E(vib)   ...       0.07 
freq.     734.16  E(vib)   ...       0.06 
freq.     806.71  E(vib)   ...       0.05 
freq.     838.60  E(vib)   ...       0.04 
freq.     851.37  E(vib)   ...       0.04 
freq.     930.19  E(vib)   ...       0.03 
freq.     947.95  E(vib)   ...       0.03 
freq.     976.75  E(vib)   ...       0.03 
freq.    1023.92  E(vib)   ...       0.02 
freq.    1079.22  E(vib)   ...       0.02 
freq.    1123.14  E(vib)   ...       0.01 
freq.    1137.19  E(vib)   ...       0.01 
freq.    1147.51  E(vib)   ...       0.01 
freq.    1188.33  E(vib)   ...       0.01 
freq.    1192.24  E(vib)   ...       0.01 
freq.    1201.69  E(vib)   ...       0.01 
freq.    1275.09  E(vib)   ...       0.01 
freq.    1292.86  E(vib)   ...       0.01 
freq.    1358.77  E(vib)   ...       0.01 
freq.    1378.10  E(vib)   ...       0.01 
freq.    1381.74  E(vib)   ...       0.01 
freq.    1434.95  E(vib)   ...       0.00 
freq.    1466.52  E(vib)   ...       0.00 
freq.    1469.09  E(vib)   ...       0.00 
freq.    1471.75  E(vib)   ...       0.00 
freq.    1475.36  E(vib)   ...       0.00 
freq.    1496.59  E(vib)   ...       0.00 
freq.    1506.74  E(vib)   ...       0.00 
freq.    1557.97  E(vib)   ...       0.00 
freq.    1646.25  E(vib)   ...       0.00 
freq.    1685.80  E(vib)   ...       0.00 
freq.    2978.44  E(vib)   ...       0.00 
freq.    2985.31  E(vib)   ...       0.00 
freq.    3085.69  E(vib)   ...       0.00 
freq.    3088.19  E(vib)   ...       0.00 
freq.    3142.71  E(vib)   ...       0.00 
freq.    3151.99  E(vib)   ...       0.00 
freq.    3180.11  E(vib)   ...       0.00 
freq.    3195.90  E(vib)   ...       0.00 
freq.    3230.58  E(vib)   ...       0.00 
freq.    3230.92  E(vib)   ...       0.00 
freq.    3829.69  E(vib)   ...       0.00 

------------
INNER ENERGY
------------

The inner energy is: U= E(el) + E(ZPE) + E(vib) + E(rot) + E(trans)
    E(el)   - is the total energy from the electronic structure calculation
              = E(kin-el) + E(nuc-el) + E(el-el) + E(nuc-nuc)
    E(ZPE)  - the the zero temperature vibrational energy from the frequency calculation
    E(vib)  - the the finite temperature correction to E(ZPE) due to population
              of excited vibrational states
    E(rot)  - is the rotational thermal energy
    E(trans)- is the translational thermal energy

Summary of contributions to the inner energy U:
Electronic energy                ...   -441.11250702 Eh
Zero point energy                ...      0.17769413 Eh     111.50 kcal/mol
Thermal vibrational correction   ...      0.00697591 Eh       4.38 kcal/mol
Thermal rotational correction    ...      0.00141627 Eh       0.89 kcal/mol
Thermal translational correction ...      0.00141627 Eh       0.89 kcal/mol
-----------------------------------------------------------------------
Total thermal energy                   -440.92500443 Eh


Summary of corrections to the electronic energy:
(perhaps to be used in another calculation)
Total thermal correction                  0.00980845 Eh       6.15 kcal/mol
Non-thermal (ZPE) correction              0.17769413 Eh     111.50 kcal/mol
-----------------------------------------------------------------------
Total correction                          0.18750258 Eh     117.66 kcal/mol


--------
ENTHALPY
--------

The enthalpy is H = U + kB*T
                kB is Boltzmann's constant
Total free energy                 ...   -440.92500443 Eh 
Thermal Enthalpy correction       ...      0.00094421 Eh       0.59 kcal/mol
-----------------------------------------------------------------------
Total Enthalpy                    ...   -440.92406022 Eh


Note: Only C1 symmetry has been detected, increase convergence thresholds 
      if your molecule has a higher symmetry. Symmetry factor of 1.0 is   
      used for the rotational entropy correction. 
 

Note: Rotational entropy computed according to Herzberg 
Infrared and Raman Spectra, Chapter V,1, Van Nostrand Reinhold, 1945 
Point Group:  C1, Symmetry Number:   1  
Rotational constants in cm-1:     0.117276     0.026595     0.021925 

Vibrational entropy computed according to the QRRHO of S. Grimme
Chem.Eur.J. 2012 18 9955


-------
ENTROPY
-------

The entropy contributions are T*S = T*(S(el)+S(vib)+S(rot)+S(trans))
     S(el)   - electronic entropy
     S(vib)  - vibrational entropy
     S(rot)  - rotational entropy
     S(trans)- translational entropy
The entropies will be listed as multiplied by the temperature to get
units of energy

Electronic entropy                ...      0.00000000 Eh      0.00 kcal/mol
Vibrational entropy               ...      0.01164656 Eh      7.31 kcal/mol
Rotational entropy                ...      0.01403835 Eh      8.81 kcal/mol
Translational entropy             ...      0.01931898 Eh     12.12 kcal/mol
-----------------------------------------------------------------------
Final entropy term                ...      0.04500389 Eh     28.24 kcal/mol

In case the symmetry of your molecule has not been determined correctly
or in case you have a reason to use a different symmetry number we print 
out the resulting rotational entropy values for sn=1,12 :
 --------------------------------------------------------
|  sn= 1 | S(rot)=       0.01403835 Eh      8.81 kcal/mol|
|  sn= 2 | S(rot)=       0.01338389 Eh      8.40 kcal/mol|
|  sn= 3 | S(rot)=       0.01300106 Eh      8.16 kcal/mol|
|  sn= 4 | S(rot)=       0.01272943 Eh      7.99 kcal/mol|
|  sn= 5 | S(rot)=       0.01251875 Eh      7.86 kcal/mol|
|  sn= 6 | S(rot)=       0.01234660 Eh      7.75 kcal/mol|
|  sn= 7 | S(rot)=       0.01220105 Eh      7.66 kcal/mol|
|  sn= 8 | S(rot)=       0.01207498 Eh      7.58 kcal/mol|
|  sn= 9 | S(rot)=       0.01196377 Eh      7.51 kcal/mol|
|  sn=10 | S(rot)=       0.01186429 Eh      7.44 kcal/mol|
|  sn=11 | S(rot)=       0.01177430 Eh      7.39 kcal/mol|
|  sn=12 | S(rot)=       0.01169214 Eh      7.34 kcal/mol|
 --------------------------------------------------------


-------------------
GIBBS FREE ENERGY
-------------------

The Gibbs free energy is G = H - T*S

Total enthalpy                    ...   -440.92406022 Eh 
Total entropy correction          ...     -0.04500389 Eh    -28.24 kcal/mol
-----------------------------------------------------------------------
Final Gibbs free energy         ...   -440.96906411 Eh

For completeness - the Gibbs free energy minus the electronic energy
G-E(el)                           ...      0.14344290 Eh     90.01 kcal/mol


Timings for individual modules:

Sum of individual times         ...      368.819 sec (=   6.147 min)
GTO integral calculation        ...        4.074 sec (=   0.068 min)   1.1 %
SCF iterations                  ...       69.947 sec (=   1.166 min)  19.0 %
SCF Gradient evaluation         ...       14.202 sec (=   0.237 min)   3.9 %
Geometry relaxation             ...        0.207 sec (=   0.003 min)   0.1 %
Analytical frequency calculation...      280.391 sec (=   4.673 min)  76.0 %
                             ****ORCA TERMINATED NORMALLY****
TOTAL RUN TIME: 0 days 0 hours 6 minutes 15 seconds 409 msec
