
                                 *****************
                                 * O   R   C   A *
                                 *****************

                                            #,                                       
                                            ###                                      
                                            ####                                     
                                            #####                                    
                                            ######                                   
                                           ########,                                 
                                     ,,################,,,,,                         
                               ,,#################################,,                 
                          ,,##########################################,,             
                       ,#########################################, ''#####,          
                    ,#############################################,,   '####,        
                  ,##################################################,,,,####,       
                ,###########''''           ''''###############################       
              ,#####''   ,,,,##########,,,,          '''####'''          '####       
            ,##' ,,,,###########################,,,                        '##       
           ' ,,###''''                  '''############,,,                           
         ,,##''                                '''############,,,,        ,,,,,,###''
      ,#''                                            '''#######################'''  
     '                                                          ''''####''''         
             ,#######,   #######,   ,#######,      ##                                
            ,#'     '#,  ##    ##  ,#'     '#,    #''#        ######   ,####,        
            ##       ##  ##   ,#'  ##            #'  '#       #        #'  '#        
            ##       ##  #######   ##           ,######,      #####,   #    #        
            '#,     ,#'  ##    ##  '#,     ,#' ,#      #,         ##   #,  ,#        
             '#######'   ##     ##  '#######'  #'      '#     #####' # '####'        



                  #######################################################
                  #                        -***-                        #
                  #          Department of theory and spectroscopy      #
                  #    Directorship and core code : Frank Neese         #
                  #        Max Planck Institute fuer Kohlenforschung    #
                  #                Kaiser Wilhelm Platz 1               #
                  #                 D-45470 Muelheim/Ruhr               #
                  #                      Germany                        #
                  #                                                     #
                  #                  All rights reserved                #
                  #                        -***-                        #
                  #######################################################


                         Program Version 5.0.4 -  RELEASE  -


 With contributions from (in alphabetic order):
   Daniel Aravena         : Magnetic Suceptibility
   Michael Atanasov       : Ab Initio Ligand Field Theory (pilot matlab implementation)
   Alexander A. Auer      : GIAO ZORA, VPT2 properties, NMR spectrum
   Ute Becker             : Parallelization
   Giovanni Bistoni       : ED, misc. LED, open-shell LED, HFLD
   Martin Brehm           : Molecular dynamics
   Dmytro Bykov           : SCF Hessian
   Vijay G. Chilkuri      : MRCI spin determinant printing, contributions to CSF-ICE
   Dipayan Datta          : RHF DLPNO-CCSD density
   Achintya Kumar Dutta   : EOM-CC, STEOM-CC
   Dmitry Ganyushin       : Spin-Orbit,Spin-Spin,Magnetic field MRCI
   Miquel Garcia          : C-PCM and meta-GGA Hessian, CC/C-PCM, Gaussian charge scheme
   Yang Guo               : DLPNO-NEVPT2, F12-NEVPT2, CIM, IAO-localization
   Andreas Hansen         : Spin unrestricted coupled pair/coupled cluster methods
   Benjamin Helmich-Paris : MC-RPA, TRAH-SCF, COSX integrals
   Lee Huntington         : MR-EOM, pCC
   Robert Izsak           : Overlap fitted RIJCOSX, COSX-SCS-MP3, EOM
   Marcus Kettner         : VPT2
   Christian Kollmar      : KDIIS, OOCD, Brueckner-CCSD(T), CCSD density, CASPT2, CASPT2-K
   Simone Kossmann        : Meta GGA functionals, TD-DFT gradient, OOMP2, MP2 Hessian
   Martin Krupicka        : Initial AUTO-CI
   Lucas Lang             : DCDCAS
   Marvin Lechner         : AUTO-CI (C++ implementation), FIC-MRCC
   Dagmar Lenk            : GEPOL surface, SMD
   Dimitrios Liakos       : Extrapolation schemes; Compound Job, initial MDCI parallelization
   Dimitrios Manganas     : Further ROCIS development; embedding schemes
   Dimitrios Pantazis     : SARC Basis sets
   Anastasios Papadopoulos: AUTO-CI, single reference methods and gradients
   Taras Petrenko         : DFT Hessian,TD-DFT gradient, ASA, ECA, R-Raman, ABS, FL, XAS/XES, NRVS
   Peter Pinski           : DLPNO-MP2, DLPNO-MP2 Gradient
   Christoph Reimann      : Effective Core Potentials
   Marius Retegan         : Local ZFS, SOC
   Christoph Riplinger    : Optimizer, TS searches, QM/MM, DLPNO-CCSD(T), (RO)-DLPNO pert. Triples
   Tobias Risthaus        : Range-separated hybrids, TD-DFT gradient, RPA, STAB
   Michael Roemelt        : Original ROCIS implementation
   Masaaki Saitow         : Open-shell DLPNO-CCSD energy and density
   Barbara Sandhoefer     : DKH picture change effects
   Avijit Sen             : IP-ROCIS
   Kantharuban Sivalingam : CASSCF convergence, NEVPT2, FIC-MRCI
   Bernardo de Souza      : ESD, SOC TD-DFT
   Georgi Stoychev        : AutoAux, RI-MP2 NMR, DLPNO-MP2 response
   Willem Van den Heuvel  : Paramagnetic NMR
   Boris Wezisla          : Elementary symmetry handling
   Frank Wennmohs         : Technical directorship


 We gratefully acknowledge several colleagues who have allowed us to
 interface, adapt or use parts of their codes:
   Stefan Grimme, W. Hujo, H. Kruse, P. Pracht,  : VdW corrections, initial TS optimization,
                  C. Bannwarth, S. Ehlert          DFT functionals, gCP, sTDA/sTD-DF
   Ed Valeev, F. Pavosevic, A. Kumar             : LibInt (2-el integral package), F12 methods
   Garnet Chan, S. Sharma, J. Yang, R. Olivares  : DMRG
   Ulf Ekstrom                                   : XCFun DFT Library
   Mihaly Kallay                                 : mrcc  (arbitrary order and MRCC methods)
   Jiri Pittner, Ondrej Demel                    : Mk-CCSD
   Frank Weinhold                                : gennbo (NPA and NBO analysis)
   Christopher J. Cramer and Donald G. Truhlar   : smd solvation model
   Lars Goerigk                                  : TD-DFT with DH, B97 family of functionals
   V. Asgeirsson, H. Jonsson                     : NEB implementation
   FAccTs GmbH                                   : IRC, NEB, NEB-TS, DLPNO-Multilevel, CI-OPT
                                                   MM, QMMM, 2- and 3-layer-ONIOM, Crystal-QMMM,
                                                   LR-CPCM, SF, NACMEs, symmetry and pop. for TD-DFT,
                                                   nearIR, NL-DFT gradient (VV10), updates on ESD,
                                                   ML-optimized integration grids
   S Lehtola, MJT Oliveira, MAL Marques          : LibXC Library
   Liviu Ungur et al                             : ANISO software


 Your calculation uses the libint2 library for the computation of 2-el integrals
 For citations please refer to: http://libint.valeyev.net

 Your ORCA version has been built with support for libXC version: 5.1.0
 For citations please refer to: https://tddft.org/programs/libxc/

 This ORCA versions uses:
   CBLAS   interface :  Fast vector & matrix operations
   LAPACKE interface :  Fast linear algebra routines
   SCALAPACK package :  Parallel linear algebra routines
   Shared memory     :  Shared parallel matrices
   BLAS/LAPACK       :  OpenBLAS 0.3.15  USE64BITINT DYNAMIC_ARCH NO_AFFINITY Haswell SINGLE_THREADED
        Core in use  :  Haswell
   Copyright (c) 2011-2014, The OpenBLAS Project


Your calculation utilizes the atom-pairwise dispersion correction
with the Becke-Johnson damping scheme (D3BJ)
Cite in your paper:
S.Grimme, S.Ehrlich, L.Goerigk, J Comput Chem, (2011), 32, 1456–1465 
S.Grimme, J.Antony, S.Ehrlich and H.Krieg, J.Chem.Phys., 132, (2010), 154104 
   

================================================================================

----- Orbital basis set information -----
Your calculation utilizes the basis: def2-TZVP
   F. Weigend and R. Ahlrichs, Phys. Chem. Chem. Phys. 7, 3297 (2005).

----- AuxJ basis set information -----
Your calculation utilizes the auxiliary basis: def2/J
   F. Weigend, Phys. Chem. Chem. Phys. 8, 1057 (2006).

================================================================================
                                        WARNINGS
                       Please study these warnings very carefully!
================================================================================


WARNING: Geometry Optimization
  ===> : Switching off AutoStart
         For restart on a previous wavefunction, please use MOREAD

INFO   : the flag for use of the SHARK integral package has been found!

================================================================================
                                       INPUT FILE
================================================================================
NAME = NO2-PhenO/NO2-PhenO.inp
|  1> %pal nprocs 24 end
|  2> %maxcore 3500
|  3> ! PBE0 D3BJ def2-TZVP TightSCF OPT FREQ TightOpt
|  4> ! CPCM(dmso)
|  5> %scf
|  6> MaxIter 800
|  7> end
|  8> %geom
|  9> MaxIter 800
| 10> MaxStep 0.2
| 11> end
| 12> *xyz -1 1
| 13> 
| 14> C       0.02591600     -0.53583300     -1.57053900
| 15> C       0.01727500      0.70233100     -0.90665000
| 16> C       0.01899200     -1.72773200     -0.82622900
| 17> H       0.02300200      1.61330600     -1.49160000
| 18> H       0.02619700     -2.67486400     -1.35050000
| 19> C       0.00176200      0.75001900      0.45730400
| 20> C       0.00339400     -1.68552000      0.53757300
| 21> H      -0.00506700      1.70675600      0.96920700
| 22> H      -0.00211400     -2.60596900      1.11224600
| 23> C      -0.00636700     -0.44231600      1.26836800
| 24> O      -0.02073900     -0.40142000      2.52328800
| 25> N       0.04123200     -0.58344100     -2.97220100
| 26> O       0.04876100     -1.68064000     -3.53993400
| 27> O       0.04709200      0.47158900     -3.61498000
| 28> *
| 29> 
| 30>                          ****END OF INPUT****
================================================================================

                       *****************************
                       * Geometry Optimization Run *
                       *****************************

Geometry optimization settings:
Update method            Update   .... BFGS
Choice of coordinates    CoordSys .... Z-matrix Internals
Initial Hessian          InHess   .... Almoef's Model

Convergence Tolerances:
Energy Change            TolE     ....  1.0000e-06 Eh
Max. Gradient            TolMAXG  ....  1.0000e-04 Eh/bohr
RMS Gradient             TolRMSG  ....  3.0000e-05 Eh/bohr
Max. Displacement        TolMAXD  ....  1.0000e-03 bohr
RMS Displacement         TolRMSD  ....  6.0000e-04 bohr
Strict Convergence                ....  False
------------------------------------------------------------------------------
                        ORCA OPTIMIZATION COORDINATE SETUP
------------------------------------------------------------------------------

The optimization will be done in new redundant internal coordinates
Making redundant internal coordinates   ...  (new redundants) done
Evaluating the initial hessian          ...  (Almloef) done
Evaluating the coordinates              ...  done
Calculating the B-matrix                .... done
Calculating the G-matrix                .... done
Diagonalizing the G-matrix              .... done
The first mode is                       ....   27
The number of degrees of freedom        ....   36

    -----------------------------------------------------------------
                    Redundant Internal Coordinates


    -----------------------------------------------------------------
         Definition                    Initial Value    Approx d2E/dq
    -----------------------------------------------------------------
      1. B(C   1,C   0)                  1.4049         0.591416   
      2. B(C   2,C   0)                  1.4052         0.590802   
      3. B(H   3,C   1)                  1.0826         0.369991   
      4. B(H   4,C   2)                  1.0826         0.370056   
      5. B(C   5,C   1)                  1.3649         0.685209   
      6. B(C   6,C   2)                  1.3645         0.686043   
      7. B(H   7,C   5)                  1.0851         0.366644   
      8. B(H   8,C   6)                  1.0851         0.366601   
      9. B(C   9,C   6)                  1.4421         0.515921   
     10. B(C   9,C   5)                  1.4421         0.516025   
     11. B(O  10,C   9)                  1.2557         0.916628   
     12. B(N  11,C   0)                  1.4026         0.534375   
     13. B(O  12,N  11)                  1.2354         0.884424   
     14. B(O  13,N  11)                  1.2354         0.884339   
     15. A(C   2,C   0,N  11)          120.0396         0.416313   
     16. A(C   1,C   0,C   2)          119.8136         0.426692   
     17. A(C   1,C   0,N  11)          120.1468         0.416390   
     18. A(H   3,C   1,C   5)          120.7040         0.360611   
     19. A(C   0,C   1,C   5)          120.2040         0.438215   
     20. A(C   0,C   1,H   3)          119.0920         0.351711   
     21. A(H   4,C   2,C   6)          120.7410         0.360697   
     22. A(C   0,C   2,C   6)          120.2120         0.438229   
     23. A(C   0,C   2,H   4)          119.0470         0.351660   
     24. A(H   7,C   5,C   9)          117.6228         0.343203   
     25. A(C   1,C   5,C   9)          122.2238         0.427601   
     26. A(C   1,C   5,H   7)          120.1534         0.360053   
     27. A(H   8,C   6,C   9)          117.5702         0.343185   
     28. A(C   2,C   6,C   9)          122.2233         0.427679   
     29. A(C   2,C   6,H   8)          120.2066         0.360121   
     30. A(C   5,C   9,O  10)          122.3597         0.447676   
     31. A(C   5,C   9,C   6)          115.3234         0.406537   
     32. A(C   6,C   9,O  10)          122.3169         0.447660   
     33. A(O  12,N  11,O  13)          121.2863         0.480948   
     34. A(C   0,N  11,O  13)          119.4077         0.441666   
     35. A(C   0,N  11,O  12)          119.3060         0.441673   
     36. D(C   5,C   1,C   0,C   2)     -0.0211         0.024076   
     37. D(H   3,C   1,C   0,C   2)    179.9844         0.024076   
     38. D(H   3,C   1,C   0,N  11)     -0.0240         0.024076   
     39. D(C   5,C   1,C   0,N  11)    179.9705         0.024076   
     40. D(H   4,C   2,C   0,C   1)   -179.9749         0.024024   
     41. D(H   4,C   2,C   0,N  11)      0.0335         0.024024   
     42. D(C   6,C   2,C   0,N  11)   -179.9660         0.024024   
     43. D(C   6,C   2,C   0,C   1)      0.0256         0.024024   
     44. D(C   9,C   5,C   1,H   3)    179.9945         0.032952   
     45. D(C   9,C   5,C   1,C   0)      0.0000         0.032952   
     46. D(H   7,C   5,C   1,H   3)      0.0045         0.032952   
     47. D(H   7,C   5,C   1,C   0)   -179.9900         0.032952   
     48. D(C   9,C   6,C   2,C   0)     -0.0091         0.033038   
     49. D(H   8,C   6,C   2,H   4)     -0.0094         0.033038   
     50. D(H   8,C   6,C   2,C   0)    179.9901         0.033038   
     51. D(C   9,C   6,C   2,H   4)    179.9914         0.033038   
     52. D(O  10,C   9,C   6,H   8)     -0.0001         0.018147   
     53. D(C   5,C   9,C   6,H   8)    179.9897         0.018147   
     54. D(C   5,C   9,C   6,C   2)     -0.0111         0.018147   
     55. D(O  10,C   9,C   5,H   7)     -0.0043         0.018154   
     56. D(O  10,C   9,C   5,C   1)   -179.9945         0.018154   
     57. D(O  10,C   9,C   6,C   2)    179.9991         0.018147   
     58. D(C   6,C   9,C   5,H   7)   -179.9941         0.018154   
     59. D(C   6,C   9,C   5,C   1)      0.0157         0.018154   
     60. D(O  13,N  11,C   0,C   2)    179.9950         0.022694   
     61. D(O  13,N  11,C   0,C   1)      0.0034         0.022694   
     62. D(O  12,N  11,C   0,C   2)     -0.0135         0.022694   
     63. D(O  12,N  11,C   0,C   1)    179.9949         0.022694   
    -----------------------------------------------------------------

Number of atoms                         .... 14
Number of degrees of freedom            .... 63

         *************************************************************
         *                GEOMETRY OPTIMIZATION CYCLE   1            *
         *************************************************************
---------------------------------
CARTESIAN COORDINATES (ANGSTROEM)
---------------------------------
  C      0.025916   -0.535833   -1.570539
  C      0.017275    0.702331   -0.906650
  C      0.018992   -1.727732   -0.826229
  H      0.023002    1.613306   -1.491600
  H      0.026197   -2.674864   -1.350500
  C      0.001762    0.750019    0.457304
  C      0.003394   -1.685520    0.537573
  H     -0.005067    1.706756    0.969207
  H     -0.002114   -2.605969    1.112246
  C     -0.006367   -0.442316    1.268368
  O     -0.020739   -0.401420    2.523288
  N      0.041232   -0.583441   -2.972201
  O      0.048761   -1.680640   -3.539934
  O      0.047092    0.471589   -3.614980

----------------------------
CARTESIAN COORDINATES (A.U.)
----------------------------
  NO LB      ZA    FRAG     MASS         X           Y           Z
   0 C     6.0000    0    12.011    0.048974   -1.012578   -2.967889
   1 C     6.0000    0    12.011    0.032645    1.327213   -1.713320
   2 C     6.0000    0    12.011    0.035890   -3.264940   -1.561347
   3 H     1.0000    0     1.008    0.043467    3.048707   -2.818716
   4 H     1.0000    0     1.008    0.049505   -5.054760   -2.552075
   5 C     6.0000    0    12.011    0.003330    1.417331    0.864179
   6 C     6.0000    0    12.011    0.006414   -3.185171    1.015866
   7 H     1.0000    0     1.008   -0.009575    3.225301    1.831536
   8 H     1.0000    0     1.008   -0.003995   -4.924568    2.101840
   9 C     6.0000    0    12.011   -0.012032   -0.835856    2.396868
  10 O     8.0000    0    15.999   -0.039191   -0.758574    4.768323
  11 N     7.0000    0    14.007    0.077917   -1.102544   -5.616646
  12 O     8.0000    0    15.999    0.092145   -3.175949   -6.689506
  13 O     8.0000    0    15.999    0.088991    0.891174   -6.831322

--------------------------------
INTERNAL COORDINATES (ANGSTROEM)
--------------------------------
 C      0   0   0     0.000000000000     0.00000000     0.00000000
 C      1   0   0     1.404946035297     0.00000000     0.00000000
 C      1   2   0     1.405229000582   119.81358391     0.00000000
 H      2   1   3     1.082624012136   119.09203379   179.98438197
 H      3   1   2     1.082576103048   119.04697488   180.02506529
 C      2   1   3     1.364875566720   120.20395620     0.00000000
 C      3   1   2     1.364544263024   120.21202181     0.02558067
 H      6   2   1     1.085097693214   120.15339956   180.01003778
 H      7   3   1     1.085129373206   120.20657808   179.99008344
 C      6   2   1     1.442065756116   122.22378992     0.00000000
 O     10   6   2     1.255668444933   122.35967373   180.00549756
 N      1   2   3     1.402553907614   120.14684944   179.99157208
 O     12   1   2     1.235404019231   119.30596901   179.99490657
 O     12   1   2     1.235430080313   119.40773256     0.00000000

---------------------------
INTERNAL COORDINATES (A.U.)
---------------------------
 C      0   0   0     0.000000000000     0.00000000     0.00000000
 C      1   0   0     2.654963239651     0.00000000     0.00000000
 C      1   2   0     2.655497966544   119.81358391     0.00000000
 H      2   1   3     2.045862888945   119.09203379   179.98438197
 H      3   1   2     2.045772353888   119.04697488   180.02506529
 C      2   1   3     2.579241027981   120.20395620     0.00000000
 C      3   1   2     2.578614954729   120.21202181     0.02558067
 H      6   2   1     2.050537468725   120.15339956   180.01003778
 H      7   3   1     2.050597335233   120.20657808   179.99008344
 C      6   2   1     2.725109346165   122.22378992     0.00000000
 O     10   6   2     2.372869475930   122.35967373   180.00549756
 N      1   2   3     2.650442773452   120.14684944   179.99157208
 O     12   1   2     2.334575261091   119.30596901   179.99490657
 O     12   1   2     2.334624509399   119.40773256     0.00000000

---------------------
BASIS SET INFORMATION
---------------------
There are 4 groups of distinct atoms

 Group   1 Type C   : 11s6p2d1f contracted to 5s3p2d1f pattern {62111/411/11/1}
 Group   2 Type H   : 5s1p contracted to 3s1p pattern {311/1}
 Group   3 Type O   : 11s6p2d1f contracted to 5s3p2d1f pattern {62111/411/11/1}
 Group   4 Type N   : 11s6p2d1f contracted to 5s3p2d1f pattern {62111/411/11/1}

Atom   0C    basis set group =>   1
Atom   1C    basis set group =>   1
Atom   2C    basis set group =>   1
Atom   3H    basis set group =>   2
Atom   4H    basis set group =>   2
Atom   5C    basis set group =>   1
Atom   6C    basis set group =>   1
Atom   7H    basis set group =>   2
Atom   8H    basis set group =>   2
Atom   9C    basis set group =>   1
Atom  10O    basis set group =>   3
Atom  11N    basis set group =>   4
Atom  12O    basis set group =>   3
Atom  13O    basis set group =>   3
---------------------------------
AUXILIARY/J BASIS SET INFORMATION
---------------------------------
There are 4 groups of distinct atoms

 Group   1 Type C   : 12s5p4d2f1g contracted to 6s4p3d1f1g pattern {711111/2111/211/2/1}
 Group   2 Type H   : 5s2p1d contracted to 3s1p1d pattern {311/2/1}
 Group   3 Type O   : 12s5p4d2f1g contracted to 6s4p3d1f1g pattern {711111/2111/211/2/1}
 Group   4 Type N   : 12s5p4d2f1g contracted to 6s4p3d1f1g pattern {711111/2111/211/2/1}

Atom   0C    basis set group =>   1
Atom   1C    basis set group =>   1
Atom   2C    basis set group =>   1
Atom   3H    basis set group =>   2
Atom   4H    basis set group =>   2
Atom   5C    basis set group =>   1
Atom   6C    basis set group =>   1
Atom   7H    basis set group =>   2
Atom   8H    basis set group =>   2
Atom   9C    basis set group =>   1
Atom  10O    basis set group =>   3
Atom  11N    basis set group =>   4
Atom  12O    basis set group =>   3
Atom  13O    basis set group =>   3


           ************************************************************
           *        Program running with 24 parallel MPI-processes    *
           *              working on a common directory               *
           ************************************************************
------------------------------------------------------------------------------
                           ORCA GTO INTEGRAL CALCULATION
                           -- RI-GTO INTEGRALS CHOSEN --
------------------------------------------------------------------------------
------------------------------------------------------------------------------
                   ___                                                        
                  /   \      - P O W E R E D   B Y -                         
                 /     \                                                     
                 |  |  |   _    _      __       _____    __    __             
                 |  |  |  | |  | |    /  \     |  _  \  |  |  /  |          
                  \  \/   | |  | |   /    \    | | | |  |  | /  /          
                 / \  \   | |__| |  /  /\  \   | |_| |  |  |/  /          
                |  |  |   |  __  | /  /__\  \  |    /   |      \           
                |  |  |   | |  | | |   __   |  |    \   |  |\   \          
                \     /   | |  | | |  |  |  |  | |\  \  |  | \   \       
                 \___/    |_|  |_| |__|  |__|  |_| \__\ |__|  \__/        
                                                                              
                      - O R C A' S   B I G   F R I E N D -                    
                                      &                                       
                       - I N T E G R A L  F E E D E R -                       
                                                                              
 v1 FN, 2020, v2 2021                                                         
------------------------------------------------------------------------------


Reading SHARK input file NO2-PhenO/NO2-PhenO.SHARKINP.tmp ... ok
----------------------
SHARK INTEGRAL PACKAGE
----------------------

Number of atoms                             ...     14
Number of basis functions                   ...    334
Number of shells                            ...    126
Maximum angular momentum                    ...      3
Integral batch strategy                     ... SHARK/LIBINT Hybrid
RI-J (if used) integral strategy            ... SPLIT-RIJ (Revised 2003 algorithm where possible)
Printlevel                                  ...      1
Contraction scheme used                     ... SEGMENTED contraction
Coulomb Range Separation                    ... NOT USED
Exchange Range Separation                   ... NOT USED
Finite Nucleus Model                        ... NOT USED
Auxiliary Coulomb fitting basis             ... AVAILABLE
   # of basis functions in Aux-J            ...    534
   # of shells in Aux-J                     ...    170
   Maximum angular momentum in Aux-J        ...      4
Auxiliary J/K fitting basis                 ... NOT available
Auxiliary Correlation fitting basis         ... NOT available
Auxiliary 'external' fitting basis          ... NOT available
Integral threshold                          ...     2.500000e-11
Primitive cut-off                           ...     2.500000e-12
Primitive pair pre-selection threshold      ...     2.500000e-12

Calculating pre-screening integrals         ... done (  0.1 sec) Dimension = 126
Organizing shell pair data                  ... done (  0.1 sec)
Shell pair information
Total number of shell pairs                 ...      8001
Shell pairs after pre-screening             ...      7059
Total number of primitive shell pairs       ...     25432
Primitive shell pairs kept                  ...     16421
          la=0 lb=0:   1623 shell pairs
          la=1 lb=0:   1913 shell pairs
          la=1 lb=1:    564 shell pairs
          la=2 lb=0:   1080 shell pairs
          la=2 lb=1:    630 shell pairs
          la=2 lb=2:    187 shell pairs
          la=3 lb=0:    525 shell pairs
          la=3 lb=1:    312 shell pairs
          la=3 lb=2:    177 shell pairs
          la=3 lb=3:     48 shell pairs

Calculating one electron integrals          ... done (  0.0 sec)
Calculating RI/J V-Matrix + Cholesky decomp.... done (  0.1 sec)
Calculating Nuclear repulsion               ... done (  0.0 sec) ENN=    484.830552590618 Eh

SHARK setup successfully completed in   0.6 seconds

Maximum memory used throughout the entire GTOINT-calculation: 20.6 MB


           ************************************************************
           *        Program running with 24 parallel MPI-processes    *
           *              working on a common directory               *
           ************************************************************
-------------------------------------------------------------------------------
                                 ORCA SCF
-------------------------------------------------------------------------------

------------
SCF SETTINGS
------------
Hamiltonian:
 Density Functional     Method          .... DFT(GTOs)
 Exchange Functional    Exchange        .... PBE
   PBE kappa parameter   XKappa         ....  0.804000
   PBE mue parameter    XMuePBE         ....  0.219520
 Correlation Functional Correlation     .... PBE
   PBE beta parameter  CBetaPBE         ....  0.066725
 LDA part of GGA corr.  LDAOpt          .... PW91-LDA
 Gradients option       PostSCFGGA      .... off
 Hybrid DFT is turned on
   Fraction HF Exchange ScalHFX         ....  0.250000
   Scaling of DF-GGA-X  ScalDFX         ....  0.750000
   Scaling of DF-GGA-C  ScalDFC         ....  1.000000
   Scaling of DF-LDA-C  ScalLDAC        ....  1.000000
   Perturbative correction              ....  0.000000
   Density functional embedding theory  .... OFF
   NL short-range parameter             ....  6.900000
 RI-approximation to the Coulomb term is turned on
   Number of AuxJ basis functions       .... 534
   RIJ-COSX (HFX calculated with COS-X)).... on


General Settings:
 Integral files         IntName         .... NO2-PhenO/NO2-PhenO
 Hartree-Fock type      HFTyp           .... RHF
 Total Charge           Charge          ....   -1
 Multiplicity           Mult            ....    1
 Number of Electrons    NEL             ....   72
 Basis Dimension        Dim             ....  334
 Nuclear Repulsion      ENuc            ....    484.8305525906 Eh

Convergence Acceleration:
 DIIS                   CNVDIIS         .... on
   Start iteration      DIISMaxIt       ....    12
   Startup error        DIISStart       ....  0.200000
   # of expansion vecs  DIISMaxEq       ....     5
   Bias factor          DIISBfac        ....   1.050
   Max. coefficient     DIISMaxC        ....  10.000
 Trust-Rad. Augm. Hess. CNVTRAH         .... auto
   Auto Start mean grad. ratio tolernc. ....  1.125000
   Auto Start start iteration           ....    20
   Auto Start num. interpolation iter.  ....    10
   Max. Number of Micro iterations      ....    16
   Max. Number of Macro iterations      .... Maxiter - #DIIS iter
   Number of Davidson start vectors     ....     2
   Converg. threshold I  (grad. norm)   ....   1.000e-05
   Converg. threshold II (energy diff.) ....   1.000e-08
   Grad. Scal. Fac. for Micro threshold ....   0.100
   Minimum threshold for Micro iter.    ....   0.010
   NR start threshold (gradient norm)   ....   0.001
   Initial trust radius                 ....   0.400
   Minimum AH scaling param. (alpha)    ....   1.000
   Maximum AH scaling param. (alpha)    .... 1000.000
   Orbital update algorithm             .... Taylor
   White noise on init. David. guess    .... on
   Maximum white noise                  ....   0.010
   Quad. conv. algorithm                .... NR
 SOSCF                  CNVSOSCF        .... on
   Start iteration      SOSCFMaxIt      ....   150
   Startup grad/error   SOSCFStart      ....  0.003300
 Level Shifting         CNVShift        .... on
   Level shift para.    LevelShift      ....    0.2500
   Turn off err/grad.   ShiftErr        ....    0.0010
 Zerner damping         CNVZerner       .... off
 Static damping         CNVDamp         .... on
   Fraction old density DampFac         ....    0.7000
   Max. Damping (<1)    DampMax         ....    0.9800
   Min. Damping (>=0)   DampMin         ....    0.0000
   Turn off err/grad.   DampErr         ....    0.1000
 Fernandez-Rico         CNVRico         .... off

SCF Procedure:
 Maximum # iterations   MaxIter         ....   800
 SCF integral mode      SCFMode         .... Direct
   Integral package                     .... SHARK and LIBINT hybrid scheme
 Reset frequency        DirectResetFreq ....    20
 Integral Threshold     Thresh          ....  2.500e-11 Eh
 Primitive CutOff       TCut            ....  2.500e-12 Eh

Convergence Tolerance:
 Convergence Check Mode ConvCheckMode   .... Total+1el-Energy
 Convergence forced     ConvForced      .... 0
 Energy Change          TolE            ....  1.000e-08 Eh
 1-El. energy change                    ....  1.000e-05 Eh
 Orbital Gradient       TolG            ....  1.000e-05
 Orbital Rotation angle TolX            ....  1.000e-05
 DIIS Error             TolErr          ....  5.000e-07


Diagonalization of the overlap matrix:
Smallest eigenvalue                        ... 1.153e-05
Time for diagonalization                   ...    0.026 sec
Threshold for overlap eigenvalues          ... 1.000e-08
Number of eigenvalues below threshold      ... 0
Time for construction of square roots      ...    0.027 sec
Total time needed                          ...    0.056 sec

Time for model grid setup =    0.103 sec

------------------------------
INITIAL GUESS: MODEL POTENTIAL
------------------------------
Loading Hartree-Fock densities                     ... done
Calculating cut-offs                               ... done
Initializing the effective Hamiltonian             ... done
Setting up the integral package (SHARK)            ... done
Starting the Coulomb interaction                   ... done (   0.1 sec)
Reading the grid                                   ... done
Mapping shells                                     ... done
Starting the XC term evaluation                    ... done (   0.0 sec)
  promolecular density results
     # of electrons  =     71.000748903
     EX              =    -62.833579337
     EC              =     -2.401226585
     EX+EC           =    -65.234805922
Transforming the Hamiltonian                       ... done (   0.0 sec)
Diagonalizing the Hamiltonian                      ... done (   0.0 sec)
Back transforming the eigenvectors                 ... done (   0.0 sec)
Now organizing SCF variables                       ... done
                      ------------------
                      INITIAL GUESS DONE (   0.3 sec)
                      ------------------
-------------------
DFT GRID GENERATION
-------------------

General Integration Accuracy     IntAcc      ... 4.388
Radial Grid Type                 RadialGrid  ... OptM3 with GC (2021)
Angular Grid (max. ang.)         AngularGrid ... 4 (Lebedev-302)
Angular grid pruning method      GridPruning ... 4 (adaptive)
Weight generation scheme         WeightScheme... Becke
Basis function cutoff            BFCut       ... 1.0000e-11
Integration weight cutoff        WCut        ... 1.0000e-14
Angular grids for H and He will be reduced by one unit
Partially contracted basis set               ... off
Rotationally invariant grid construction     ... off

Total number of grid points                  ...    73224
Total number of batches                      ...     1151
Average number of points per batch           ...       63
Average number of grid points per atom       ...     5230
Time for grid setup =    0.431 sec

--------------------
COSX GRID GENERATION
--------------------

GRIDX 1
-------
General Integration Accuracy     IntAcc      ... 3.816
Radial Grid Type                 RadialGrid  ... OptM3 with GC (2021)
Angular Grid (max. ang.)         AngularGrid ... 1 (Lebedev-50)
Angular grid pruning method      GridPruning ... 4 (adaptive)
Weight generation scheme         WeightScheme... Becke
Basis function cutoff            BFCut       ... 1.0000e-11
Integration weight cutoff        WCut        ... 1.0000e-14
Angular grids for H and He will be reduced by one unit
Partially contracted basis set               ... on
Rotationally invariant grid construction     ... off

Total number of grid points                  ...     9306
Total number of batches                      ...      149
Average number of points per batch           ...       62
Average number of grid points per atom       ...      665
UseSFitting                                  ... on

GRIDX 2
-------
General Integration Accuracy     IntAcc      ... 4.020
Radial Grid Type                 RadialGrid  ... OptM3 with GC (2021)
Angular Grid (max. ang.)         AngularGrid ... 2 (Lebedev-110)
Angular grid pruning method      GridPruning ... 4 (adaptive)
Weight generation scheme         WeightScheme... Becke
Basis function cutoff            BFCut       ... 1.0000e-11
Integration weight cutoff        WCut        ... 1.0000e-14
Angular grids for H and He will be reduced by one unit
Partially contracted basis set               ... on
Rotationally invariant grid construction     ... off

Total number of grid points                  ...    21132
Total number of batches                      ...      339
Average number of points per batch           ...       62
Average number of grid points per atom       ...     1509
UseSFitting                                  ... on

GRIDX 3
-------
General Integration Accuracy     IntAcc      ... 4.338
Radial Grid Type                 RadialGrid  ... OptM3 with GC (2021)
Angular Grid (max. ang.)         AngularGrid ... 3 (Lebedev-194)
Angular grid pruning method      GridPruning ... 4 (adaptive)
Weight generation scheme         WeightScheme... Becke
Basis function cutoff            BFCut       ... 1.0000e-11
Integration weight cutoff        WCut        ... 1.0000e-14
Angular grids for H and He will be reduced by one unit
Partially contracted basis set               ... on
Rotationally invariant grid construction     ... off

Total number of grid points                  ...    46716
Total number of batches                      ...      736
Average number of points per batch           ...       63
Average number of grid points per atom       ...     3337
UseSFitting                                  ... on

Time for X-Grid setup             =    0.619 sec


--------------------
CPCM SOLVATION MODEL
--------------------
CPCM parameters:
  Epsilon                                         ...      47.2000
  Refrac                                          ...       1.4790
  Rsolv                                           ...       1.3000
  Surface type                                    ... GAUSSIAN VDW
  Epsilon function type                           ...         CPCM
Radii:
 Radius for C  used is    3.8550 Bohr (=   2.0400 Ang.)
 Radius for H  used is    2.4944 Bohr (=   1.3200 Ang.)
 Radius for O  used is    3.4469 Bohr (=   1.8240 Ang.)
 Radius for N  used is    3.5149 Bohr (=   1.8600 Ang.)
Calculating surface                               ...        done! (  0.0s)
GEPOL surface points                              ...          813
GEPOL Volume                                      ...    1046.0915
GEPOL Surface-area                                ...     589.2153
Calculating surface distance matrix               ...        done! (  0.0s)
Performing Cholesky decomposition & store         ...        done! (  0.1s)
Overall time for CPCM initialization              ...                 0.1s
--------------
SCF ITERATIONS
--------------
ITER       Energy         Delta-E        Max-DP      RMS-DP      [F,P]     Damp
               ***  Starting incremental Fock matrix formation  ***
  0   -510.8282048981   0.000000000000 0.38649172  0.00427115  0.3193155 0.7000
  1   -510.9871630115  -0.158958113483 0.34631997  0.00373941  0.1339658 0.7000
                               ***Turning on DIIS***
  2   -511.0457800559  -0.058617044322 0.30126423  0.00392654  0.0392603 0.0000
  3   -511.1455155936  -0.099735537736 0.35920107  0.00366604  0.0809800 0.0000
  4   -511.1637694981  -0.018253904539 0.08400992  0.00088439  0.0164170 0.0000
  5   -511.1652395787  -0.001470080607 0.02854518  0.00031674  0.0037297 0.0000
                      *** Initiating the SOSCF procedure ***
                           *** Shutting down DIIS ***
                      *** Re-Reading the Fockian *** 
                      *** Removing any level shift *** 
ITER      Energy       Delta-E        Grad      Rot      Max-DP    RMS-DP
  6   -511.16531990  -0.0000803202  0.000568  0.000568  0.009894  0.000108
               *** Restarting incremental Fock matrix formation ***
  7   -511.16533469  -0.0000147956  0.000365  0.001347  0.002208  0.000036
  8   -511.16533673  -0.0000020312  0.000248  0.001059  0.003204  0.000034
  9   -511.16533740  -0.0000006755  0.000135  0.000462  0.002268  0.000024
 10   -511.16533775  -0.0000003438  0.000033  0.000119  0.000460  0.000006
 11   -511.16533774   0.0000000088  0.000041  0.000099  0.000159  0.000003
 12   -511.16533778  -0.0000000465  0.000006  0.000011  0.000282  0.000005
 13   -511.16533778   0.0000000043  0.000006  0.000010  0.000075  0.000001
                  ***Gradient check signals convergence***
              ***Rediagonalizing the Fockian in SOSCF/NRSCF***

               *****************************************************
               *                     SUCCESS                       *
               *           SCF CONVERGED AFTER  14 CYCLES          *
               *****************************************************

Old exchange energy                            =    -15.997191401 Eh
New exchange energy                            =    -15.997164428 Eh
Exchange energy change after final integration =      0.000026973 Eh
Total energy after final integration           =   -511.165310810 Eh
Final COS-X integration done in                =     1.697 sec

----------------
TOTAL SCF ENERGY
----------------

Total Energy       :         -511.16531081 Eh          -13909.51525 eV

Components:
Nuclear Repulsion  :          484.83055259 Eh           13192.91005 eV
Electronic Energy  :         -995.99586340 Eh          -27102.42530 eV
One Electron Energy:        -1670.59024934 Eh          -45459.07178 eV
Two Electron Energy:          674.59438594 Eh           18356.64648 eV
Max COSX asymmetry :            0.00000156 Eh               0.00004 eV
CPCM Dielectric    :           -0.08381902 Eh              -2.28083 eV

Virial components:
Potential Energy   :        -1020.25137802 Eh          -27762.45141 eV
Kinetic Energy     :          509.08606721 Eh           13852.93616 eV
Virial Ratio       :            2.00408427


DFT components:
N(Alpha)           :       36.000019670032 electrons
N(Beta)            :       36.000019670032 electrons
N(Total)           :       72.000039340063 electrons
E(X)               :      -47.998103115374 Eh       
E(C)               :       -2.442975445915 Eh       
E(XC)              :      -50.441078561288 Eh       
DFET-embed. en.    :        0.000000000000 Eh       
CPCM Solvation Model Properties:
Surface-charge          :            0.97647149
Charge-correction       :           -0.00309999 Eh              -0.08435 eV
Free-energy (cav+disp)  :  This term is not implemented in the current solvation scheme

---------------
SCF CONVERGENCE
---------------

  Last Energy change         ...   -4.7201e-09  Tolerance :   1.0000e-08
  Last MAX-Density change    ...    2.5535e-15  Tolerance :   1.0000e-07
  Last RMS-Density change    ...    2.2140e-17  Tolerance :   5.0000e-09
  Last Orbital Gradient      ...    9.0530e-07  Tolerance :   1.0000e-05
  Last Orbital Rotation      ...    2.9408e-06  Tolerance :   1.0000e-05

             **** THE GBW FILE WAS UPDATED (NO2-PhenO/NO2-PhenO.gbw) ****
             **** DENSITY NO2-PhenO/NO2-PhenO.scfp WAS UPDATED ****
             **** ENERGY FILE WAS UPDATED (NO2-PhenO/NO2-PhenO.en.tmp) ****
             **** THE GBW FILE WAS UPDATED (NO2-PhenO/NO2-PhenO.gbw) ****
             **** DENSITY NO2-PhenO/NO2-PhenO.scfp WAS UPDATED ****
----------------
ORBITAL ENERGIES
----------------

  NO   OCC          E(Eh)            E(eV) 
   0   2.0000     -19.209202      -522.7090 
   1   2.0000     -19.209117      -522.7066 
   2   2.0000     -19.143633      -520.9247 
   3   2.0000     -14.595538      -397.1648 
   4   2.0000     -10.271335      -279.4972 
   5   2.0000     -10.250182      -278.9216 
   6   2.0000     -10.229414      -278.3565 
   7   2.0000     -10.229307      -278.3536 
   8   2.0000     -10.207704      -277.7658 
   9   2.0000     -10.207681      -277.7651 
  10   2.0000      -1.237131       -33.6640 
  11   2.0000      -1.053486       -28.6668 
  12   2.0000      -1.014449       -27.6046 
  13   2.0000      -0.885359       -24.0918 
  14   2.0000      -0.796752       -21.6807 
  15   2.0000      -0.770069       -20.9546 
  16   2.0000      -0.673565       -18.3286 
  17   2.0000      -0.622439       -16.9374 
  18   2.0000      -0.583824       -15.8867 
  19   2.0000      -0.560419       -15.2498 
  20   2.0000      -0.535514       -14.5721 
  21   2.0000      -0.520024       -14.1506 
  22   2.0000      -0.469972       -12.7886 
  23   2.0000      -0.468139       -12.7387 
  24   2.0000      -0.441028       -12.0010 
  25   2.0000      -0.431413       -11.7393 
  26   2.0000      -0.403887       -10.9903 
  27   2.0000      -0.390493       -10.6258 
  28   2.0000      -0.356140        -9.6911 
  29   2.0000      -0.334929        -9.1139 
  30   2.0000      -0.317357        -8.6357 
  31   2.0000      -0.312901        -8.5145 
  32   2.0000      -0.289897        -7.8885 
  33   2.0000      -0.271057        -7.3758 
  34   2.0000      -0.241825        -6.5804 
  35   2.0000      -0.206816        -5.6277 
  36   0.0000      -0.064272        -1.7489 
  37   0.0000       0.001671         0.0455 
  38   0.0000       0.051012         1.3881 
  39   0.0000       0.079445         2.1618 
  40   0.0000       0.103447         2.8149 
  41   0.0000       0.109502         2.9797 
  42   0.0000       0.116756         3.1771 
  43   0.0000       0.148393         4.0380 
  44   0.0000       0.166431         4.5288 
  45   0.0000       0.173999         4.7348 
  46   0.0000       0.183920         5.0047 
  47   0.0000       0.215384         5.8609 
  48   0.0000       0.231151         6.2899 
  49   0.0000       0.231819         6.3081 
  50   0.0000       0.239481         6.5166 
  51   0.0000       0.247484         6.7344 
  52   0.0000       0.255610         6.9555 
  53   0.0000       0.255896         6.9633 
  54   0.0000       0.271436         7.3862 
  55   0.0000       0.280344         7.6286 
  56   0.0000       0.334032         9.0895 
  57   0.0000       0.335188         9.1209 
  58   0.0000       0.338116         9.2006 
  59   0.0000       0.340241         9.2584 
  60   0.0000       0.350499         9.5376 
  61   0.0000       0.357617         9.7313 
  62   0.0000       0.365645         9.9497 
  63   0.0000       0.386955        10.5296 
  64   0.0000       0.391948        10.6654 
  65   0.0000       0.415121        11.2960 
  66   0.0000       0.416464        11.3326 
  67   0.0000       0.419136        11.4053 
  68   0.0000       0.422989        11.5101 
  69   0.0000       0.437798        11.9131 
  70   0.0000       0.455004        12.3813 
  71   0.0000       0.456613        12.4251 
  72   0.0000       0.478969        13.0334 
  73   0.0000       0.484000        13.1703 
  74   0.0000       0.497898        13.5485 
  75   0.0000       0.506873        13.7927 
  76   0.0000       0.516605        14.0575 
  77   0.0000       0.519044        14.1239 
  78   0.0000       0.523892        14.2558 
  79   0.0000       0.541824        14.7438 
  80   0.0000       0.572228        15.5711 
  81   0.0000       0.574811        15.6414 
  82   0.0000       0.585253        15.9255 
  83   0.0000       0.601412        16.3652 
  84   0.0000       0.635975        17.3057 
  85   0.0000       0.650367        17.6974 
  86   0.0000       0.650823        17.7098 
  87   0.0000       0.657259        17.8849 
  88   0.0000       0.660840        17.9824 
  89   0.0000       0.686720        18.6866 
  90   0.0000       0.709877        19.3167 
  91   0.0000       0.734092        19.9757 
  92   0.0000       0.748511        20.3680 
  93   0.0000       0.748996        20.3812 
  94   0.0000       0.766274        20.8514 
  95   0.0000       0.799223        21.7480 
  96   0.0000       0.809360        22.0238 
  97   0.0000       0.813739        22.1430 
  98   0.0000       0.816387        22.2150 
  99   0.0000       0.854833        23.2612 
 100   0.0000       0.874573        23.7983 
 101   0.0000       0.876965        23.8634 
 102   0.0000       0.890288        24.2260 
 103   0.0000       0.897790        24.4301 
 104   0.0000       0.912755        24.8373 
 105   0.0000       0.968386        26.3511 
 106   0.0000       1.017129        27.6775 
 107   0.0000       1.019120        27.7317 
 108   0.0000       1.043971        28.4079 
 109   0.0000       1.054498        28.6944 
 110   0.0000       1.069538        29.1036 
 111   0.0000       1.087398        29.5896 
 112   0.0000       1.089971        29.6596 
 113   0.0000       1.128385        30.7049 
 114   0.0000       1.186527        32.2870 
 115   0.0000       1.200149        32.6577 
 116   0.0000       1.202485        32.7213 
 117   0.0000       1.234897        33.6033 
 118   0.0000       1.235362        33.6159 
 119   0.0000       1.241128        33.7728 
 120   0.0000       1.272285        34.6206 
 121   0.0000       1.289307        35.0838 
 122   0.0000       1.310564        35.6623 
 123   0.0000       1.327383        36.1199 
 124   0.0000       1.352663        36.8078 
 125   0.0000       1.419026        38.6137 
 126   0.0000       1.430749        38.9327 
 127   0.0000       1.434155        39.0253 
 128   0.0000       1.440794        39.2060 
 129   0.0000       1.471151        40.0321 
 130   0.0000       1.515328        41.2342 
 131   0.0000       1.517315        41.2883 
 132   0.0000       1.519335        41.3432 
 133   0.0000       1.540908        41.9302 
 134   0.0000       1.563995        42.5585 
 135   0.0000       1.579429        42.9784 
 136   0.0000       1.585288        43.1379 
 137   0.0000       1.617526        44.0151 
 138   0.0000       1.636973        44.5443 
 139   0.0000       1.649343        44.8809 
 140   0.0000       1.685518        45.8653 
 141   0.0000       1.688050        45.9342 
 142   0.0000       1.693454        46.0812 
 143   0.0000       1.726418        46.9782 
 144   0.0000       1.756596        47.7994 
 145   0.0000       1.762512        47.9604 
 146   0.0000       1.780637        48.4536 
 147   0.0000       1.802142        49.0388 
 148   0.0000       1.828095        49.7450 
 149   0.0000       1.859659        50.6039 
 150   0.0000       1.866519        50.7906 
 151   0.0000       1.886310        51.3291 
 152   0.0000       1.934207        52.6325 
 153   0.0000       1.942003        52.8446 
 154   0.0000       1.953582        53.1597 
 155   0.0000       1.999146        54.3995 
 156   0.0000       2.005478        54.5718 
 157   0.0000       2.048227        55.7351 
 158   0.0000       2.050599        55.7996 
 159   0.0000       2.086739        56.7830 
 160   0.0000       2.093534        56.9680 
 161   0.0000       2.119729        57.6808 
 162   0.0000       2.147432        58.4346 
 163   0.0000       2.160862        58.8000 
 164   0.0000       2.185173        59.4616 
 165   0.0000       2.196189        59.7613 
 166   0.0000       2.213947        60.2446 
 167   0.0000       2.240498        60.9671 
 168   0.0000       2.254834        61.3571 
 169   0.0000       2.270920        61.7949 
 170   0.0000       2.312765        62.9335 
 171   0.0000       2.316860        63.0450 
 172   0.0000       2.370900        64.5155 
 173   0.0000       2.413982        65.6878 
 174   0.0000       2.445720        66.5514 
 175   0.0000       2.479330        67.4660 
 176   0.0000       2.511530        68.3422 
 177   0.0000       2.527015        68.7636 
 178   0.0000       2.593076        70.5612 
 179   0.0000       2.596923        70.6659 
 180   0.0000       2.606247        70.9196 
 181   0.0000       2.613747        71.1237 
 182   0.0000       2.648777        72.0769 
 183   0.0000       2.667210        72.5785 
 184   0.0000       2.682299        72.9891 
 185   0.0000       2.686480        73.1028 
 186   0.0000       2.694443        73.3195 
 187   0.0000       2.698172        73.4210 
 188   0.0000       2.735908        74.4478 
 189   0.0000       2.739674        74.5503 
 190   0.0000       2.775805        75.5335 
 191   0.0000       2.778477        75.6062 
 192   0.0000       2.780919        75.6727 
 193   0.0000       2.821414        76.7746 
 194   0.0000       2.834583        77.1329 
 195   0.0000       2.837638        77.2161 
 196   0.0000       2.845742        77.4366 
 197   0.0000       2.875218        78.2387 
 198   0.0000       2.893107        78.7254 
 199   0.0000       2.900153        78.9172 
 200   0.0000       2.929720        79.7217 
 201   0.0000       2.936842        79.9155 
 202   0.0000       2.987867        81.3040 
 203   0.0000       2.988309        81.3160 
 204   0.0000       3.002160        81.6929 
 205   0.0000       3.004096        81.7456 
 206   0.0000       3.051321        83.0307 
 207   0.0000       3.109899        84.6247 
 208   0.0000       3.118023        84.8457 
 209   0.0000       3.118507        84.8589 
 210   0.0000       3.119277        84.8798 
 211   0.0000       3.146766        85.6278 
 212   0.0000       3.148487        85.6747 
 213   0.0000       3.160867        86.0116 
 214   0.0000       3.183496        86.6273 
 215   0.0000       3.193422        86.8974 
 216   0.0000       3.196110        86.9706 
 217   0.0000       3.221700        87.6669 
 218   0.0000       3.242358        88.2290 
 219   0.0000       3.243575        88.2622 
 220   0.0000       3.272314        89.0442 
 221   0.0000       3.305975        89.9602 
 222   0.0000       3.308240        90.0218 
 223   0.0000       3.352622        91.2295 
 224   0.0000       3.355970        91.3206 
 225   0.0000       3.371403        91.7405 
 226   0.0000       3.388473        92.2050 
 227   0.0000       3.401166        92.5504 
 228   0.0000       3.436800        93.5201 
 229   0.0000       3.448653        93.8426 
 230   0.0000       3.466344        94.3240 
 231   0.0000       3.489679        94.9590 
 232   0.0000       3.502170        95.2989 
 233   0.0000       3.504576        95.3644 
 234   0.0000       3.528629        96.0189 
 235   0.0000       3.548965        96.5722 
 236   0.0000       3.587535        97.6218 
 237   0.0000       3.594057        97.7993 
 238   0.0000       3.694363       100.5287 
 239   0.0000       3.726871       101.4133 
 240   0.0000       3.739294       101.7514 
 241   0.0000       3.777244       102.7840 
 242   0.0000       3.817455       103.8782 
 243   0.0000       3.847830       104.7048 
 244   0.0000       3.879435       105.5648 
 245   0.0000       3.910999       106.4237 
 246   0.0000       3.991636       108.6179 
 247   0.0000       3.992567       108.6433 
 248   0.0000       4.010267       109.1249 
 249   0.0000       4.017806       109.3301 
 250   0.0000       4.052272       110.2679 
 251   0.0000       4.074883       110.8832 
 252   0.0000       4.123471       112.2054 
 253   0.0000       4.146157       112.8227 
 254   0.0000       4.154023       113.0367 
 255   0.0000       4.163562       113.2963 
 256   0.0000       4.186646       113.9244 
 257   0.0000       4.198899       114.2578 
 258   0.0000       4.252183       115.7078 
 259   0.0000       4.255052       115.7858 
 260   0.0000       4.291182       116.7690 
 261   0.0000       4.316521       117.4585 
 262   0.0000       4.397446       119.6606 
 263   0.0000       4.519945       122.9940 
 264   0.0000       4.549598       123.8009 
 265   0.0000       4.594654       125.0269 
 266   0.0000       4.598202       125.1234 
 267   0.0000       4.666460       126.9808 
 268   0.0000       4.692876       127.6996 
 269   0.0000       4.697827       127.8344 
 270   0.0000       4.719515       128.4245 
 271   0.0000       4.735065       128.8477 
 272   0.0000       4.783414       130.1633 
 273   0.0000       4.892243       133.1247 
 274   0.0000       4.892766       133.1389 
 275   0.0000       4.895246       133.2064 
 276   0.0000       4.921584       133.9231 
 277   0.0000       4.939994       134.4241 
 278   0.0000       4.993221       135.8724 
 279   0.0000       5.101309       138.8137 
 280   0.0000       5.104750       138.9073 
 281   0.0000       5.154254       140.2544 
 282   0.0000       5.158804       140.3782 
 283   0.0000       5.165240       140.5533 
 284   0.0000       5.181834       141.0049 
 285   0.0000       5.221561       142.0859 
 286   0.0000       5.257007       143.0504 
 287   0.0000       5.306416       144.3949 
 288   0.0000       5.320227       144.7707 
 289   0.0000       5.331440       145.0759 
 290   0.0000       5.343288       145.3982 
 291   0.0000       5.459332       148.5560 
 292   0.0000       5.520340       150.2161 
 293   0.0000       5.534802       150.6096 
 294   0.0000       5.604129       152.4961 
 295   0.0000       5.640308       153.4806 
 296   0.0000       5.674509       154.4112 
 297   0.0000       5.792892       157.6326 
 298   0.0000       5.793504       157.6492 
 299   0.0000       5.868180       159.6813 
 300   0.0000       6.007835       163.4815 
 301   0.0000       6.099989       165.9891 
 302   0.0000       6.287926       171.1032 
 303   0.0000       6.308277       171.6570 
 304   0.0000       6.364122       173.1766 
 305   0.0000       6.409828       174.4203 
 306   0.0000       6.412220       174.4854 
 307   0.0000       6.439320       175.2228 
 308   0.0000       6.439860       175.2375 
 309   0.0000       6.480639       176.3471 
 310   0.0000       6.655451       181.1040 
 311   0.0000       6.669658       181.4906 
 312   0.0000       6.810897       185.3339 
 313   0.0000       6.859561       186.6582 
 314   0.0000       6.876105       187.1083 
 315   0.0000       6.900736       187.7786 
 316   0.0000       6.960121       189.3945 
 317   0.0000       7.117464       193.6760 
 318   0.0000       7.124372       193.8640 
 319   0.0000       7.178950       195.3492 
 320   0.0000       7.289446       198.3559 
 321   0.0000       7.408826       201.6044 
 322   0.0000       7.570293       205.9982 
 323   0.0000       7.639464       207.8804 
 324   0.0000      22.325891       607.5184 
 325   0.0000      22.693994       617.5350 
 326   0.0000      22.859817       622.0472 
 327   0.0000      22.902673       623.2134 
 328   0.0000      23.160251       630.2225 
 329   0.0000      23.530746       640.3041 
 330   0.0000      32.607670       887.2998 
 331   0.0000      44.056847      1198.8478 
 332   0.0000      44.176804      1202.1120 
 333   0.0000      44.239547      1203.8193 

                    ********************************
                    * MULLIKEN POPULATION ANALYSIS *
                    ********************************

-----------------------
MULLIKEN ATOMIC CHARGES
-----------------------
   0 C :    0.102728
   1 C :   -0.216273
   2 C :   -0.215887
   3 H :    0.152787
   4 H :    0.152790
   5 C :   -0.249198
   6 C :   -0.249334
   7 H :    0.123290
   8 H :    0.123114
   9 C :    0.270939
  10 O :   -0.561023
  11 N :    0.445493
  12 O :   -0.439836
  13 O :   -0.439590
Sum of atomic charges:   -1.0000000

--------------------------------
MULLIKEN REDUCED ORBITAL CHARGES
--------------------------------
  0 C s       :     3.032789  s :     3.032789
      pz      :     0.746379  p :     2.717767
      px      :     1.110835
      py      :     0.860553
      dz2     :     0.038956  d :     0.134243
      dxz     :     0.021936
      dyz     :     0.030506
      dx2y2   :     0.017521
      dxy     :     0.025325
      f0      :     0.002436  f :     0.012473
      f+1     :     0.001663
      f-1     :     0.004058
      f+2     :     0.000984
      f-2     :     0.001137
      f+3     :     0.001293
      f-3     :     0.000902
  1 C s       :     3.238956  s :     3.238956
      pz      :     0.956788  p :     2.863626
      px      :     0.932339
      py      :     0.974499
      dz2     :     0.022886  d :     0.106286
      dxz     :     0.024519
      dyz     :     0.037593
      dx2y2   :     0.008771
      dxy     :     0.012516
      f0      :     0.000694  f :     0.007405
      f+1     :     0.001534
      f-1     :     0.002197
      f+2     :     0.000807
      f-2     :     0.000506
      f+3     :     0.001012
      f-3     :     0.000654
  2 C s       :     3.239261  s :     3.239261
      pz      :     0.951729  p :     2.862945
      px      :     0.932238
      py      :     0.978977
      dz2     :     0.024029  d :     0.106275
      dxz     :     0.026016
      dyz     :     0.036287
      dx2y2   :     0.008939
      dxy     :     0.011004
      f0      :     0.000752  f :     0.007406
      f+1     :     0.001510
      f-1     :     0.002167
      f+2     :     0.000776
      f-2     :     0.000643
      f+3     :     0.000900
      f-3     :     0.000659
  3 H s       :     0.824720  s :     0.824720
      pz      :     0.007344  p :     0.022494
      px      :     0.004339
      py      :     0.010810
  4 H s       :     0.824701  s :     0.824701
      pz      :     0.006718  p :     0.022509
      px      :     0.004338
      py      :     0.011452
  5 C s       :     3.231992  s :     3.231992
      pz      :     0.923113  p :     2.930826
      px      :     1.055016
      py      :     0.952698
      dz2     :     0.017701  d :     0.079372
      dxz     :     0.016307
      dyz     :     0.030957
      dx2y2   :     0.008324
      dxy     :     0.006083
      f0      :     0.000947  f :     0.007008
      f+1     :     0.001484
      f-1     :     0.002146
      f+2     :     0.000807
      f-2     :     0.000398
      f+3     :     0.000609
      f-3     :     0.000617
  6 C s       :     3.232127  s :     3.232127
      pz      :     0.925467  p :     2.930792
      px      :     1.054772
      py      :     0.950553
      dz2     :     0.017352  d :     0.079404
      dxz     :     0.015837
      dyz     :     0.031316
      dx2y2   :     0.008335
      dxy     :     0.006565
      f0      :     0.000868  f :     0.007011
      f+1     :     0.001468
      f-1     :     0.002203
      f+2     :     0.000828
      f-2     :     0.000349
      f+3     :     0.000675
      f-3     :     0.000621
  7 H s       :     0.854351  s :     0.854351
      pz      :     0.005588  p :     0.022360
      px      :     0.005315
      py      :     0.011456
  8 H s       :     0.854531  s :     0.854531
      pz      :     0.006169  p :     0.022355
      px      :     0.005311
      py      :     0.010876
  9 C s       :     2.965490  s :     2.965490
      pz      :     0.849877  p :     2.564269
      px      :     0.800780
      py      :     0.913613
      dz2     :     0.033819  d :     0.182184
      dxz     :     0.056319
      dyz     :     0.062156
      dx2y2   :     0.012584
      dxy     :     0.017307
      f0      :     0.002907  f :     0.017118
      f+1     :     0.003458
      f-1     :     0.007206
      f+2     :     0.000795
      f-2     :     0.001016
      f+3     :     0.001112
      f-3     :     0.000623
 10 O s       :     3.789934  s :     3.789934
      pz      :     1.364778  p :     4.741074
      px      :     1.528377
      py      :     1.847919
      dz2     :     0.011842  d :     0.028355
      dxz     :     0.009046
      dyz     :     0.007292
      dx2y2   :     0.000112
      dxy     :     0.000064
      f0      :     0.000640  f :     0.001660
      f+1     :     0.000525
      f-1     :     0.000472
      f+2     :     0.000009
      f-2     :     0.000007
      f+3     :     0.000003
      f-3     :     0.000003
 11 N s       :     3.225863  s :     3.225863
      pz      :     1.056858  p :     3.060948
      px      :     1.135585
      py      :     0.868505
      dz2     :     0.061154  d :     0.253251
      dxz     :     0.032092
      dyz     :     0.066787
      dx2y2   :     0.032321
      dxy     :     0.060896
      f0      :     0.000978  f :     0.014445
      f+1     :     0.000615
      f-1     :     0.005371
      f+2     :     0.001753
      f-2     :     0.002305
      f+3     :     0.001974
      f-3     :     0.001450
 12 O s       :     3.873640  s :     3.873640
      pz      :     1.715493  p :     4.522048
      px      :     1.518443
      py      :     1.288111
      dz2     :     0.004814  d :     0.040871
      dxz     :     0.002963
      dyz     :     0.013447
      dx2y2   :     0.010608
      dxy     :     0.009039
      f0      :     0.000390  f :     0.003277
      f+1     :     0.000007
      f-1     :     0.000603
      f+2     :     0.000844
      f-2     :     0.000415
      f+3     :     0.000497
      f-3     :     0.000520
 13 O s       :     3.873501  s :     3.873501
      pz      :     1.672424  p :     4.521944
      px      :     1.518360
      py      :     1.331160
      dz2     :     0.004988  d :     0.040868
      dxz     :     0.003662
      dyz     :     0.014367
      dx2y2   :     0.009513
      dxy     :     0.008337
      f0      :     0.000380  f :     0.003277
      f+1     :     0.000011
      f-1     :     0.000660
      f+2     :     0.000883
      f-2     :     0.000487
      f+3     :     0.000421
      f-3     :     0.000433


                     *******************************
                     * LOEWDIN POPULATION ANALYSIS *
                     *******************************

----------------------
LOEWDIN ATOMIC CHARGES
----------------------
   0 C :   -0.239478
   1 C :   -0.129192
   2 C :   -0.129207
   3 H :    0.156216
   4 H :    0.156215
   5 C :   -0.156004
   6 C :   -0.156016
   7 H :    0.145936
   8 H :    0.145939
   9 C :   -0.398951
  10 O :   -0.093961
  11 N :   -0.036921
  12 O :   -0.132297
  13 O :   -0.132279

-------------------------------
LOEWDIN REDUCED ORBITAL CHARGES
-------------------------------
  0 C s       :     2.707095  s :     2.707095
      pz      :     0.855151  p :     2.905002
      px      :     0.987984
      py      :     1.061866
      dz2     :     0.181262  d :     0.557515
      dxz     :     0.067702
      dyz     :     0.154003
      dx2y2   :     0.072723
      dxy     :     0.081826
      f0      :     0.014798  f :     0.069865
      f+1     :     0.008217
      f-1     :     0.023767
      f+2     :     0.006169
      f-2     :     0.007589
      f+3     :     0.003797
      f-3     :     0.005528
  1 C s       :     2.762077  s :     2.762077
      pz      :     1.063168  p :     2.916148
      px      :     0.855875
      py      :     0.997105
      dz2     :     0.089499  d :     0.406366
      dxz     :     0.079163
      dyz     :     0.155582
      dx2y2   :     0.041341
      dxy     :     0.040781
      f0      :     0.007640  f :     0.044602
      f+1     :     0.006628
      f-1     :     0.014291
      f+2     :     0.004572
      f-2     :     0.003470
      f+3     :     0.004256
      f-3     :     0.003745
  2 C s       :     2.762061  s :     2.762061
      pz      :     1.064842  p :     2.916125
      px      :     0.855822
      py      :     0.995461
      dz2     :     0.093418  d :     0.406407
      dxz     :     0.084660
      dyz     :     0.151627
      dx2y2   :     0.041469
      dxy     :     0.035233
      f0      :     0.007701  f :     0.044613
      f+1     :     0.006259
      f-1     :     0.014433
      f+2     :     0.004580
      f-2     :     0.004467
      f+3     :     0.003629
      f-3     :     0.003545
  3 H s       :     0.781991  s :     0.781991
      pz      :     0.019818  p :     0.061793
      px      :     0.012570
      py      :     0.029405
  4 H s       :     0.781952  s :     0.781952
      pz      :     0.018283  p :     0.061833
      px      :     0.012568
      py      :     0.030983
  5 C s       :     2.774269  s :     2.774269
      pz      :     1.054612  p :     2.983787
      px      :     0.942212
      py      :     0.986963
      dz2     :     0.096039  d :     0.358264
      dxz     :     0.053230
      dyz     :     0.148204
      dx2y2   :     0.041921
      dxy     :     0.018870
      f0      :     0.007877  f :     0.039684
      f+1     :     0.005618
      f-1     :     0.014007
      f+2     :     0.004474
      f-2     :     0.002582
      f+3     :     0.001830
      f-3     :     0.003296
  6 C s       :     2.774229  s :     2.774229
      pz      :     1.052441  p :     2.983677
      px      :     0.941993
      py      :     0.989243
      dz2     :     0.091216  d :     0.358404
      dxz     :     0.050739
      dyz     :     0.153445
      dx2y2   :     0.041614
      dxy     :     0.021390
      f0      :     0.007631  f :     0.039705
      f+1     :     0.005695
      f-1     :     0.014136
      f+2     :     0.004429
      f-2     :     0.002173
      f+3     :     0.002167
      f-3     :     0.003473
  7 H s       :     0.793146  s :     0.793146
      pz      :     0.015608  p :     0.060918
      px      :     0.014905
      py      :     0.030405
  8 H s       :     0.793156  s :     0.793156
      pz      :     0.017023  p :     0.060905
      px      :     0.014895
      py      :     0.028987
  9 C s       :     2.734663  s :     2.734663
      pz      :     0.953559  p :     2.757773
      px      :     0.762145
      py      :     1.042068
      dz2     :     0.205521  d :     0.797569
      dxz     :     0.170623
      dyz     :     0.298728
      dx2y2   :     0.060215
      dxy     :     0.062481
      f0      :     0.020997  f :     0.108947
      f+1     :     0.020378
      f-1     :     0.045535
      f+2     :     0.005491
      f-2     :     0.006529
      f+3     :     0.005051
      f-3     :     0.004965
 10 O s       :     3.419482  s :     3.419482
      pz      :     1.477113  p :     4.605761
      px      :     1.435002
      py      :     1.693645
      dz2     :     0.028420  d :     0.063440
      dxz     :     0.013933
      dyz     :     0.020885
      dx2y2   :     0.000131
      dxy     :     0.000071
      f0      :     0.002253  f :     0.005278
      f+1     :     0.001124
      f-1     :     0.001863
      f+2     :     0.000015
      f-2     :     0.000016
      f+3     :     0.000002
      f-3     :     0.000004
 11 N s       :     2.912975  s :     2.912975
      pz      :     1.159718  p :     3.278909
      px      :     1.032095
      py      :     1.087095
      dz2     :     0.180168  d :     0.771615
      dxz     :     0.084762
      dyz     :     0.223881
      dx2y2   :     0.131080
      dxy     :     0.151724
      f0      :     0.004411  f :     0.073423
      f+1     :     0.002283
      f-1     :     0.030122
      f+2     :     0.009187
      f-2     :     0.012935
      f+3     :     0.006334
      f-3     :     0.008150
 12 O s       :     3.503216  s :     3.503216
      pz      :     1.653310  p :     4.521821
      px      :     1.469979
      py      :     1.398532
      dz2     :     0.012200  d :     0.096660
      dxz     :     0.005307
      dyz     :     0.033737
      dx2y2   :     0.027282
      dxy     :     0.018134
      f0      :     0.001157  f :     0.010600
      f+1     :     0.000011
      f-1     :     0.002138
      f+2     :     0.002796
      f-2     :     0.001083
      f+3     :     0.001515
      f-3     :     0.001899
 13 O s       :     3.503361  s :     3.503361
      pz      :     1.625250  p :     4.521688
      px      :     1.469899
      py      :     1.426539
      dz2     :     0.012818  d :     0.096633
      dxz     :     0.006669
      dyz     :     0.035852
      dx2y2   :     0.024531
      dxy     :     0.016763
      f0      :     0.001154  f :     0.010597
      f+1     :     0.000031
      f-1     :     0.002324
      f+2     :     0.002909
      f-2     :     0.001280
      f+3     :     0.001297
      f-3     :     0.001602


                      *****************************
                      * MAYER POPULATION ANALYSIS *
                      *****************************

  NA   - Mulliken gross atomic population
  ZA   - Total nuclear charge
  QA   - Mulliken gross atomic charge
  VA   - Mayer's total valence
  BVA  - Mayer's bonded valence
  FA   - Mayer's free valence

  ATOM       NA         ZA         QA         VA         BVA        FA
  0 C      5.8973     6.0000     0.1027     3.7074     3.7074    -0.0000
  1 C      6.2163     6.0000    -0.2163     3.9455     3.9455     0.0000
  2 C      6.2159     6.0000    -0.2159     3.9443     3.9443     0.0000
  3 H      0.8472     1.0000     0.1528     0.9983     0.9983    -0.0000
  4 H      0.8472     1.0000     0.1528     0.9984     0.9984    -0.0000
  5 C      6.2492     6.0000    -0.2492     3.7376     3.7376    -0.0000
  6 C      6.2493     6.0000    -0.2493     3.7382     3.7382     0.0000
  7 H      0.8767     1.0000     0.1233     0.9876     0.9876    -0.0000
  8 H      0.8769     1.0000     0.1231     0.9877     0.9877     0.0000
  9 C      5.7291     6.0000     0.2709     4.1971     4.1971     0.0000
 10 O      8.5610     8.0000    -0.5610     1.9338     1.9338    -0.0000
 11 N      6.5545     7.0000     0.4455     4.2494     4.2494    -0.0000
 12 O      8.4398     8.0000    -0.4398     1.8175     1.8175    -0.0000
 13 O      8.4396     8.0000    -0.4396     1.8181     1.8181    -0.0000

  Mayer bond orders larger than 0.100000
B(  0-C ,  1-C ) :   1.2549 B(  0-C ,  2-C ) :   1.2537 B(  0-C , 11-N ) :   1.1642 
B(  1-C ,  3-H ) :   0.9354 B(  1-C ,  5-C ) :   1.5354 B(  2-C ,  4-H ) :   0.9354 
B(  2-C ,  6-C ) :   1.5360 B(  5-C ,  7-H ) :   0.9782 B(  5-C ,  9-C ) :   1.1555 
B(  6-C ,  8-H ) :   0.9782 B(  6-C ,  9-C ) :   1.1553 B(  9-C , 10-O ) :   1.7686 
B( 11-N , 12-O ) :   1.5166 B( 11-N , 13-O ) :   1.5174 B( 12-O , 13-O ) :   0.1187 


-------
TIMINGS
-------

Total SCF time: 0 days 0 hours 0 min 28 sec 

Total time                  ....      28.298 sec
Sum of individual times     ....      27.014 sec  ( 95.5%)

Fock matrix formation       ....      24.580 sec  ( 86.9%)
  Split-RI-J                ....       2.579 sec  ( 10.5% of F)
  Chain of spheres X        ....      11.639 sec  ( 47.4% of F)
  XC integration            ....       4.925 sec  ( 20.0% of F)
    Basis function eval.    ....       0.427 sec  (  8.7% of XC)
    Density eval.           ....       0.424 sec  (  8.6% of XC)
    XC-Functional eval.     ....       0.075 sec  (  1.5% of XC)
    XC-Potential eval.      ....       0.467 sec  (  9.5% of XC)
Diagonalization             ....       0.373 sec  (  1.3%)
Density matrix formation    ....       0.035 sec  (  0.1%)
Population analysis         ....       0.081 sec  (  0.3%)
Initial guess               ....       0.222 sec  (  0.8%)
Orbital Transformation      ....       0.000 sec  (  0.0%)
Orbital Orthonormalization  ....       0.000 sec  (  0.0%)
DIIS solution               ....       0.228 sec  (  0.8%)
SOSCF solution              ....       0.341 sec  (  1.2%)
Grid generation             ....       1.154 sec  (  4.1%)

Maximum memory used throughout the entire SCF-calculation: 79.0 MB


-------------------------------------------------------------------------------
                          DFT DISPERSION CORRECTION                            
                                                                               
                              DFTD3 V3.1  Rev 1                                
                          USING Becke-Johnson damping                          
-------------------------------------------------------------------------------
The PBE0 functional is recognized
Active option DFTDOPT                   ...         4   

molecular C6(AA) [au] = 2663.592782 


            DFT-D V3
 parameters
 s6 scaling factor         :     1.0000 
 a1 scaling factor         :     0.4145 
 s8 scaling factor         :     1.2177 
 a2 scaling factor         :     4.8593 
 ad hoc parameters k1-k3   :    16.0000     1.3333    -4.0000 

 Edisp/kcal,au: -8.194930572410  -0.013059451748 
 E6   /kcal   :  -5.076395773 
 E8   /kcal   :  -3.118534800 
 % E8         :  38.054438317 

-------------------------   ----------------
Dispersion correction           -0.013059452
-------------------------   ----------------


-------------------------   --------------------
FINAL SINGLE POINT ENERGY      -511.178370262240
-------------------------   --------------------



           ************************************************************
           *        Program running with 24 parallel MPI-processes    *
           *              working on a common directory               *
           ************************************************************
------------------------------------------------------------------------------
                         ORCA SCF GRADIENT CALCULATION
------------------------------------------------------------------------------

 ... reading COSX grid (gridx3)
Gradient of the Kohn-Sham DFT energy:
Kohn-Sham wavefunction type      ... RKS
Hartree-Fock exchange scaling    ...    0.250
Number of operators              ...    1
Number of atoms                  ...   14
Basis set dimensions             ...  334
Integral neglect threshold       ... 2.5e-11
Integral primitive cutoff        ... 2.5e-12
SHARK Integral package           ... ON

Nuc. rep. gradient       (SHARK) ... done (  0.0 sec)
HCore & Overlap gradient (SHARK) ... done (  0.0 sec)
RI-J gradient            (SHARK) ... done (  0.4 sec)
COSX-gradient                    ... done (  2.0 sec)
Exchange-correlation gradient    ... done
Dispersion correction            ... done

------------------
CARTESIAN GRADIENT
------------------

   1   C   :    0.000004954    0.000082578    0.000485245
   2   C   :    0.000008161   -0.000150222   -0.000338460
   3   C   :    0.000007250    0.000041350   -0.000280939
   4   H   :   -0.000002206    0.000110657    0.000117886
   5   H   :   -0.000001572   -0.000070715    0.000067384
   6   C   :    0.000004636   -0.000252307    0.000114427
   7   C   :    0.000006711    0.000208792   -0.000141489
   8   H   :   -0.000003471    0.000116725   -0.000135466
   9   H   :   -0.000003675   -0.000091091   -0.000057911
  10   C   :   -0.000032340   -0.000014839   -0.000083998
  11   O   :    0.000003666   -0.000019062    0.000020380
  12   N   :   -0.000041174    0.000033333   -0.000027917
  13   O   :    0.000020593    0.000109059    0.000067569
  14   O   :    0.000021485   -0.000069238    0.000090884

Difference to translation invariance:
           :   -0.0000069816    0.0000350228   -0.0001024071

Difference to rotation invariance:
           :    0.0011460881   -0.0001707851    0.0000102347

Norm of the cartesian gradient     ...    0.0008503286
RMS gradient                       ...    0.0001312085
MAX gradient                       ...    0.0004852454

-------
TIMINGS
-------

Total SCF gradient time            ...        4.645 sec

One electron gradient       ....       0.043 sec  (  0.9%)
RI-J Coulomb gradient       ....       0.420 sec  (  9.0%)
COSX gradient               ....       2.039 sec  ( 43.9%)
XC gradient                 ....       0.815 sec  ( 17.5%)
CPCM gradient               ....       0.192 sec  (  4.1%)
   A-Matrix (El+Nuc)        ....       0.058 sec  (  1.2%)
   Potential                ....       0.134 sec  (  2.9%)

Maximum memory used throughout the entire SCFGRAD-calculation: 52.1 MB
------------------------------------------------------------------------------
                         ORCA GEOMETRY RELAXATION STEP
------------------------------------------------------------------------------

Reading the OPT-File                    .... done
Getting information on internals        .... done
Copying old internal coords+grads       .... done
Making the new internal coordinates     .... (new redundants).... done
Validating the new internal coordinates .... (new redundants).... done
[...]
     10      -0.371848   0.000336   0.253916  -0.318299  -0.012479   0.186633
     11      -0.178650   0.006650   0.489260  -0.468376  -0.050758   0.299550
     12       0.002017   0.614530   0.004542   0.005700   0.000676   0.003259
     13       0.357783   0.001277   0.183487   0.312227   0.012008   0.169532
     14      -0.199040   0.006493  -0.438563  -0.548274  -0.059505  -0.313174
     15      -0.000771   0.056398   0.000457  -0.000115  -0.000876   0.000204
     16       0.162637   0.000264  -0.046843  -0.034833   0.076591  -0.030407
     17       0.014273   0.000597  -0.039395   0.015881   0.072727  -0.015004
     18      -0.000018   0.060488  -0.000384  -0.000235  -0.000775  -0.000160
     19      -0.161353  -0.000170  -0.048939   0.028685  -0.073073  -0.030264
     20       0.024410   0.000726   0.039079   0.018499   0.078286   0.015660
     21       0.005962  -0.344645   0.005265  -0.002971  -0.006702  -0.005267
     22       0.358928   0.000137   0.175852  -0.172179  -0.200059  -0.310789
     23      -0.352097  -0.004571  -0.467218   0.270343   0.610143   0.504599
     24       0.003537  -0.369065  -0.004846  -0.003822  -0.007156   0.005728
     25      -0.381212  -0.000845   0.177158   0.218137   0.242516  -0.339560
     26      -0.328130  -0.004543   0.412443   0.322165   0.603372  -0.476852
     27      -0.000066   0.002479  -0.000078   0.000245   0.000134  -0.000139
     28      -0.000049   0.000033   0.069399   0.003834   0.000875   0.208239
     29       0.007730   0.000056  -0.000649  -0.023922  -0.012693  -0.006923
     30       0.000409   0.001724   0.000029  -0.000259  -0.000185   0.000013
     31      -0.001120  -0.000008  -0.010035   0.000173   0.000344  -0.027231
     32      -0.035382  -0.000008  -0.000856   0.022229   0.015135   0.001414
     33      -0.000052  -0.028856  -0.000039   0.000480   0.000543  -0.000012
     34       0.000394  -0.000036   0.003853  -0.000927  -0.001180   0.000456
     35       0.011498  -0.000266   0.003185  -0.044616  -0.050338   0.001302
     36      -0.000062   0.005803   0.000048   0.000125  -0.000926  -0.000032
     37       0.019662   0.000013  -0.004961  -0.033036   0.125167   0.002431
     38       0.001902   0.000056  -0.004161  -0.007428   0.072823   0.002572
     39      -0.000022   0.005867  -0.000034   0.000059  -0.000740   0.000040
     40      -0.019584   0.000003  -0.007644   0.031196  -0.120423   0.003650
     41       0.003130   0.000072   0.005383  -0.009363   0.081375  -0.003697
                 30         31         32         33         34         35    
      0       0.002946   0.000146   0.001446   0.000107   0.000011   0.000377
      1      -0.014205  -0.273744  -0.007388  -0.147112  -0.026735  -0.502686
      2      -0.270230   0.013278  -0.129301   0.004228   0.001791   0.014665
      3      -0.000121   0.000116  -0.000338   0.000655   0.003723  -0.001681
      4      -0.019840   0.036521   0.111646   0.112519  -0.045450   0.269633
      5       0.016055  -0.012292   0.018075  -0.070431  -0.331151   0.125888
      6      -0.000137  -0.000126  -0.000176  -0.000810  -0.003642   0.001260
      7       0.022858   0.040019  -0.109736   0.116574  -0.022001   0.259866
      8       0.013232   0.007563   0.026442   0.060895   0.330064  -0.139614
      9       0.001917  -0.006254   0.005416   0.001575  -0.002317   0.003619
     10      -0.140491   0.368886  -0.170163   0.066616   0.317523   0.017226
     11      -0.169835   0.501572  -0.456127  -0.157453   0.185098  -0.316955
     12       0.001930   0.005420   0.005190  -0.001621   0.001802  -0.003563
     13       0.138495   0.333491   0.150981   0.076516   0.301348   0.038228
     14      -0.193901  -0.516888  -0.482735   0.150473  -0.199636   0.315270
     15       0.000341   0.000549  -0.001296  -0.002166  -0.003626  -0.000344
     16       0.017928   0.142358  -0.087158  -0.123182  -0.007323  -0.155892
     17      -0.034935  -0.061482   0.123853   0.204891   0.324140   0.045793
     18       0.000338  -0.000721  -0.001438   0.002330   0.003635   0.000579
     19      -0.012688   0.143557   0.096774  -0.136076  -0.028908  -0.158421
     20      -0.030942   0.050050   0.118131  -0.194402  -0.320854  -0.036470
     21      -0.004095  -0.001847   0.004227   0.003541   0.001832   0.003433
     22      -0.206750   0.041516   0.192311   0.164390   0.299503   0.023370
     23       0.389391   0.153791  -0.391115  -0.322079  -0.189371  -0.305501
     24      -0.004506   0.001760   0.004627  -0.003842  -0.002314  -0.003511
     25       0.240290   0.034979  -0.219736   0.185050   0.311210   0.043104
     26       0.377941  -0.148171  -0.383877   0.312015   0.171681   0.300452
     27      -0.001362   0.000173  -0.001404  -0.000104   0.000064  -0.000094
     28      -0.003390  -0.230583   0.003248   0.155236  -0.063081   0.221967
     29       0.126890   0.005309   0.119766  -0.004820   0.000716  -0.012218
     30       0.000388  -0.000033   0.001494   0.000004  -0.000034  -0.000021
     31      -0.000397   0.017774  -0.004072   0.001622   0.035681  -0.021899
     32      -0.036275   0.001304  -0.128357  -0.000373  -0.000475   0.003842
     33      -0.005818   0.000085   0.000127   0.000474  -0.000158  -0.000214
     34       0.017540  -0.037787   0.000208  -0.576816   0.187798   0.258475
     35       0.539534  -0.003535  -0.011798   0.020525  -0.005346  -0.008159
     36       0.001889  -0.000420  -0.000228  -0.001597   0.000417   0.000310
     37      -0.178346   0.038897   0.024713   0.249043  -0.067869  -0.082327
     38      -0.156955   0.034206   0.018855   0.119818  -0.031370  -0.019184
     39       0.001612   0.000332  -0.000195   0.001191  -0.000306  -0.000173
     40       0.168408   0.033848  -0.023430   0.239845  -0.064431  -0.080552
     41      -0.169477  -0.033625   0.019882  -0.136610   0.035023   0.024378
                 36         37         38         39         40         41    
      0      -0.002141   0.000979  -0.000000   0.000004  -0.000020   0.000025
      1       0.003103  -0.003069  -0.000722  -0.000128   0.002760   0.001848
      2       0.194577  -0.087634   0.000091  -0.000393   0.001560  -0.002353
      3       0.001992  -0.003656  -0.000043   0.000038  -0.000446   0.000067
      4      -0.087191   0.085079  -0.012067   0.011640  -0.070556   0.011724
      5      -0.171595   0.319856   0.004903  -0.004373   0.045935  -0.006962
      6       0.001897  -0.003597   0.000043   0.000063   0.000099   0.000555
      7       0.079686  -0.064112  -0.008569  -0.013620  -0.012116  -0.073552
      8      -0.179400   0.328288  -0.002798  -0.003959  -0.007389  -0.041053
      9      -0.003592   0.002723   0.000844  -0.000786   0.004948  -0.000787
     10       0.210379  -0.270409   0.142257  -0.132461   0.809068  -0.130127
     11       0.298208  -0.219671  -0.087670   0.081856  -0.513182   0.081979
     12      -0.003352   0.002349  -0.000749  -0.001144  -0.001062  -0.006221
     13      -0.192461   0.259572   0.103904   0.158748   0.142718   0.842143
     14       0.319834  -0.239963   0.054941   0.084199   0.078580   0.460468
     15       0.000032   0.003701  -0.000428   0.000328   0.000167  -0.000035
     16       0.046336   0.024230   0.058442  -0.045222  -0.016635   0.004333
     17      -0.005587  -0.332157   0.031827  -0.024345  -0.013066   0.002697
     18       0.000114   0.003805   0.000275   0.000344  -0.000017  -0.000141
     19      -0.049386  -0.046531   0.044205   0.055957  -0.000851  -0.015282
     20      -0.003075  -0.333679  -0.028097  -0.035217   0.001552   0.013718
     21      -0.003529  -0.001828   0.004869  -0.003755  -0.001397   0.000347
     22      -0.096030  -0.275281  -0.676486   0.524850   0.191513  -0.047915
     23       0.330186   0.188986  -0.360613   0.278246   0.104069  -0.025664
     24      -0.003827  -0.002276  -0.003110  -0.003919   0.000079   0.001097
     25       0.117950   0.291143  -0.511770  -0.649453   0.012306   0.178062
     26       0.328002   0.173078   0.318141   0.401716  -0.008184  -0.112546
     27      -0.006011  -0.002465  -0.000003   0.000040   0.000012  -0.000018
     28       0.018733   0.006958  -0.002478  -0.000435   0.000926   0.000714
     29       0.520217   0.218987   0.000505  -0.003528  -0.001140   0.001472
     30       0.003586   0.000542   0.000001  -0.000010  -0.000004   0.000005
     31      -0.010125  -0.001297   0.000151   0.000044  -0.000084  -0.000093
     32      -0.308327  -0.047427  -0.000105   0.000812   0.000353  -0.000472
     33       0.000611   0.001363   0.000000  -0.000001  -0.000005   0.000009
     34       0.000321  -0.004340  -0.000294  -0.000016  -0.001313  -0.000971
     35      -0.057681  -0.126894   0.000005   0.000116   0.000590  -0.000714
     36      -0.000062  -0.000474   0.000000   0.000001   0.000003  -0.000001
     37       0.000755   0.047745   0.000134   0.000048   0.000091   0.000717
     38       0.005516   0.038149  -0.000073  -0.000167  -0.000332  -0.000248
     39      -0.000067  -0.000396  -0.000001   0.000001  -0.000002  -0.000002
     40      -0.001890  -0.044884   0.000163  -0.000034   0.000761  -0.000121
     41       0.006290   0.041191   0.000085  -0.000135   0.000194   0.000261


-----------
IR SPECTRUM
-----------

 Mode   freq       eps      Int      T**2         TX        TY        TZ
       cm**-1   L/(mol*cm) km/mol    a.u.
----------------------------------------------------------------------------
  6:     88.31   0.000022    0.11  0.000078  (-0.008828  0.000157 -0.000040)
  7:    100.88   0.003408   17.22  0.010541  (-0.102664 -0.000149 -0.001036)
  8:    234.68   0.002145   10.84  0.002853  (-0.000096  0.053413  0.000194)
  9:    261.22   0.000037    0.19  0.000045  (-0.006691 -0.000087 -0.000022)
 10:    372.04   0.004191   21.18  0.003515  (-0.000717  0.003015  0.059206)
 11:    426.71   0.000000    0.00  0.000000  ( 0.000098 -0.000081  0.000113)
 12:    450.32   0.003076   15.55  0.002132  ( 0.000119 -0.046081  0.002899)
 13:    485.95   0.004017   20.30  0.002580  (-0.050785 -0.000156 -0.000866)
 14:    553.63   0.000737    3.72  0.000415  ( 0.000020  0.020234 -0.002422)
 15:    634.29   0.000448    2.26  0.000220  ( 0.000037 -0.014727 -0.001836)
 16:    652.24   0.026822  135.55  0.012833  (-0.001263  0.003298  0.113229)
 17:    730.96   0.005252   26.54  0.002242  ( 0.047346  0.000073  0.000719)
 18:    798.36   0.000000    0.00  0.000000  (-0.000096  0.000013  0.000006)
 19:    801.80   0.005154   26.05  0.002006  ( 0.044786  0.000064  0.000432)
 20:    829.20   0.000367    1.85  0.000138  (-0.000168  0.000735  0.011725)
 21:    867.46   0.004162   21.03  0.001497  (-0.000530  0.001261  0.038670)
 22:    872.02   0.018666   94.33  0.006680  ( 0.081726  0.000091  0.000809)
 23:    988.74   0.000000    0.00  0.000000  ( 0.000303 -0.000022  0.000138)
 24:    993.80   0.001924    9.72  0.000604  (-0.000351  0.000545  0.024572)
 25:    996.30   0.000305    1.54  0.000096  ( 0.009778  0.000048  0.000228)
 26:   1107.08   0.008764   44.29  0.002470  (-0.000201  0.048176  0.012224)
 27:   1133.11   0.143727  726.34  0.039583  ( 0.002220 -0.002980 -0.198920)
 28:   1205.07   0.011275   56.98  0.002920  ( 0.000574 -0.001090 -0.054022)
 29:   1276.69   0.000767    3.88  0.000188  (-0.000041  0.013629  0.001334)
 30:   1326.57   0.870153  4397.40  0.204695  (-0.005049  0.014825  0.452161)
 31:   1341.50   0.002769   13.99  0.000644  ( 0.000097 -0.024542 -0.006466)
 32:   1428.92   0.027491  138.93  0.006004  (-0.000886  0.002698  0.077432)
 33:   1485.13   0.081662  412.69  0.017159  ( 0.000095 -0.130918  0.004450)
 34:   1530.79   0.005107   25.81  0.001041  (-0.000022  0.032197 -0.002129)
 35:   1580.09   0.049679  251.06  0.009811  (-0.000061  0.098966 -0.004144)
 36:   1587.82   0.082472  416.78  0.016209  (-0.001509  0.004864  0.127212)
 37:   1650.09   0.125063  632.02  0.023652  (-0.001758  0.005081  0.153697)
 38:   3186.56   0.003316   16.76  0.000325  (-0.000039  0.017921  0.001878)
 39:   3187.20   0.004504   22.76  0.000441  ( 0.000240  0.001588 -0.020938)
 40:   3221.65   0.000843    4.26  0.000082  ( 0.000057 -0.007308 -0.005315)
 41:   3224.03   0.000844    4.26  0.000082  (-0.000073 -0.004726  0.007702)

* The epsilon (eps) is given for a Dirac delta lineshape.
** The dipole moment derivative (T) already includes vibrational overlap.

The first frequency considered to be a vibration is 6
The total number of vibrations considered is 36


--------------------------
THERMOCHEMISTRY AT 298.15K
--------------------------

Temperature         ... 298.15 K
Pressure            ... 1.00 atm
Total Mass          ... 138.10 AMU

Throughout the following assumptions are being made:
  (1) The electronic state is orbitally nondegenerate
  (2) There are no thermally accessible electronically excited states
  (3) Hindered rotations indicated by low frequency modes are not
      treated as such but are treated as vibrations and this may
      cause some error
  (4) All equations used are the standard statistical mechanics
      equations for an ideal gas
  (5) All vibrations are strictly harmonic

freq.      88.31  E(vib)   ...       0.48 
freq.     100.88  E(vib)   ...       0.46 
freq.     234.68  E(vib)   ...       0.32 
freq.     261.22  E(vib)   ...       0.30 
freq.     372.04  E(vib)   ...       0.21 
freq.     426.71  E(vib)   ...       0.18 
freq.     450.32  E(vib)   ...       0.17 
freq.     485.95  E(vib)   ...       0.15 
freq.     553.63  E(vib)   ...       0.12 
freq.     634.29  E(vib)   ...       0.09 
freq.     652.24  E(vib)   ...       0.08 
freq.     730.96  E(vib)   ...       0.06 
freq.     798.36  E(vib)   ...       0.05 
freq.     801.80  E(vib)   ...       0.05 
freq.     829.20  E(vib)   ...       0.04 
freq.     867.46  E(vib)   ...       0.04 
freq.     872.02  E(vib)   ...       0.04 
freq.     988.74  E(vib)   ...       0.02 
freq.     993.80  E(vib)   ...       0.02 
freq.     996.30  E(vib)   ...       0.02 
freq.    1107.08  E(vib)   ...       0.02 
freq.    1133.11  E(vib)   ...       0.01 
freq.    1205.07  E(vib)   ...       0.01 
freq.    1276.69  E(vib)   ...       0.01 
freq.    1326.57  E(vib)   ...       0.01 
freq.    1341.50  E(vib)   ...       0.01 
freq.    1428.92  E(vib)   ...       0.00 
freq.    1485.13  E(vib)   ...       0.00 
freq.    1530.79  E(vib)   ...       0.00 
freq.    1580.09  E(vib)   ...       0.00 
freq.    1587.82  E(vib)   ...       0.00 
freq.    1650.09  E(vib)   ...       0.00 
freq.    3186.56  E(vib)   ...       0.00 
freq.    3187.20  E(vib)   ...       0.00 
freq.    3221.65  E(vib)   ...       0.00 
freq.    3224.03  E(vib)   ...       0.00 

------------
INNER ENERGY
------------

The inner energy is: U= E(el) + E(ZPE) + E(vib) + E(rot) + E(trans)
    E(el)   - is the total energy from the electronic structure calculation
              = E(kin-el) + E(nuc-el) + E(el-el) + E(nuc-nuc)
    E(ZPE)  - the the zero temperature vibrational energy from the frequency calculation
    E(vib)  - the the finite temperature correction to E(ZPE) due to population
              of excited vibrational states
    E(rot)  - is the rotational thermal energy
    E(trans)- is the translational thermal energy

Summary of contributions to the inner energy U:
Electronic energy                ...   -511.17837141 Eh
Zero point energy                ...      0.09479728 Eh      59.49 kcal/mol
Thermal vibrational correction   ...      0.00473524 Eh       2.97 kcal/mol
Thermal rotational correction    ...      0.00141627 Eh       0.89 kcal/mol
Thermal translational correction ...      0.00141627 Eh       0.89 kcal/mol
-----------------------------------------------------------------------
Total thermal energy                   -511.07600634 Eh


Summary of corrections to the electronic energy:
(perhaps to be used in another calculation)
Total thermal correction                  0.00756779 Eh       4.75 kcal/mol
Non-thermal (ZPE) correction              0.09479728 Eh      59.49 kcal/mol
-----------------------------------------------------------------------
Total correction                          0.10236507 Eh      64.23 kcal/mol


--------
ENTHALPY
--------

The enthalpy is H = U + kB*T
                kB is Boltzmann's constant
Total free energy                 ...   -511.07600634 Eh 
Thermal Enthalpy correction       ...      0.00094421 Eh       0.59 kcal/mol
-----------------------------------------------------------------------
Total Enthalpy                    ...   -511.07506213 Eh


Note: Only C1 symmetry has been detected, increase convergence thresholds 
      if your molecule has a higher symmetry. Symmetry factor of 1.0 is   
      used for the rotational entropy correction. 
 

Note: Rotational entropy computed according to Herzberg 
Infrared and Raman Spectra, Chapter V,1, Van Nostrand Reinhold, 1945 
Point Group:  C1, Symmetry Number:   1  
Rotational constants in cm-1:     0.132803     0.028346     0.023360 

Vibrational entropy computed according to the QRRHO of S. Grimme
Chem.Eur.J. 2012 18 9955


-------
ENTROPY
-------

The entropy contributions are T*S = T*(S(el)+S(vib)+S(rot)+S(trans))
     S(el)   - electronic entropy
     S(vib)  - vibrational entropy
     S(rot)  - rotational entropy
     S(trans)- translational entropy
The entropies will be listed as multiplied by the temperature to get
units of energy

Electronic entropy                ...      0.00000000 Eh      0.00 kcal/mol
Vibrational entropy               ...      0.00779769 Eh      4.89 kcal/mol
Rotational entropy                ...      0.01391961 Eh      8.73 kcal/mol
Translational entropy             ...      0.01932845 Eh     12.13 kcal/mol
-----------------------------------------------------------------------
Final entropy term                ...      0.04104575 Eh     25.76 kcal/mol

In case the symmetry of your molecule has not been determined correctly
or in case you have a reason to use a different symmetry number we print 
out the resulting rotational entropy values for sn=1,12 :
 --------------------------------------------------------
|  sn= 1 | S(rot)=       0.01391961 Eh      8.73 kcal/mol|
|  sn= 2 | S(rot)=       0.01326516 Eh      8.32 kcal/mol|
|  sn= 3 | S(rot)=       0.01288233 Eh      8.08 kcal/mol|
|  sn= 4 | S(rot)=       0.01261070 Eh      7.91 kcal/mol|
|  sn= 5 | S(rot)=       0.01240001 Eh      7.78 kcal/mol|
|  sn= 6 | S(rot)=       0.01222787 Eh      7.67 kcal/mol|
|  sn= 7 | S(rot)=       0.01208232 Eh      7.58 kcal/mol|
|  sn= 8 | S(rot)=       0.01195624 Eh      7.50 kcal/mol|
|  sn= 9 | S(rot)=       0.01184504 Eh      7.43 kcal/mol|
|  sn=10 | S(rot)=       0.01174556 Eh      7.37 kcal/mol|
|  sn=11 | S(rot)=       0.01165557 Eh      7.31 kcal/mol|
|  sn=12 | S(rot)=       0.01157341 Eh      7.26 kcal/mol|
 --------------------------------------------------------


-------------------
GIBBS FREE ENERGY
-------------------

The Gibbs free energy is G = H - T*S

Total enthalpy                    ...   -511.07506213 Eh 
Total entropy correction          ...     -0.04104575 Eh    -25.76 kcal/mol
-----------------------------------------------------------------------
Final Gibbs free energy         ...   -511.11610788 Eh

For completeness - the Gibbs free energy minus the electronic energy
G-E(el)                           ...      0.06226352 Eh     39.07 kcal/mol


Timings for individual modules:

Sum of individual times         ...      309.515 sec (=   5.159 min)
GTO integral calculation        ...        6.816 sec (=   0.114 min)   2.2 %
SCF iterations                  ...       91.712 sec (=   1.529 min)  29.6 %
SCF Gradient evaluation         ...       21.659 sec (=   0.361 min)   7.0 %
Geometry relaxation             ...        0.290 sec (=   0.005 min)   0.1 %
Analytical frequency calculation...      189.038 sec (=   3.151 min)  61.1 %
                             ****ORCA TERMINATED NORMALLY****
TOTAL RUN TIME: 0 days 0 hours 5 minutes 22 seconds 26 msec
