
                                 *****************
                                 * O   R   C   A *
                                 *****************

                                            #,                                       
                                            ###                                      
                                            ####                                     
                                            #####                                    
                                            ######                                   
                                           ########,                                 
                                     ,,################,,,,,                         
                               ,,#################################,,                 
                          ,,##########################################,,             
                       ,#########################################, ''#####,          
                    ,#############################################,,   '####,        
                  ,##################################################,,,,####,       
                ,###########''''           ''''###############################       
              ,#####''   ,,,,##########,,,,          '''####'''          '####       
            ,##' ,,,,###########################,,,                        '##       
           ' ,,###''''                  '''############,,,                           
         ,,##''                                '''############,,,,        ,,,,,,###''
      ,#''                                            '''#######################'''  
     '                                                          ''''####''''         
             ,#######,   #######,   ,#######,      ##                                
            ,#'     '#,  ##    ##  ,#'     '#,    #''#        ######   ,####,        
            ##       ##  ##   ,#'  ##            #'  '#       #        #'  '#        
            ##       ##  #######   ##           ,######,      #####,   #    #        
            '#,     ,#'  ##    ##  '#,     ,#' ,#      #,         ##   #,  ,#        
             '#######'   ##     ##  '#######'  #'      '#     #####' # '####'        



                  #######################################################
                  #                        -***-                        #
                  #          Department of theory and spectroscopy      #
                  #    Directorship and core code : Frank Neese         #
                  #        Max Planck Institute fuer Kohlenforschung    #
                  #                Kaiser Wilhelm Platz 1               #
                  #                 D-45470 Muelheim/Ruhr               #
                  #                      Germany                        #
                  #                                                     #
                  #                  All rights reserved                #
                  #                        -***-                        #
                  #######################################################


                         Program Version 5.0.4 -  RELEASE  -


 With contributions from (in alphabetic order):
   Daniel Aravena         : Magnetic Suceptibility
   Michael Atanasov       : Ab Initio Ligand Field Theory (pilot matlab implementation)
   Alexander A. Auer      : GIAO ZORA, VPT2 properties, NMR spectrum
   Ute Becker             : Parallelization
   Giovanni Bistoni       : ED, misc. LED, open-shell LED, HFLD
   Martin Brehm           : Molecular dynamics
   Dmytro Bykov           : SCF Hessian
   Vijay G. Chilkuri      : MRCI spin determinant printing, contributions to CSF-ICE
   Dipayan Datta          : RHF DLPNO-CCSD density
   Achintya Kumar Dutta   : EOM-CC, STEOM-CC
   Dmitry Ganyushin       : Spin-Orbit,Spin-Spin,Magnetic field MRCI
   Miquel Garcia          : C-PCM and meta-GGA Hessian, CC/C-PCM, Gaussian charge scheme
   Yang Guo               : DLPNO-NEVPT2, F12-NEVPT2, CIM, IAO-localization
   Andreas Hansen         : Spin unrestricted coupled pair/coupled cluster methods
   Benjamin Helmich-Paris : MC-RPA, TRAH-SCF, COSX integrals
   Lee Huntington         : MR-EOM, pCC
   Robert Izsak           : Overlap fitted RIJCOSX, COSX-SCS-MP3, EOM
   Marcus Kettner         : VPT2
   Christian Kollmar      : KDIIS, OOCD, Brueckner-CCSD(T), CCSD density, CASPT2, CASPT2-K
   Simone Kossmann        : Meta GGA functionals, TD-DFT gradient, OOMP2, MP2 Hessian
   Martin Krupicka        : Initial AUTO-CI
   Lucas Lang             : DCDCAS
   Marvin Lechner         : AUTO-CI (C++ implementation), FIC-MRCC
   Dagmar Lenk            : GEPOL surface, SMD
   Dimitrios Liakos       : Extrapolation schemes; Compound Job, initial MDCI parallelization
   Dimitrios Manganas     : Further ROCIS development; embedding schemes
   Dimitrios Pantazis     : SARC Basis sets
   Anastasios Papadopoulos: AUTO-CI, single reference methods and gradients
   Taras Petrenko         : DFT Hessian,TD-DFT gradient, ASA, ECA, R-Raman, ABS, FL, XAS/XES, NRVS
   Peter Pinski           : DLPNO-MP2, DLPNO-MP2 Gradient
   Christoph Reimann      : Effective Core Potentials
   Marius Retegan         : Local ZFS, SOC
   Christoph Riplinger    : Optimizer, TS searches, QM/MM, DLPNO-CCSD(T), (RO)-DLPNO pert. Triples
   Tobias Risthaus        : Range-separated hybrids, TD-DFT gradient, RPA, STAB
   Michael Roemelt        : Original ROCIS implementation
   Masaaki Saitow         : Open-shell DLPNO-CCSD energy and density
   Barbara Sandhoefer     : DKH picture change effects
   Avijit Sen             : IP-ROCIS
   Kantharuban Sivalingam : CASSCF convergence, NEVPT2, FIC-MRCI
   Bernardo de Souza      : ESD, SOC TD-DFT
   Georgi Stoychev        : AutoAux, RI-MP2 NMR, DLPNO-MP2 response
   Willem Van den Heuvel  : Paramagnetic NMR
   Boris Wezisla          : Elementary symmetry handling
   Frank Wennmohs         : Technical directorship


 We gratefully acknowledge several colleagues who have allowed us to
 interface, adapt or use parts of their codes:
   Stefan Grimme, W. Hujo, H. Kruse, P. Pracht,  : VdW corrections, initial TS optimization,
                  C. Bannwarth, S. Ehlert          DFT functionals, gCP, sTDA/sTD-DF
   Ed Valeev, F. Pavosevic, A. Kumar             : LibInt (2-el integral package), F12 methods
   Garnet Chan, S. Sharma, J. Yang, R. Olivares  : DMRG
   Ulf Ekstrom                                   : XCFun DFT Library
   Mihaly Kallay                                 : mrcc  (arbitrary order and MRCC methods)
   Jiri Pittner, Ondrej Demel                    : Mk-CCSD
   Frank Weinhold                                : gennbo (NPA and NBO analysis)
   Christopher J. Cramer and Donald G. Truhlar   : smd solvation model
   Lars Goerigk                                  : TD-DFT with DH, B97 family of functionals
   V. Asgeirsson, H. Jonsson                     : NEB implementation
   FAccTs GmbH                                   : IRC, NEB, NEB-TS, DLPNO-Multilevel, CI-OPT
                                                   MM, QMMM, 2- and 3-layer-ONIOM, Crystal-QMMM,
                                                   LR-CPCM, SF, NACMEs, symmetry and pop. for TD-DFT,
                                                   nearIR, NL-DFT gradient (VV10), updates on ESD,
                                                   ML-optimized integration grids
   S Lehtola, MJT Oliveira, MAL Marques          : LibXC Library
   Liviu Ungur et al                             : ANISO software


 Your calculation uses the libint2 library for the computation of 2-el integrals
 For citations please refer to: http://libint.valeyev.net

 Your ORCA version has been built with support for libXC version: 5.1.0
 For citations please refer to: https://tddft.org/programs/libxc/

 This ORCA versions uses:
   CBLAS   interface :  Fast vector & matrix operations
   LAPACKE interface :  Fast linear algebra routines
   SCALAPACK package :  Parallel linear algebra routines
   Shared memory     :  Shared parallel matrices
   BLAS/LAPACK       :  OpenBLAS 0.3.15  USE64BITINT DYNAMIC_ARCH NO_AFFINITY Haswell SINGLE_THREADED
        Core in use  :  Haswell
   Copyright (c) 2011-2014, The OpenBLAS Project


Your calculation utilizes the atom-pairwise dispersion correction
with the Becke-Johnson damping scheme (D3BJ)
Cite in your paper:
S.Grimme, S.Ehrlich, L.Goerigk, J Comput Chem, (2011), 32, 1456–1465 
S.Grimme, J.Antony, S.Ehrlich and H.Krieg, J.Chem.Phys., 132, (2010), 154104 
   

================================================================================

----- Orbital basis set information -----
Your calculation utilizes the basis: def2-TZVP
   F. Weigend and R. Ahlrichs, Phys. Chem. Chem. Phys. 7, 3297 (2005).

----- AuxJ basis set information -----
Your calculation utilizes the auxiliary basis: def2/J
   F. Weigend, Phys. Chem. Chem. Phys. 8, 1057 (2006).

================================================================================
                                        WARNINGS
                       Please study these warnings very carefully!
================================================================================


WARNING: Geometry Optimization
  ===> : Switching off AutoStart
         For restart on a previous wavefunction, please use MOREAD

INFO   : the flag for use of the SHARK integral package has been found!

================================================================================
                                       INPUT FILE
================================================================================
NAME = NO2-PhenOH/NO2-PhenOH.inp
|  1> %pal nprocs 24 end
|  2> %maxcore 3500
|  3> ! PBE0 D3BJ def2-TZVP TightSCF OPT FREQ TightOpt
|  4> ! CPCM(dmso)
|  5> %scf
|  6> MaxIter 800
|  7> end
|  8> %geom
|  9> MaxIter 800
| 10> MaxStep 0.2
| 11> end
| 12> *xyz 0 1
| 13> 
| 14> C       0.02569600     -0.53358600     -1.54869600
| 15> C       0.01761600      0.70081300     -0.91353300
| 16> C       0.01884900     -1.72102800     -0.82633400
| 17> H       0.02321600      1.61123100     -1.49683900
| 18> H       0.02546100     -2.66949700     -1.34553200
| 19> C       0.00251300      0.74812600      0.46342700
| 20> C       0.00376200     -1.67272400      0.54945200
| 21> H      -0.00402500      1.70235000      0.97881800
| 22> H      -0.00191300     -2.58298400      1.13628400
| 23> C      -0.00434800     -0.43745500      1.20103400
| 24> O      -0.01869000     -0.44496000      2.54073200
| 25> H      -0.02318700      0.45852900      2.88183900
| 26> N       0.04133900     -0.58419100     -2.99077700
| 27> O       0.04798200     -1.67671600     -3.53088400
| 28> O       0.04665800      0.46719700     -3.60736700
| 29> *
| 30> 
| 31>                          ****END OF INPUT****
================================================================================

                       *****************************
                       * Geometry Optimization Run *
                       *****************************

Geometry optimization settings:
Update method            Update   .... BFGS
Choice of coordinates    CoordSys .... Z-matrix Internals
Initial Hessian          InHess   .... Almoef's Model

Convergence Tolerances:
Energy Change            TolE     ....  1.0000e-06 Eh
Max. Gradient            TolMAXG  ....  1.0000e-04 Eh/bohr
RMS Gradient             TolRMSG  ....  3.0000e-05 Eh/bohr
Max. Displacement        TolMAXD  ....  1.0000e-03 bohr
RMS Displacement         TolRMSD  ....  6.0000e-04 bohr
Strict Convergence                ....  False
------------------------------------------------------------------------------
                        ORCA OPTIMIZATION COORDINATE SETUP
------------------------------------------------------------------------------

The optimization will be done in new redundant internal coordinates
Making redundant internal coordinates   ...  (new redundants) done
Evaluating the initial hessian          ...  (Almloef) done
Evaluating the coordinates              ...  done
Calculating the B-matrix                .... done
Calculating the G-matrix                .... done
Diagonalizing the G-matrix              .... done
The first mode is                       ....   28
The number of degrees of freedom        ....   39

    -----------------------------------------------------------------
                    Redundant Internal Coordinates


    -----------------------------------------------------------------
         Definition                    Initial Value    Approx d2E/dq
    -----------------------------------------------------------------
      1. B(C   1,C   0)                  1.3883         0.628826   
      2. B(C   2,C   0)                  1.3899         0.624985   
      3. B(H   3,C   1)                  1.0813         0.371840   
      4. B(H   4,C   2)                  1.0813         0.371799   
      5. B(C   5,C   1)                  1.3779         0.653303   
      6. B(C   6,C   2)                  1.3767         0.656042   
      7. B(H   7,C   5)                  1.0845         0.367404   
      8. B(H   8,C   6)                  1.0830         0.369425   
      9. B(C   9,C   6)                  1.3966         0.609812   
     10. B(C   9,C   5)                  1.3963         0.610454   
     11. B(O  10,C   9)                  1.3398         0.672935   
     12. B(H  11,O  10)                  0.9657         0.509094   
     13. B(N  12,C   0)                  1.4431         0.460503   
     14. B(O  13,N  12)                  1.2188         0.940196   
     15. B(O  14,N  12)                  1.2189         0.939831   
     16. A(C   1,C   0,N  12)          119.2397         0.409974   
     17. A(C   2,C   0,N  12)          119.3050         0.409529   
     18. A(C   1,C   0,C   2)          121.4553         0.435800   
     19. A(C   0,C   1,H   3)          120.1211         0.355684   
     20. A(C   0,C   1,C   5)          119.1979         0.439296   
     21. A(H   3,C   1,C   5)          120.6811         0.357999   
     22. A(H   4,C   2,C   6)          120.7092         0.358247   
     23. A(C   0,C   2,C   6)          119.3040         0.439142   
     24. A(C   0,C   2,H   4)          119.9868         0.355308   
     25. A(H   7,C   5,C   9)          119.7352         0.353182   
     26. A(C   1,C   5,C   9)          119.9210         0.436953   
     27. A(C   1,C   5,H   7)          120.3439         0.357269   
     28. A(H   8,C   6,C   9)          119.3769         0.353447   
     29. A(C   2,C   6,C   9)          119.8233         0.437199   
     30. A(C   2,C   6,H   8)          120.7998         0.357857   
     31. A(C   5,C   9,O  10)          122.2098         0.436410   
     32. A(C   5,C   9,C   6)          120.2986         0.431569   
     33. A(C   6,C   9,O  10)          117.4917         0.436327   
     34. A(C   9,O  10,H  11)          110.3644         0.374013   
     35. A(O  13,N  12,O  14)          123.3016         0.491923   
     36. A(C   0,N  12,O  14)          118.3808         0.434717   
     37. A(C   0,N  12,O  13)          118.3176         0.434748   
     38. D(C   5,C   1,C   0,C   2)      0.0018         0.027410   
     39. D(C   5,C   1,C   0,N  12)    179.9920         0.027410   
     40. D(H   3,C   1,C   0,C   2)    179.9983         0.027410   
     41. D(H   3,C   1,C   0,N  12)     -0.0114         0.027410   
     42. D(H   4,C   2,C   0,N  12)      0.0136         0.027055   
     43. D(C   6,C   2,C   0,C   1)     -0.0020         0.027055   
     44. D(H   4,C   2,C   0,C   1)   -179.9962         0.027055   
     45. D(C   6,C   2,C   0,N  12)   -179.9922         0.027055   
     46. D(C   9,C   5,C   1,H   3)   -179.9910         0.029738   
     47. D(C   9,C   5,C   1,C   0)      0.0056         0.029738   
     48. D(H   7,C   5,C   1,H   3)      0.0050         0.029738   
     49. D(H   7,C   5,C   1,C   0)   -179.9985         0.029738   
     50. D(C   9,C   6,C   2,C   0)     -0.0052         0.030006   
     51. D(H   8,C   6,C   2,H   4)     -0.0098         0.030006   
     52. D(H   8,C   6,C   2,C   0)    179.9960         0.030006   
     53. D(C   9,C   6,C   2,H   4)    179.9890         0.030006   
     54. D(O  10,C   9,C   6,H   8)      0.0136         0.025682   
     55. D(C   5,C   9,C   6,H   8)   -179.9887         0.025682   
     56. D(C   5,C   9,C   6,C   2)      0.0125         0.025682   
     57. D(O  10,C   9,C   5,H   7)     -0.0111         0.025739   
     58. D(O  10,C   9,C   5,C   1)    179.9849         0.025739   
     59. D(O  10,C   9,C   6,C   2)   -179.9853         0.025682   
     60. D(C   6,C   9,C   5,H   7)    179.9913         0.025739   
     61. D(C   6,C   9,C   5,C   1)     -0.0127         0.025739   
     62. D(H  11,O  10,C   9,C   6)   -179.9990         0.033666   
     63. D(H  11,O  10,C   9,C   5)      0.0033         0.033666   
     64. D(O  14,N  12,C   0,C   2)    179.9736         0.016707   
     65. D(O  14,N  12,C   0,C   1)     -0.0169         0.016707   
     66. D(O  13,N  12,C   0,C   2)      0.0049         0.016707   
     67. D(O  13,N  12,C   0,C   1)   -179.9856         0.016707   
    -----------------------------------------------------------------

Number of atoms                         .... 15
Number of degrees of freedom            .... 67

         *************************************************************
         *                GEOMETRY OPTIMIZATION CYCLE   1            *
         *************************************************************
---------------------------------
CARTESIAN COORDINATES (ANGSTROEM)
---------------------------------
  C      0.025696   -0.533586   -1.548696
  C      0.017616    0.700813   -0.913533
  C      0.018849   -1.721028   -0.826334
  H      0.023216    1.611231   -1.496839
  H      0.025461   -2.669497   -1.345532
  C      0.002513    0.748126    0.463427
  C      0.003762   -1.672724    0.549452
  H     -0.004025    1.702350    0.978818
  H     -0.001913   -2.582984    1.136284
  C     -0.004348   -0.437455    1.201034
  O     -0.018690   -0.444960    2.540732
  H     -0.023187    0.458529    2.881839
  N      0.041339   -0.584191   -2.990777
  O      0.047982   -1.676716   -3.530884
  O      0.046658    0.467197   -3.607367

----------------------------
CARTESIAN COORDINATES (A.U.)
----------------------------
  NO LB      ZA    FRAG     MASS         X           Y           Z
   0 C     6.0000    0    12.011    0.048558   -1.008331   -2.926611
   1 C     6.0000    0    12.011    0.033289    1.324345   -1.726327
   2 C     6.0000    0    12.011    0.035619   -3.252272   -1.561545
   3 H     1.0000    0     1.008    0.043872    3.044785   -2.828616
   4 H     1.0000    0     1.008    0.048114   -5.044618   -2.542687
   5 C     6.0000    0    12.011    0.004749    1.413753    0.875750
   6 C     6.0000    0    12.011    0.007109   -3.160990    1.038314
   7 H     1.0000    0     1.008   -0.007606    3.216975    1.849698
   8 H     1.0000    0     1.008   -0.003615   -4.881132    2.147266
   9 C     6.0000    0    12.011   -0.008217   -0.826670    2.269625
  10 O     8.0000    0    15.999   -0.035319   -0.840853    4.801288
  11 H     1.0000    0     1.008   -0.043817    0.866494    5.445886
  12 N     7.0000    0    14.007    0.078119   -1.103961   -5.651749
  13 O     8.0000    0    15.999    0.090673   -3.168534   -6.672404
  14 O     8.0000    0    15.999    0.088171    0.882874   -6.816936

--------------------------------
INTERNAL COORDINATES (ANGSTROEM)
--------------------------------
 C      0   0   0     0.000000000000     0.00000000     0.00000000
 C      1   0   0     1.388250054626     0.00000000     0.00000000
 C      1   2   0     1.389918070901   121.45526551     0.00000000
 H      2   1   3     1.081266934832   120.12105915   179.99832913
 H      3   1   2     1.081297242070   119.98681489   180.00378950
 C      2   1   3     1.377855385074   119.19785293     0.00000000
 C      3   1   2     1.376716387562   119.30398496     0.00000000
 H      6   2   1     1.084534033814   120.34386038   180.00154019
 H      7   3   1     1.083040751518   120.79978981   179.99603093
 C      6   2   1     1.396321405455   119.92097685     0.00000000
 O     10   6   2     1.339795786377   122.20975750   179.98494188
 H     11  10   6     0.965746644612   110.36436574     0.00000000
 N      1   2   3     1.443053422447   119.23968917   179.99024445
 O     13   1   2     1.218757800600   118.31756883   180.01441028
 O     13   1   2     1.218863506060   118.38082214     0.00000000

---------------------------
INTERNAL COORDINATES (A.U.)
---------------------------
 C      0   0   0     0.000000000000     0.00000000     0.00000000
 C      1   0   0     2.623412408645     0.00000000     0.00000000
 C      1   2   0     2.626564502591   121.45526551     0.00000000
 H      2   1   3     2.043298384496   120.12105915   179.99832913
 H      3   1   2     2.043355656877   119.98681489   180.00378950
 C      2   1   3     2.603769329939   119.19785293     0.00000000
 C      3   1   2     2.601616936573   119.30398496     0.00000000
 H      6   2   1     2.049472306825   120.34386038   180.00154019
 H      7   3   1     2.046650412246   120.79978981   179.99603093
 C      6   2   1     2.638665051241   119.92097685     0.00000000
 O     10   6   2     2.531847111634   122.20975750   179.98494188
 H     11  10   6     1.824996673070   110.36436574     0.00000000
 N      1   2   3     2.726975765042   119.23968917   179.99024445
 O     13   1   2     2.303118466714   118.31756883   180.01441028
 O     13   1   2     2.303318221085   118.38082214     0.00000000

---------------------
BASIS SET INFORMATION
---------------------
There are 4 groups of distinct atoms

 Group   1 Type C   : 11s6p2d1f contracted to 5s3p2d1f pattern {62111/411/11/1}
 Group   2 Type H   : 5s1p contracted to 3s1p pattern {311/1}
 Group   3 Type O   : 11s6p2d1f contracted to 5s3p2d1f pattern {62111/411/11/1}
 Group   4 Type N   : 11s6p2d1f contracted to 5s3p2d1f pattern {62111/411/11/1}

Atom   0C    basis set group =>   1
Atom   1C    basis set group =>   1
Atom   2C    basis set group =>   1
Atom   3H    basis set group =>   2
Atom   4H    basis set group =>   2
Atom   5C    basis set group =>   1
Atom   6C    basis set group =>   1
Atom   7H    basis set group =>   2
Atom   8H    basis set group =>   2
Atom   9C    basis set group =>   1
Atom  10O    basis set group =>   3
Atom  11H    basis set group =>   2
Atom  12N    basis set group =>   4
Atom  13O    basis set group =>   3
Atom  14O    basis set group =>   3
---------------------------------
AUXILIARY/J BASIS SET INFORMATION
---------------------------------
There are 4 groups of distinct atoms

 Group   1 Type C   : 12s5p4d2f1g contracted to 6s4p3d1f1g pattern {711111/2111/211/2/1}
 Group   2 Type H   : 5s2p1d contracted to 3s1p1d pattern {311/2/1}
 Group   3 Type O   : 12s5p4d2f1g contracted to 6s4p3d1f1g pattern {711111/2111/211/2/1}
 Group   4 Type N   : 12s5p4d2f1g contracted to 6s4p3d1f1g pattern {711111/2111/211/2/1}

Atom   0C    basis set group =>   1
Atom   1C    basis set group =>   1
Atom   2C    basis set group =>   1
Atom   3H    basis set group =>   2
Atom   4H    basis set group =>   2
Atom   5C    basis set group =>   1
Atom   6C    basis set group =>   1
Atom   7H    basis set group =>   2
Atom   8H    basis set group =>   2
Atom   9C    basis set group =>   1
Atom  10O    basis set group =>   3
Atom  11H    basis set group =>   2
Atom  12N    basis set group =>   4
Atom  13O    basis set group =>   3
Atom  14O    basis set group =>   3


           ************************************************************
           *        Program running with 24 parallel MPI-processes    *
           *              working on a common directory               *
           ************************************************************
------------------------------------------------------------------------------
                           ORCA GTO INTEGRAL CALCULATION
                           -- RI-GTO INTEGRALS CHOSEN --
------------------------------------------------------------------------------
------------------------------------------------------------------------------
                   ___                                                        
                  /   \      - P O W E R E D   B Y -                         
                 /     \                                                     
                 |  |  |   _    _      __       _____    __    __             
                 |  |  |  | |  | |    /  \     |  _  \  |  |  /  |          
                  \  \/   | |  | |   /    \    | | | |  |  | /  /          
                 / \  \   | |__| |  /  /\  \   | |_| |  |  |/  /          
                |  |  |   |  __  | /  /__\  \  |    /   |      \           
                |  |  |   | |  | | |   __   |  |    \   |  |\   \          
                \     /   | |  | | |  |  |  |  | |\  \  |  | \   \       
                 \___/    |_|  |_| |__|  |__|  |_| \__\ |__|  \__/        
                                                                              
                      - O R C A' S   B I G   F R I E N D -                    
                                      &                                       
                       - I N T E G R A L  F E E D E R -                       
                                                                              
 v1 FN, 2020, v2 2021                                                         
------------------------------------------------------------------------------


Reading SHARK input file NO2-PhenOH/NO2-PhenOH.SHARKINP.tmp ... ok
----------------------
SHARK INTEGRAL PACKAGE
----------------------

Number of atoms                             ...     15
Number of basis functions                   ...    340
Number of shells                            ...    130
Maximum angular momentum                    ...      3
Integral batch strategy                     ... SHARK/LIBINT Hybrid
RI-J (if used) integral strategy            ... SPLIT-RIJ (Revised 2003 algorithm where possible)
Printlevel                                  ...      1
Contraction scheme used                     ... SEGMENTED contraction
Coulomb Range Separation                    ... NOT USED
Exchange Range Separation                   ... NOT USED
Finite Nucleus Model                        ... NOT USED
Auxiliary Coulomb fitting basis             ... AVAILABLE
   # of basis functions in Aux-J            ...    545
   # of shells in Aux-J                     ...    175
   Maximum angular momentum in Aux-J        ...      4
Auxiliary J/K fitting basis                 ... NOT available
Auxiliary Correlation fitting basis         ... NOT available
Auxiliary 'external' fitting basis          ... NOT available
Integral threshold                          ...     2.500000e-11
Primitive cut-off                           ...     2.500000e-12
Primitive pair pre-selection threshold      ...     2.500000e-12

Calculating pre-screening integrals         ... done (  0.1 sec) Dimension = 130
Organizing shell pair data                  ... done (  0.1 sec)
Shell pair information
Total number of shell pairs                 ...      8515
Shell pairs after pre-screening             ...      7462
Total number of primitive shell pairs       ...     26800
Primitive shell pairs kept                  ...     17226
          la=0 lb=0:   1780 shell pairs
          la=1 lb=0:   2043 shell pairs
          la=1 lb=1:    592 shell pairs
          la=2 lb=0:   1127 shell pairs
          la=2 lb=1:    643 shell pairs
          la=2 lb=2:    187 shell pairs
          la=3 lb=0:    546 shell pairs
          la=3 lb=1:    319 shell pairs
          la=3 lb=2:    177 shell pairs
          la=3 lb=3:     48 shell pairs

Calculating one electron integrals          ... done (  0.0 sec)
Calculating RI/J V-Matrix + Cholesky decomp.... done (  0.1 sec)
Calculating Nuclear repulsion               ... done (  0.0 sec) ENN=    498.714993213060 Eh

SHARK setup successfully completed in   0.6 seconds

Maximum memory used throughout the entire GTOINT-calculation: 20.9 MB


           ************************************************************
           *        Program running with 24 parallel MPI-processes    *
           *              working on a common directory               *
           ************************************************************
-------------------------------------------------------------------------------
                                 ORCA SCF
-------------------------------------------------------------------------------

------------
SCF SETTINGS
------------
Hamiltonian:
 Density Functional     Method          .... DFT(GTOs)
 Exchange Functional    Exchange        .... PBE
   PBE kappa parameter   XKappa         ....  0.804000
   PBE mue parameter    XMuePBE         ....  0.219520
 Correlation Functional Correlation     .... PBE
   PBE beta parameter  CBetaPBE         ....  0.066725
 LDA part of GGA corr.  LDAOpt          .... PW91-LDA
 Gradients option       PostSCFGGA      .... off
 Hybrid DFT is turned on
   Fraction HF Exchange ScalHFX         ....  0.250000
   Scaling of DF-GGA-X  ScalDFX         ....  0.750000
   Scaling of DF-GGA-C  ScalDFC         ....  1.000000
   Scaling of DF-LDA-C  ScalLDAC        ....  1.000000
   Perturbative correction              ....  0.000000
   Density functional embedding theory  .... OFF
   NL short-range parameter             ....  6.900000
 RI-approximation to the Coulomb term is turned on
   Number of AuxJ basis functions       .... 545
   RIJ-COSX (HFX calculated with COS-X)).... on


General Settings:
 Integral files         IntName         .... NO2-PhenOH/NO2-PhenOH
 Hartree-Fock type      HFTyp           .... RHF
 Total Charge           Charge          ....    0
 Multiplicity           Mult            ....    1
 Number of Electrons    NEL             ....   72
 Basis Dimension        Dim             ....  340
 Nuclear Repulsion      ENuc            ....    498.7149932131 Eh

Convergence Acceleration:
 DIIS                   CNVDIIS         .... on
   Start iteration      DIISMaxIt       ....    12
   Startup error        DIISStart       ....  0.200000
   # of expansion vecs  DIISMaxEq       ....     5
   Bias factor          DIISBfac        ....   1.050
   Max. coefficient     DIISMaxC        ....  10.000
 Trust-Rad. Augm. Hess. CNVTRAH         .... auto
   Auto Start mean grad. ratio tolernc. ....  1.125000
   Auto Start start iteration           ....    20
   Auto Start num. interpolation iter.  ....    10
   Max. Number of Micro iterations      ....    16
   Max. Number of Macro iterations      .... Maxiter - #DIIS iter
   Number of Davidson start vectors     ....     2
   Converg. threshold I  (grad. norm)   ....   1.000e-05
   Converg. threshold II (energy diff.) ....   1.000e-08
   Grad. Scal. Fac. for Micro threshold ....   0.100
   Minimum threshold for Micro iter.    ....   0.010
   NR start threshold (gradient norm)   ....   0.001
   Initial trust radius                 ....   0.400
   Minimum AH scaling param. (alpha)    ....   1.000
   Maximum AH scaling param. (alpha)    .... 1000.000
   Orbital update algorithm             .... Taylor
   White noise on init. David. guess    .... on
   Maximum white noise                  ....   0.010
   Quad. conv. algorithm                .... NR
 SOSCF                  CNVSOSCF        .... on
   Start iteration      SOSCFMaxIt      ....   150
   Startup grad/error   SOSCFStart      ....  0.003300
 Level Shifting         CNVShift        .... on
   Level shift para.    LevelShift      ....    0.2500
   Turn off err/grad.   ShiftErr        ....    0.0010
 Zerner damping         CNVZerner       .... off
 Static damping         CNVDamp         .... on
   Fraction old density DampFac         ....    0.7000
   Max. Damping (<1)    DampMax         ....    0.9800
   Min. Damping (>=0)   DampMin         ....    0.0000
   Turn off err/grad.   DampErr         ....    0.1000
 Fernandez-Rico         CNVRico         .... off

SCF Procedure:
 Maximum # iterations   MaxIter         ....   800
 SCF integral mode      SCFMode         .... Direct
   Integral package                     .... SHARK and LIBINT hybrid scheme
 Reset frequency        DirectResetFreq ....    20
 Integral Threshold     Thresh          ....  2.500e-11 Eh
 Primitive CutOff       TCut            ....  2.500e-12 Eh

Convergence Tolerance:
 Convergence Check Mode ConvCheckMode   .... Total+1el-Energy
 Convergence forced     ConvForced      .... 0
 Energy Change          TolE            ....  1.000e-08 Eh
 1-El. energy change                    ....  1.000e-05 Eh
 Orbital Gradient       TolG            ....  1.000e-05
 Orbital Rotation angle TolX            ....  1.000e-05
 DIIS Error             TolErr          ....  5.000e-07


Diagonalization of the overlap matrix:
Smallest eigenvalue                        ... 9.212e-06
Time for diagonalization                   ...    0.028 sec
Threshold for overlap eigenvalues          ... 1.000e-08
Number of eigenvalues below threshold      ... 0
Time for construction of square roots      ...    0.021 sec
Total time needed                          ...    0.052 sec

Time for model grid setup =    0.103 sec

------------------------------
INITIAL GUESS: MODEL POTENTIAL
------------------------------
Loading Hartree-Fock densities                     ... done
Calculating cut-offs                               ... done
Initializing the effective Hamiltonian             ... done
Setting up the integral package (SHARK)            ... done
Starting the Coulomb interaction                   ... done (   0.1 sec)
Reading the grid                                   ... done
Mapping shells                                     ... done
Starting the XC term evaluation                    ... done (   0.0 sec)
  promolecular density results
     # of electrons  =     71.998307306
     EX              =    -63.198722118
     EC              =     -2.440305477
     EX+EC           =    -65.639027595
Transforming the Hamiltonian                       ... done (   0.0 sec)
Diagonalizing the Hamiltonian                      ... done (   0.0 sec)
Back transforming the eigenvectors                 ... done (   0.0 sec)
Now organizing SCF variables                       ... done
                      ------------------
                      INITIAL GUESS DONE (   0.3 sec)
                      ------------------
-------------------
DFT GRID GENERATION
-------------------

General Integration Accuracy     IntAcc      ... 4.388
Radial Grid Type                 RadialGrid  ... OptM3 with GC (2021)
Angular Grid (max. ang.)         AngularGrid ... 4 (Lebedev-302)
Angular grid pruning method      GridPruning ... 4 (adaptive)
Weight generation scheme         WeightScheme... Becke
Basis function cutoff            BFCut       ... 1.0000e-11
Integration weight cutoff        WCut        ... 1.0000e-14
Angular grids for H and He will be reduced by one unit
Partially contracted basis set               ... off
Rotationally invariant grid construction     ... off

Total number of grid points                  ...    76410
Total number of batches                      ...     1202
Average number of points per batch           ...       63
Average number of grid points per atom       ...     5094
Time for grid setup =    0.435 sec

--------------------
COSX GRID GENERATION
--------------------

GRIDX 1
-------
General Integration Accuracy     IntAcc      ... 3.816
Radial Grid Type                 RadialGrid  ... OptM3 with GC (2021)
Angular Grid (max. ang.)         AngularGrid ... 1 (Lebedev-50)
Angular grid pruning method      GridPruning ... 4 (adaptive)
Weight generation scheme         WeightScheme... Becke
Basis function cutoff            BFCut       ... 1.0000e-11
Integration weight cutoff        WCut        ... 1.0000e-14
Angular grids for H and He will be reduced by one unit
Partially contracted basis set               ... on
Rotationally invariant grid construction     ... off

Total number of grid points                  ...     9734
Total number of batches                      ...      158
Average number of points per batch           ...       61
Average number of grid points per atom       ...      649
UseSFitting                                  ... on

GRIDX 2
-------
General Integration Accuracy     IntAcc      ... 4.020
Radial Grid Type                 RadialGrid  ... OptM3 with GC (2021)
Angular Grid (max. ang.)         AngularGrid ... 2 (Lebedev-110)
Angular grid pruning method      GridPruning ... 4 (adaptive)
Weight generation scheme         WeightScheme... Becke
Basis function cutoff            BFCut       ... 1.0000e-11
Integration weight cutoff        WCut        ... 1.0000e-14
Angular grids for H and He will be reduced by one unit
Partially contracted basis set               ... on
Rotationally invariant grid construction     ... off

Total number of grid points                  ...    21859
Total number of batches                      ...      351
Average number of points per batch           ...       62
Average number of grid points per atom       ...     1457
UseSFitting                                  ... on

GRIDX 3
-------
General Integration Accuracy     IntAcc      ... 4.338
Radial Grid Type                 RadialGrid  ... OptM3 with GC (2021)
Angular Grid (max. ang.)         AngularGrid ... 3 (Lebedev-194)
Angular grid pruning method      GridPruning ... 4 (adaptive)
Weight generation scheme         WeightScheme... Becke
Basis function cutoff            BFCut       ... 1.0000e-11
Integration weight cutoff        WCut        ... 1.0000e-14
Angular grids for H and He will be reduced by one unit
Partially contracted basis set               ... on
Rotationally invariant grid construction     ... off

Total number of grid points                  ...    48277
Total number of batches                      ...      761
Average number of points per batch           ...       63
Average number of grid points per atom       ...     3218
UseSFitting                                  ... on

Time for X-Grid setup             =    0.657 sec


--------------------
CPCM SOLVATION MODEL
--------------------
CPCM parameters:
  Epsilon                                         ...      47.2000
  Refrac                                          ...       1.4790
  Rsolv                                           ...       1.3000
  Surface type                                    ... GAUSSIAN VDW
  Epsilon function type                           ...         CPCM
Radii:
 Radius for C  used is    3.8550 Bohr (=   2.0400 Ang.)
 Radius for H  used is    2.4944 Bohr (=   1.3200 Ang.)
 Radius for O  used is    3.4469 Bohr (=   1.8240 Ang.)
 Radius for N  used is    3.5149 Bohr (=   1.8600 Ang.)
Calculating surface                               ...        done! (  0.0s)
GEPOL surface points                              ...          862
GEPOL Volume                                      ...    1056.8835
GEPOL Surface-area                                ...     595.6255
Calculating surface distance matrix               ...        done! (  0.0s)
Performing Cholesky decomposition & store         ...        done! (  0.1s)
Overall time for CPCM initialization              ...                 0.1s
--------------
SCF ITERATIONS
--------------
ITER       Energy         Delta-E        Max-DP      RMS-DP      [F,P]     Damp
               ***  Starting incremental Fock matrix formation  ***
  0   -511.3806161009   0.000000000000 0.08175247  0.00120853  0.2042142 0.7000
  1   -511.4985096185  -0.117893517566 0.08552563  0.00103402  0.0946300 0.7000
                               ***Turning on DIIS***
  2   -511.5428009076  -0.044291289085 0.12318255  0.00166181  0.0342770 0.0000
  3   -511.6192140033  -0.076413095775 0.07884730  0.00083413  0.0464582 0.0000
  4   -511.6317576764  -0.012543673032 0.02497662  0.00028299  0.0152283 0.0000
                      *** Initiating the SOSCF procedure ***
                           *** Shutting down DIIS ***
                      *** Re-Reading the Fockian *** 
                      *** Removing any level shift *** 
ITER      Energy       Delta-E        Grad      Rot      Max-DP    RMS-DP
  5   -511.63266261  -0.0009049360  0.000838  0.000838  0.007516  0.000099
               *** Restarting incremental Fock matrix formation ***
  6   -511.63270916  -0.0000465446  0.000341  0.001454  0.003191  0.000044
  7   -511.63271004  -0.0000008857  0.000412  0.000418  0.001177  0.000017
  8   -511.63271321  -0.0000031701  0.000129  0.000211  0.000441  0.000006
  9   -511.63271316   0.0000000508  0.000126  0.000127  0.000096  0.000002
 10   -511.63271336  -0.0000001943  0.000008  0.000027  0.000087  0.000002
 11   -511.63271335   0.0000000083  0.000011  0.000018  0.000034  0.000001
 12   -511.63271335  -0.0000000048  0.000003  0.000006  0.000164  0.000003
 13   -511.63271335   0.0000000008  0.000003  0.000004  0.000088  0.000001
                  ***Gradient check signals convergence***
              ***Rediagonalizing the Fockian in SOSCF/NRSCF***

               *****************************************************
               *                     SUCCESS                       *
               *           SCF CONVERGED AFTER  14 CYCLES          *
               *****************************************************

Old exchange energy                            =    -16.032975870 Eh
New exchange energy                            =    -16.032969240 Eh
Exchange energy change after final integration =      0.000006630 Eh
Total energy after final integration           =   -511.632706720 Eh
Final COS-X integration done in                =     1.770 sec

----------------
TOTAL SCF ENERGY
----------------

Total Energy       :         -511.63270672 Eh          -13922.23374 eV

Components:
Nuclear Repulsion  :          498.71499321 Eh           13570.72489 eV
Electronic Energy  :        -1010.34769993 Eh          -27492.95863 eV
One Electron Energy:        -1685.68075025 Eh          -45869.70519 eV
Two Electron Energy:          675.33305032 Eh           18376.74655 eV
Max COSX asymmetry :            0.00000153 Eh               0.00004 eV
CPCM Dielectric    :           -0.02021804 Eh              -0.55016 eV

Virial components:
Potential Energy   :        -1021.16890206 Eh          -27787.41851 eV
Kinetic Energy     :          509.53619535 Eh           13865.18477 eV
Virial Ratio       :            2.00411455


DFT components:
N(Alpha)           :       36.000022972186 electrons
N(Beta)            :       36.000022972186 electrons
N(Total)           :       72.000045944372 electrons
E(X)               :      -48.087652677900 Eh       
E(C)               :       -2.446577485452 Eh       
E(XC)              :      -50.534230163352 Eh       
DFET-embed. en.    :        0.000000000000 Eh       
CPCM Solvation Model Properties:
Surface-charge          :           -0.01696485
Charge-correction       :            0.00015754 Eh               0.00429 eV
Free-energy (cav+disp)  :  This term is not implemented in the current solvation scheme

---------------
SCF CONVERGENCE
---------------

  Last Energy change         ...    1.6524e-09  Tolerance :   1.0000e-08
  Last MAX-Density change    ...    1.3323e-15  Tolerance :   1.0000e-07
  Last RMS-Density change    ...    1.7101e-17  Tolerance :   5.0000e-09
  Last Orbital Gradient      ...    1.0166e-06  Tolerance :   1.0000e-05
  Last Orbital Rotation      ...    3.4436e-06  Tolerance :   1.0000e-05

             **** THE GBW FILE WAS UPDATED (NO2-PhenOH/NO2-PhenOH.gbw) ****
             **** DENSITY NO2-PhenOH/NO2-PhenOH.scfp WAS UPDATED ****
             **** ENERGY FILE WAS UPDATED (NO2-PhenOH/NO2-PhenOH.en.tmp) ****
             **** THE GBW FILE WAS UPDATED (NO2-PhenOH/NO2-PhenOH.gbw) ****
             **** DENSITY NO2-PhenOH/NO2-PhenOH.scfp WAS UPDATED ****
----------------
ORBITAL ENERGIES
----------------

  NO   OCC          E(Eh)            E(eV) 
   0   2.0000     -19.255646      -523.9728 
   1   2.0000     -19.241831      -523.5968 
   2   2.0000     -19.241798      -523.5959 
   3   2.0000     -14.627468      -398.0337 
   4   2.0000     -10.313601      -280.6474 
   5   2.0000     -10.282550      -279.8024 
   6   2.0000     -10.254869      -279.0492 
   7   2.0000     -10.254075      -279.0276 
   8   2.0000     -10.243034      -278.7271 
   9   2.0000     -10.240914      -278.6694 
  10   2.0000      -1.276171       -34.7264 
  11   2.0000      -1.117309       -30.4035 
  12   2.0000      -1.094211       -29.7750 
  13   2.0000      -0.919104       -25.0101 
  14   2.0000      -0.833117       -22.6703 
  15   2.0000      -0.800045       -21.7703 
  16   2.0000      -0.724778       -19.7222 
  17   2.0000      -0.665858       -18.1189 
  18   2.0000      -0.626482       -17.0474 
  19   2.0000      -0.590454       -16.0671 
  20   2.0000      -0.580257       -15.7896 
  21   2.0000      -0.566139       -15.4054 
  22   2.0000      -0.547486       -14.8979 
  23   2.0000      -0.511413       -13.9162 
  24   2.0000      -0.476201       -12.9581 
  25   2.0000      -0.460211       -12.5230 
  26   2.0000      -0.453906       -12.3514 
  27   2.0000      -0.447889       -12.1877 
  28   2.0000      -0.417650       -11.3648 
  29   2.0000      -0.381242       -10.3741 
  30   2.0000      -0.372049       -10.1240 
  31   2.0000      -0.339744        -9.2449 
  32   2.0000      -0.339718        -9.2442 
  33   2.0000      -0.318774        -8.6743 
  34   2.0000      -0.293146        -7.9769 
  35   2.0000      -0.264133        -7.1874 
  36   0.0000      -0.089161        -2.4262 
  37   0.0000      -0.026423        -0.7190 
  38   0.0000       0.014291         0.3889 
  39   0.0000       0.058125         1.5817 
  40   0.0000       0.068974         1.8769 
  41   0.0000       0.097267         2.6468 
  42   0.0000       0.101465         2.7610 
  43   0.0000       0.127717         3.4754 
  44   0.0000       0.142268         3.8713 
  45   0.0000       0.148786         4.0487 
  46   0.0000       0.160306         4.3622 
  47   0.0000       0.181630         4.9424 
  48   0.0000       0.204241         5.5577 
  49   0.0000       0.212039         5.7699 
  50   0.0000       0.219622         5.9762 
  51   0.0000       0.224849         6.1185 
  52   0.0000       0.241839         6.5808 
  53   0.0000       0.246811         6.7161 
  54   0.0000       0.249289         6.7835 
  55   0.0000       0.262063         7.1311 
  56   0.0000       0.264193         7.1890 
  57   0.0000       0.303381         8.2554 
  58   0.0000       0.312462         8.5025 
  59   0.0000       0.326248         8.8776 
  60   0.0000       0.329706         8.9718 
  61   0.0000       0.331710         9.0263 
  62   0.0000       0.334290         9.0965 
  63   0.0000       0.353338         9.6148 
  64   0.0000       0.368001        10.0138 
  65   0.0000       0.381235        10.3739 
  66   0.0000       0.388942        10.5837 
  67   0.0000       0.392594        10.6830 
  68   0.0000       0.403280        10.9738 
  69   0.0000       0.411771        11.2048 
  70   0.0000       0.414342        11.2748 
  71   0.0000       0.434122        11.8131 
  72   0.0000       0.447411        12.1747 
  73   0.0000       0.458923        12.4879 
  74   0.0000       0.468819        12.7572 
  75   0.0000       0.479118        13.0375 
  76   0.0000       0.490639        13.3510 
  77   0.0000       0.497781        13.5453 
  78   0.0000       0.505887        13.7659 
  79   0.0000       0.506078        13.7711 
  80   0.0000       0.516502        14.0547 
  81   0.0000       0.551417        15.0048 
  82   0.0000       0.556756        15.1501 
  83   0.0000       0.558061        15.1856 
  84   0.0000       0.574954        15.6453 
  85   0.0000       0.614029        16.7086 
  86   0.0000       0.622360        16.9353 
  87   0.0000       0.629363        17.1258 
  88   0.0000       0.634638        17.2694 
  89   0.0000       0.647412        17.6170 
  90   0.0000       0.655863        17.8469 
  91   0.0000       0.674660        18.3584 
  92   0.0000       0.689795        18.7703 
  93   0.0000       0.710115        19.3232 
  94   0.0000       0.726122        19.7588 
  95   0.0000       0.727772        19.8037 
  96   0.0000       0.770400        20.9637 
  97   0.0000       0.780570        21.2404 
  98   0.0000       0.781933        21.2775 
  99   0.0000       0.788607        21.4591 
 100   0.0000       0.801695        21.8152 
 101   0.0000       0.827648        22.5214 
 102   0.0000       0.837123        22.7793 
 103   0.0000       0.849641        23.1199 
 104   0.0000       0.868737        23.6395 
 105   0.0000       0.883445        24.0398 
 106   0.0000       0.892368        24.2826 
 107   0.0000       0.959704        26.1149 
 108   0.0000       0.994411        27.0593 
 109   0.0000       0.998608        27.1735 
 110   0.0000       1.015235        27.6259 
 111   0.0000       1.035573        28.1794 
 112   0.0000       1.043608        28.3980 
 113   0.0000       1.057434        28.7742 
 114   0.0000       1.078058        29.3354 
 115   0.0000       1.123864        30.5819 
 116   0.0000       1.154840        31.4248 
 117   0.0000       1.162966        31.6459 
 118   0.0000       1.184254        32.2252 
 119   0.0000       1.199771        32.6474 
 120   0.0000       1.208389        32.8819 
 121   0.0000       1.214353        33.0442 
 122   0.0000       1.219766        33.1915 
 123   0.0000       1.284061        34.9411 
 124   0.0000       1.294018        35.2120 
 125   0.0000       1.296779        35.2872 
 126   0.0000       1.331561        36.2336 
 127   0.0000       1.361491        37.0480 
 128   0.0000       1.389619        37.8135 
 129   0.0000       1.403780        38.1988 
 130   0.0000       1.406487        38.2725 
 131   0.0000       1.437304        39.1110 
 132   0.0000       1.482774        40.3483 
 133   0.0000       1.488142        40.4944 
 134   0.0000       1.502245        40.8782 
 135   0.0000       1.512945        41.1693 
 136   0.0000       1.531329        41.6696 
 137   0.0000       1.538978        41.8777 
 138   0.0000       1.562190        42.5094 
 139   0.0000       1.587254        43.1914 
 140   0.0000       1.616115        43.9767 
 141   0.0000       1.629063        44.3291 
 142   0.0000       1.652320        44.9619 
 143   0.0000       1.672069        45.4993 
 144   0.0000       1.685332        45.8602 
 145   0.0000       1.721339        46.8400 
 146   0.0000       1.731789        47.1244 
 147   0.0000       1.741344        47.3844 
 148   0.0000       1.750833        47.6426 
 149   0.0000       1.753281        47.7092 
 150   0.0000       1.762483        47.9596 
 151   0.0000       1.776984        48.3542 
 152   0.0000       1.806929        49.1690 
 153   0.0000       1.844599        50.1941 
 154   0.0000       1.847842        50.2823 
 155   0.0000       1.874709        51.0134 
 156   0.0000       1.900610        51.7182 
 157   0.0000       1.933659        52.6175 
 158   0.0000       1.964926        53.4684 
 159   0.0000       1.983937        53.9857 
 160   0.0000       2.017525        54.8996 
 161   0.0000       2.021971        55.0206 
 162   0.0000       2.047027        55.7024 
 163   0.0000       2.055155        55.9236 
 164   0.0000       2.086405        56.7740 
 165   0.0000       2.120806        57.7101 
 166   0.0000       2.123730        57.7896 
 167   0.0000       2.133843        58.0648 
 168   0.0000       2.150968        58.5308 
 169   0.0000       2.176326        59.2208 
 170   0.0000       2.179544        59.3084 
 171   0.0000       2.201829        59.9148 
 172   0.0000       2.209412        60.1211 
 173   0.0000       2.270236        61.7763 
 174   0.0000       2.288804        62.2815 
 175   0.0000       2.299884        62.5830 
 176   0.0000       2.319135        63.1069 
 177   0.0000       2.351791        63.9955 
 178   0.0000       2.397600        65.2420 
 179   0.0000       2.419375        65.8345 
 180   0.0000       2.449643        66.6582 
 181   0.0000       2.505945        68.1902 
 182   0.0000       2.514757        68.4300 
 183   0.0000       2.564585        69.7859 
 184   0.0000       2.576457        70.1090 
 185   0.0000       2.586619        70.3855 
 186   0.0000       2.600409        70.7607 
 187   0.0000       2.626725        71.4768 
 188   0.0000       2.651896        72.1618 
 189   0.0000       2.659450        72.3673 
 190   0.0000       2.660130        72.3858 
 191   0.0000       2.684162        73.0398 
 192   0.0000       2.703134        73.5560 
 193   0.0000       2.713853        73.8477 
 194   0.0000       2.722720        74.0890 
 195   0.0000       2.736391        74.4610 
 196   0.0000       2.749699        74.8231 
 197   0.0000       2.759074        75.0782 
 198   0.0000       2.780477        75.6606 
 199   0.0000       2.815130        76.6036 
 200   0.0000       2.816674        76.6456 
 201   0.0000       2.842377        77.3450 
 202   0.0000       2.849603        77.5416 
 203   0.0000       2.863942        77.9318 
 204   0.0000       2.890224        78.6470 
 205   0.0000       2.909045        79.1591 
 206   0.0000       2.919477        79.4430 
 207   0.0000       2.928725        79.6947 
 208   0.0000       2.964565        80.6699 
 209   0.0000       2.973562        80.9147 
 210   0.0000       2.975696        80.9728 
 211   0.0000       3.005508        81.7840 
 212   0.0000       3.067737        83.4774 
 213   0.0000       3.077723        83.7491 
 214   0.0000       3.088127        84.0322 
 215   0.0000       3.094878        84.2159 
 216   0.0000       3.102990        84.4367 
 217   0.0000       3.121150        84.9308 
 218   0.0000       3.130175        85.1764 
 219   0.0000       3.149945        85.7144 
 220   0.0000       3.183528        86.6282 
 221   0.0000       3.190521        86.8185 
 222   0.0000       3.209569        87.3368 
 223   0.0000       3.223116        87.7054 
 224   0.0000       3.228282        87.8460 
 225   0.0000       3.273381        89.0732 
 226   0.0000       3.284661        89.3802 
 227   0.0000       3.288838        89.4938 
 228   0.0000       3.319362        90.3244 
 229   0.0000       3.326431        90.5168 
 230   0.0000       3.343271        90.9750 
 231   0.0000       3.371528        91.7440 
 232   0.0000       3.373704        91.8032 
 233   0.0000       3.378690        91.9388 
 234   0.0000       3.407029        92.7100 
 235   0.0000       3.448427        93.8365 
 236   0.0000       3.470321        94.4322 
 237   0.0000       3.485020        94.8322 
 238   0.0000       3.495739        95.1239 
 239   0.0000       3.506480        95.4162 
 240   0.0000       3.529163        96.0334 
 241   0.0000       3.533301        96.1460 
 242   0.0000       3.579871        97.4132 
 243   0.0000       3.649108        99.2973 
 244   0.0000       3.703424       100.7753 
 245   0.0000       3.740595       101.7868 
 246   0.0000       3.749809       102.0375 
 247   0.0000       3.804675       103.5305 
 248   0.0000       3.811511       103.7165 
 249   0.0000       3.866080       105.2014 
 250   0.0000       3.882646       105.6522 
 251   0.0000       3.966810       107.9424 
 252   0.0000       3.972097       108.0862 
 253   0.0000       3.995100       108.7122 
 254   0.0000       4.004642       108.9718 
 255   0.0000       4.027799       109.6020 
 256   0.0000       4.038125       109.8830 
 257   0.0000       4.084515       111.1453 
 258   0.0000       4.134195       112.4972 
 259   0.0000       4.165092       113.3379 
 260   0.0000       4.170601       113.4878 
 261   0.0000       4.184468       113.8652 
 262   0.0000       4.197162       114.2106 
 263   0.0000       4.219774       114.8259 
 264   0.0000       4.237486       115.3078 
 265   0.0000       4.253526       115.7443 
 266   0.0000       4.284763       116.5943 
 267   0.0000       4.361518       118.6829 
 268   0.0000       4.386588       119.3651 
 269   0.0000       4.504465       122.5727 
 270   0.0000       4.555568       123.9633 
 271   0.0000       4.560291       124.0918 
 272   0.0000       4.621794       125.7654 
 273   0.0000       4.641318       126.2967 
 274   0.0000       4.666455       126.9807 
 275   0.0000       4.671906       127.1290 
 276   0.0000       4.687783       127.5610 
 277   0.0000       4.727513       128.6422 
 278   0.0000       4.813859       130.9918 
 279   0.0000       4.831214       131.4640 
 280   0.0000       4.872957       132.5999 
 281   0.0000       4.899406       133.3196 
 282   0.0000       4.920481       133.8931 
 283   0.0000       4.933633       134.2510 
 284   0.0000       4.952610       134.7674 
 285   0.0000       5.094244       138.6214 
 286   0.0000       5.104797       138.9086 
 287   0.0000       5.134757       139.7238 
 288   0.0000       5.138636       139.8294 
 289   0.0000       5.154581       140.2633 
 290   0.0000       5.181277       140.9897 
 291   0.0000       5.212862       141.8492 
 292   0.0000       5.262395       143.1971 
 293   0.0000       5.318270       144.7175 
 294   0.0000       5.323033       144.8471 
 295   0.0000       5.331621       145.0808 
 296   0.0000       5.428652       147.7211 
 297   0.0000       5.456880       148.4893 
 298   0.0000       5.498860       149.6316 
 299   0.0000       5.499224       149.6415 
 300   0.0000       5.524758       150.3363 
 301   0.0000       5.598361       152.3392 
 302   0.0000       5.645900       153.6328 
 303   0.0000       5.772064       157.0658 
 304   0.0000       5.828848       158.6110 
 305   0.0000       5.835283       158.7861 
 306   0.0000       6.002925       163.3479 
 307   0.0000       6.039409       164.3407 
 308   0.0000       6.260451       170.3555 
 309   0.0000       6.301458       171.4714 
 310   0.0000       6.363042       173.1472 
 311   0.0000       6.363306       173.1543 
 312   0.0000       6.402195       174.2126 
 313   0.0000       6.424055       174.8074 
 314   0.0000       6.435281       175.1129 
 315   0.0000       6.439880       175.2380 
 316   0.0000       6.467770       175.9970 
 317   0.0000       6.725795       183.0182 
 318   0.0000       6.784994       184.6291 
 319   0.0000       6.814791       185.4399 
 320   0.0000       6.866437       186.8453 
 321   0.0000       6.895540       187.6372 
 322   0.0000       6.964277       189.5076 
 323   0.0000       6.999111       190.4555 
 324   0.0000       7.162116       194.8911 
 325   0.0000       7.296913       198.5591 
 326   0.0000       7.306428       198.8180 
 327   0.0000       7.449501       202.7112 
 328   0.0000       7.502413       204.1510 
 329   0.0000       7.569373       205.9731 
 330   0.0000      22.286227       606.4391 
 331   0.0000      22.741884       618.8381 
 332   0.0000      22.825087       621.1022 
 333   0.0000      22.831384       621.2735 
 334   0.0000      23.066835       627.6805 
 335   0.0000      23.430317       637.5713 
 336   0.0000      32.652382       888.5165 
 337   0.0000      44.014106      1197.6847 
 338   0.0000      44.179287      1202.1795 
 339   0.0000      44.229206      1203.5379 

                    ********************************
                    * MULLIKEN POPULATION ANALYSIS *
                    ********************************

-----------------------
MULLIKEN ATOMIC CHARGES
-----------------------
   0 C :    0.115331
   1 C :   -0.197767
   2 C :   -0.189208
   3 H :    0.176557
   4 H :    0.173186
   5 C :   -0.198692
   6 C :   -0.206104
   7 H :    0.172211
   8 H :    0.159883
   9 C :    0.278850
  10 O :   -0.399070
  11 H :    0.377721
  12 N :    0.478657
  13 O :   -0.370718
  14 O :   -0.370838
Sum of atomic charges:   -0.0000000

--------------------------------
MULLIKEN REDUCED ORBITAL CHARGES
--------------------------------
  0 C s       :     3.050464  s :     3.050464
      pz      :     0.749181  p :     2.688593
      px      :     1.064970
      py      :     0.874442
      dz2     :     0.040449  d :     0.133478
      dxz     :     0.017412
      dyz     :     0.030438
      dx2y2   :     0.018184
      dxy     :     0.026995
      f0      :     0.002365  f :     0.012133
      f+1     :     0.001396
      f-1     :     0.003902
      f+2     :     0.000939
      f-2     :     0.001121
      f+3     :     0.001530
      f-3     :     0.000880
  1 C s       :     3.246298  s :     3.246298
      pz      :     0.954765  p :     2.841907
      px      :     0.909230
      py      :     0.977911
      dz2     :     0.022447  d :     0.101972
      dxz     :     0.022857
      dyz     :     0.035445
      dx2y2   :     0.008907
      dxy     :     0.012316
      f0      :     0.000788  f :     0.007590
      f+1     :     0.001550
      f-1     :     0.002190
      f+2     :     0.000811
      f-2     :     0.000451
      f+3     :     0.001129
      f-3     :     0.000671
  2 C s       :     3.250479  s :     3.250479
      pz      :     0.934916  p :     2.829345
      px      :     0.910373
      py      :     0.984056
      dz2     :     0.024487  d :     0.101848
      dxz     :     0.023671
      dyz     :     0.033897
      dx2y2   :     0.008847
      dxy     :     0.010947
      f0      :     0.000814  f :     0.007535
      f+1     :     0.001511
      f-1     :     0.002177
      f+2     :     0.000763
      f-2     :     0.000592
      f+3     :     0.000997
      f-3     :     0.000680
  3 H s       :     0.800743  s :     0.800743
      pz      :     0.007373  p :     0.022699
      px      :     0.004168
      py      :     0.011159
  4 H s       :     0.804126  s :     0.804126
      pz      :     0.006627  p :     0.022689
      px      :     0.004178
      py      :     0.011883
  5 C s       :     3.222761  s :     3.222761
      pz      :     0.910629  p :     2.886894
      px      :     1.020665
      py      :     0.955600
      dz2     :     0.018387  d :     0.081832
      dxz     :     0.016033
      dyz     :     0.029660
      dx2y2   :     0.009278
      dxy     :     0.008474
      f0      :     0.000853  f :     0.007205
      f+1     :     0.001475
      f-1     :     0.002096
      f+2     :     0.000787
      f-2     :     0.000397
      f+3     :     0.000901
      f-3     :     0.000695
  6 C s       :     3.238765  s :     3.238765
      pz      :     0.924262  p :     2.878282
      px      :     1.010456
      py      :     0.943564
      dz2     :     0.016884  d :     0.081597
      dxz     :     0.015878
      dyz     :     0.030708
      dx2y2   :     0.008033
      dxy     :     0.010094
      f0      :     0.000819  f :     0.007461
      f+1     :     0.001463
      f-1     :     0.002256
      f+2     :     0.000831
      f-2     :     0.000381
      f+3     :     0.001019
      f-3     :     0.000693
  7 H s       :     0.805466  s :     0.805466
      pz      :     0.005603  p :     0.022323
      px      :     0.004898
      py      :     0.011822
  8 H s       :     0.817743  s :     0.817743
      pz      :     0.006504  p :     0.022374
      px      :     0.004838
      py      :     0.011033
  9 C s       :     3.012098  s :     3.012098
      pz      :     0.723531  p :     2.504448
      px      :     0.868854
      py      :     0.912063
      dz2     :     0.035411  d :     0.188512
      dxz     :     0.050501
      dyz     :     0.062560
      dx2y2   :     0.015728
      dxy     :     0.024311
      f0      :     0.002618  f :     0.016093
      f+1     :     0.003505
      f-1     :     0.005631
      f+2     :     0.000744
      f-2     :     0.001068
      f+3     :     0.001687
      f-3     :     0.000840
 10 O s       :     3.752117  s :     3.752117
      pz      :     1.335218  p :     4.612088
      px      :     1.787754
      py      :     1.489116
      dz2     :     0.011553  d :     0.033065
      dxz     :     0.005968
      dyz     :     0.007905
      dx2y2   :     0.006340
      dxy     :     0.001299
      f0      :     0.000553  f :     0.001800
      f+1     :     0.000336
      f-1     :     0.000275
      f+2     :     0.000240
      f-2     :     0.000021
      f+3     :     0.000050
      f-3     :     0.000325
 11 H s       :     0.577347  s :     0.577347
      pz      :     0.011094  p :     0.044932
      px      :     0.014401
      py      :     0.019437
 12 N s       :     3.221548  s :     3.221548
      pz      :     1.060350  p :     3.025862
      px      :     1.104671
      py      :     0.860840
      dz2     :     0.066555  d :     0.259194
      dxz     :     0.024703
      dyz     :     0.067832
      dx2y2   :     0.033669
      dxy     :     0.066435
      f0      :     0.000938  f :     0.014739
      f+1     :     0.000498
      f-1     :     0.005527
      f+2     :     0.001827
      f-2     :     0.002372
      f+3     :     0.002040
      f-3     :     0.001537
 13 O s       :     3.878024  s :     3.878024
      pz      :     1.720589  p :     4.446036
      px      :     1.448307
      py      :     1.277139
      dz2     :     0.005147  d :     0.043234
      dxz     :     0.002955
      dyz     :     0.013856
      dx2y2   :     0.011197
      dxy     :     0.010079
      f0      :     0.000403  f :     0.003424
      f+1     :     0.000007
      f-1     :     0.000647
      f+2     :     0.000835
      f-2     :     0.000429
      f+3     :     0.000559
      f-3     :     0.000545
 14 O s       :     3.877828  s :     3.877828
      pz      :     1.678505  p :     4.446365
      px      :     1.448711
      py      :     1.319149
      dz2     :     0.005344  d :     0.043221
      dxz     :     0.003723
      dyz     :     0.014775
      dx2y2   :     0.010074
      dxy     :     0.009305
      f0      :     0.000394  f :     0.003424
      f+1     :     0.000006
      f-1     :     0.000698
      f+2     :     0.000880
      f-2     :     0.000514
      f+3     :     0.000474
      f-3     :     0.000457


                     *******************************
                     * LOEWDIN POPULATION ANALYSIS *
                     *******************************

----------------------
LOEWDIN ATOMIC CHARGES
----------------------
   0 C :   -0.189321
   1 C :   -0.087974
   2 C :   -0.088307
   3 H :    0.166875
   4 H :    0.166593
   5 C :   -0.117216
   6 C :   -0.108205
   7 H :    0.165282
   8 H :    0.163774
   9 C :   -0.267397
  10 O :    0.119890
  11 H :    0.217191
  12 N :   -0.028990
  13 O :   -0.055965
  14 O :   -0.056230

-------------------------------
LOEWDIN REDUCED ORBITAL CHARGES
-------------------------------
  0 C s       :     2.710917  s :     2.710917
      pz      :     0.838766  p :     2.862152
      px      :     0.948088
      py      :     1.075298
      dz2     :     0.184044  d :     0.547776
      dxz     :     0.054454
      dyz     :     0.148987
      dx2y2   :     0.075692
      dxy     :     0.084599
      f0      :     0.014309  f :     0.068476
      f+1     :     0.007050
      f-1     :     0.023224
      f+2     :     0.006468
      f-2     :     0.007751
      f+3     :     0.003779
      f-3     :     0.005895
  1 C s       :     2.758599  s :     2.758599
      pz      :     1.048848  p :     2.891684
      px      :     0.836797
      py      :     1.006038
      dz2     :     0.089995  d :     0.392608
      dxz     :     0.071622
      dyz     :     0.151012
      dx2y2   :     0.042233
      dxy     :     0.037747
      f0      :     0.007547  f :     0.045084
      f+1     :     0.006743
      f-1     :     0.014483
      f+2     :     0.004738
      f-2     :     0.003217
      f+3     :     0.004380
      f-3     :     0.003975
  2 C s       :     2.758586  s :     2.758586
      pz      :     1.051706  p :     2.892648
      px      :     0.837730
      py      :     1.003212
      dz2     :     0.093878  d :     0.392095
      dxz     :     0.075878
      dyz     :     0.147449
      dx2y2   :     0.042165
      dxy     :     0.032726
      f0      :     0.007578  f :     0.044979
      f+1     :     0.006310
      f-1     :     0.014680
      f+2     :     0.004750
      f-2     :     0.004227
      f+3     :     0.003708
      f-3     :     0.003727
  3 H s       :     0.770467  s :     0.770467
      pz      :     0.019985  p :     0.062658
      px      :     0.012169
      py      :     0.030504
  4 H s       :     0.770801  s :     0.770801
      pz      :     0.018176  p :     0.062607
      px      :     0.012178
      py      :     0.032253
  5 C s       :     2.759569  s :     2.759569
      pz      :     1.040089  p :     2.950623
      px      :     0.918488
      py      :     0.992046
      dz2     :     0.094389  d :     0.364438
      dxz     :     0.055033
      dyz     :     0.148579
      dx2y2   :     0.042516
      dxy     :     0.023922
      f0      :     0.007716  f :     0.042586
      f+1     :     0.005789
      f-1     :     0.014655
      f+2     :     0.004826
      f-2     :     0.003070
      f+3     :     0.002788
      f-3     :     0.003741
  6 C s       :     2.758662  s :     2.758662
      pz      :     1.039073  p :     2.945447
      px      :     0.910609
      py      :     0.995765
      dz2     :     0.088875  d :     0.361564
      dxz     :     0.051502
      dyz     :     0.151642
      dx2y2   :     0.042322
      dxy     :     0.027224
      f0      :     0.007585  f :     0.042532
      f+1     :     0.005936
      f-1     :     0.014575
      f+2     :     0.004786
      f-2     :     0.002411
      f+3     :     0.003260
      f-3     :     0.003980
  7 H s       :     0.773210  s :     0.773210
      pz      :     0.015771  p :     0.061507
      px      :     0.014065
      py      :     0.031672
  8 H s       :     0.774696  s :     0.774696
      pz      :     0.017911  p :     0.061529
      px      :     0.013884
      py      :     0.029735
  9 C s       :     2.716252  s :     2.716252
      pz      :     0.849283  p :     2.742229
      px      :     0.808125
      py      :     1.084821
      dz2     :     0.205601  d :     0.707464
      dxz     :     0.149705
      dyz     :     0.202914
      dx2y2   :     0.069886
      dxy     :     0.079358
      f0      :     0.020006  f :     0.101451
      f+1     :     0.020511
      f-1     :     0.036210
      f+2     :     0.006051
      f-2     :     0.007456
      f+3     :     0.005496
      f-3     :     0.005720
 10 O s       :     3.309595  s :     3.309595
      pz      :     1.381097  p :     4.492126
      px      :     1.669866
      py      :     1.441164
      dz2     :     0.025409  d :     0.073355
      dxz     :     0.014138
      dyz     :     0.024267
      dx2y2   :     0.009039
      dxy     :     0.000502
      f0      :     0.001514  f :     0.005034
      f+1     :     0.001028
      f-1     :     0.001532
      f+2     :     0.000420
      f-2     :     0.000011
      f+3     :     0.000001
      f-3     :     0.000528
 11 H s       :     0.631164  s :     0.631164
      pz      :     0.029989  p :     0.151644
      px      :     0.039815
      py      :     0.081840
 12 N s       :     2.915114  s :     2.915114
      pz      :     1.149951  p :     3.258794
      px      :     1.010916
      py      :     1.097926
      dz2     :     0.189360  d :     0.779998
      dxz     :     0.063230
      dyz     :     0.225949
      dx2y2   :     0.138225
      dxy     :     0.163234
      f0      :     0.004324  f :     0.075084
      f+1     :     0.001999
      f-1     :     0.031421
      f+2     :     0.009448
      f-2     :     0.013569
      f+3     :     0.005466
      f-3     :     0.008855
 13 O s       :     3.492873  s :     3.492873
      pz      :     1.654307  p :     4.451783
      px      :     1.401665
      py      :     1.395811
      dz2     :     0.012793  d :     0.100110
      dxz     :     0.004752
      dyz     :     0.034791
      dx2y2   :     0.028799
      dxy     :     0.018975
      f0      :     0.001212  f :     0.011199
      f+1     :     0.000011
      f-1     :     0.002315
      f+2     :     0.002887
      f-2     :     0.001051
      f+3     :     0.001658
      f-3     :     0.002065
 14 O s       :     3.492969  s :     3.492969
      pz      :     1.627784  p :     4.451990
      px      :     1.402097
      py      :     1.422109
      dz2     :     0.013452  d :     0.100078
      dxz     :     0.006120
      dyz     :     0.036963
      dx2y2   :     0.025946
      dxy     :     0.017597
      f0      :     0.001208  f :     0.011193
      f+1     :     0.000019
      f-1     :     0.002504
      f+2     :     0.003012
      f-2     :     0.001273
      f+3     :     0.001426
      f-3     :     0.001752


                      *****************************
                      * MAYER POPULATION ANALYSIS *
                      *****************************

  NA   - Mulliken gross atomic population
  ZA   - Total nuclear charge
  QA   - Mulliken gross atomic charge
  VA   - Mayer's total valence
  BVA  - Mayer's bonded valence
  FA   - Mayer's free valence

  ATOM       NA         ZA         QA         VA         BVA        FA
  0 C      5.8847     6.0000     0.1153     3.7697     3.7697    -0.0000
  1 C      6.1978     6.0000    -0.1978     3.9923     3.9923     0.0000
  2 C      6.1892     6.0000    -0.1892     4.0276     4.0276    -0.0000
  3 H      0.8234     1.0000     0.1766     0.9867     0.9867     0.0000
  4 H      0.8268     1.0000     0.1732     0.9854     0.9854    -0.0000
  5 C      6.1987     6.0000    -0.1987     3.8482     3.8482     0.0000
  6 C      6.2061     6.0000    -0.2061     3.9399     3.9399    -0.0000
  7 H      0.8278     1.0000     0.1722     0.9639     0.9639     0.0000
  8 H      0.8401     1.0000     0.1599     0.9742     0.9742    -0.0000
  9 C      5.7212     6.0000     0.2788     4.0207     4.0207    -0.0000
 10 O      8.3991     8.0000    -0.3991     2.1230     2.1230     0.0000
 11 H      0.6223     1.0000     0.3777     0.8700     0.8700     0.0000
 12 N      6.5213     7.0000     0.4787     4.2500     4.2500     0.0000
 13 O      8.3707     8.0000    -0.3707     1.9002     1.9002     0.0000
 14 O      8.3708     8.0000    -0.3708     1.9014     1.9014     0.0000

  Mayer bond orders larger than 0.100000
B(  0-C ,  1-C ) :   1.3570 B(  0-C ,  2-C ) :   1.3443 B(  0-C , 12-N ) :   1.0406 
B(  1-C ,  3-H ) :   0.9302 B(  1-C ,  5-C ) :   1.4397 B(  2-C ,  4-H ) :   0.9455 
B(  2-C ,  6-C ) :   1.4903 B(  5-C ,  7-H ) :   0.9545 B(  5-C ,  9-C ) :   1.3318 
B(  6-C ,  8-H ) :   0.9732 B(  6-C ,  9-C ) :   1.3415 B(  9-C , 10-O ) :   1.1873 
B( 10-O , 11-H ) :   0.8417 B( 12-N , 13-O ) :   1.5966 B( 12-N , 14-O ) :   1.5974 
B( 13-O , 14-O ) :   0.1742 

-------
TIMINGS
-------

Total SCF time: 0 days 0 hours 0 min 28 sec 

Total time                  ....      28.145 sec
Sum of individual times     ....      26.843 sec  ( 95.4%)

Fock matrix formation       ....      24.446 sec  ( 86.9%)
  Split-RI-J                ....       2.525 sec  ( 10.3% of F)
  Chain of spheres X        ....      11.757 sec  ( 48.1% of F)
  XC integration            ....       4.614 sec  ( 18.9% of F)
    Basis function eval.    ....       0.465 sec  ( 10.1% of XC)
    Density eval.           ....       0.447 sec  (  9.7% of XC)
    XC-Functional eval.     ....       0.081 sec  (  1.8% of XC)
    XC-Potential eval.      ....       0.460 sec  ( 10.0% of XC)
Diagonalization             ....       0.321 sec  (  1.1%)
Density matrix formation    ....       0.033 sec  (  0.1%)
Population analysis         ....       0.078 sec  (  0.3%)
Initial guess               ....       0.222 sec  (  0.8%)
Orbital Transformation      ....       0.000 sec  (  0.0%)
Orbital Orthonormalization  ....       0.000 sec  (  0.0%)
DIIS solution               ....       0.183 sec  (  0.6%)
SOSCF solution              ....       0.366 sec  (  1.3%)
Grid generation             ....       1.195 sec  (  4.2%)

Maximum memory used throughout the entire SCF-calculation: 80.0 MB


-------------------------------------------------------------------------------
                          DFT DISPERSION CORRECTION                            
                                                                               
                              DFTD3 V3.1  Rev 1                                
                          USING Becke-Johnson damping                          
-------------------------------------------------------------------------------
The PBE0 functional is recognized
Active option DFTDOPT                   ...         4   

molecular C6(AA) [au] = 2802.341903 


            DFT-D V3
 parameters
 s6 scaling factor         :     1.0000 
 a1 scaling factor         :     0.4145 
 s8 scaling factor         :     1.2177 
 a2 scaling factor         :     4.8593 
 ad hoc parameters k1-k3   :    16.0000     1.3333    -4.0000 

 Edisp/kcal,au: -8.560223221107  -0.013641582577 
 E6   /kcal   :  -5.329704936 
 E8   /kcal   :  -3.230518285 
 % E8         :  37.738715466 

-------------------------   ----------------
Dispersion correction           -0.013641583
-------------------------   ----------------


-------------------------   --------------------
FINAL SINGLE POINT ENERGY      -511.646348302450
-------------------------   --------------------



           ************************************************************
           *        Program running with 24 parallel MPI-processes    *
           *              working on a common directory               *
           ************************************************************
------------------------------------------------------------------------------
                         ORCA SCF GRADIENT CALCULATION
------------------------------------------------------------------------------

 ... reading COSX grid (gridx3)
Gradient of the Kohn-Sham DFT energy:
Kohn-Sham wavefunction type      ... RKS
Hartree-Fock exchange scaling    ...    0.250
Number of operators              ...    1
Number of atoms                  ...   15
Basis set dimensions             ...  340
Integral neglect threshold       ... 2.5e-11
Integral primitive cutoff        ... 2.5e-12
SHARK Integral package           ... ON

Nuc. rep. gradient       (SHARK) ... done (  0.0 sec)
HCore & Overlap gradient (SHARK) ... done (  0.0 sec)
RI-J gradient            (SHARK) ... done (  0.4 sec)
COSX-gradient                    ... done (  2.2 sec)
Exchange-correlation gradient    ... done
Dispersion correction            ... done

------------------
CARTESIAN GRADIENT
------------------

   1   C   :   -0.000024321   -0.000000255    0.000154367
   2   C   :   -0.000002481   -0.000120490   -0.000104631
   3   C   :   -0.000003567    0.000102272   -0.000151554
   4   H   :    0.000001892    0.000083218    0.000105039
   5   H   :   -0.000000579   -0.000058710    0.000023597
   6   C   :   -0.000000034   -0.000197429   -0.000044679
   7   C   :   -0.000001133    0.000145822   -0.000096932
   8   H   :   -0.000002962    0.000019314    0.000005357
   9   H   :   -0.000005103   -0.000107263   -0.000068229
  10   C   :   -0.000004476   -0.000070155   -0.000093845
  11   O   :   -0.000008558   -0.000067768   -0.000157987
  12   H   :   -0.000008087   -0.000043851    0.000071093
  13   N   :    0.000101774    0.000047138    0.000236530
  14   O   :   -0.000029043    0.000112325   -0.000005844
  15   O   :   -0.000027787   -0.000019569    0.000036478

Difference to translation invariance:
[...]
      4      -0.004702   0.078702   0.035284   0.019575  -0.121349   0.028068
      5      -0.011343   0.008490  -0.067962  -0.075799  -0.214057  -0.174306
      6      -0.000092   0.000870  -0.000227   0.000281  -0.002354  -0.001528
      7      -0.028834  -0.050040  -0.040085  -0.070447  -0.132089   0.091788
      8       0.011304  -0.075933   0.024674  -0.019679   0.227803   0.133094
      9      -0.000185   0.006740  -0.002420   0.000731  -0.000525  -0.002476
     10       0.017252  -0.286281   0.211852   0.040883   0.045650   0.288675
     11       0.026772  -0.582839   0.194277  -0.062755   0.044679   0.202555
     12       0.000989  -0.000451   0.006166   0.000541   0.002022  -0.000116
     13       0.031099  -0.129720   0.287576  -0.073025   0.097657   0.193174
     14      -0.100737   0.050849  -0.588619  -0.041219  -0.197721  -0.002551
     15      -0.000046  -0.000689  -0.000137  -0.001197  -0.002199  -0.001910
     16      -0.064294  -0.041275   0.043056  -0.059544  -0.121041   0.039631
     17      -0.004120   0.068409   0.013861   0.119105   0.226229   0.169257
     18       0.000231  -0.000424  -0.000826  -0.000656   0.002021   0.002471
     19      -0.033928   0.005426   0.083453   0.011668  -0.112678  -0.025919
     20      -0.019241   0.038136   0.070255   0.060015  -0.177824  -0.226615
     21      -0.002347   0.005471  -0.002054   0.003686   0.001217   0.002076
     22      -0.158243   0.301392  -0.065157   0.205241   0.044465   0.282993
     23       0.153073  -0.554918   0.246659  -0.362903  -0.076782  -0.241883
     24       0.004177  -0.001974   0.004406   0.003055   0.000316  -0.004472
     25      -0.263979   0.081723  -0.206935  -0.207180  -0.012541   0.383900
     26      -0.374197   0.177434  -0.385191  -0.266924  -0.016036   0.380103
     27      -0.000682  -0.002604  -0.001371  -0.000796  -0.000226  -0.000270
     28       0.104907  -0.057030  -0.000547   0.058807   0.282362  -0.156352
     29       0.047647   0.248439   0.131136   0.070046   0.000875   0.036717
     30       0.000646   0.001453   0.000657   0.000800  -0.000224   0.000235
     31       0.054950   0.006930  -0.030731  -0.010789  -0.053599   0.057893
     32      -0.072055  -0.138958  -0.057137  -0.072952   0.030525  -0.028988
     33      -0.004623   0.000651   0.002675   0.001166   0.004659  -0.003408
     34      -0.282130  -0.038338   0.104056   0.010440   0.241030  -0.126481
     35       0.785994  -0.023998  -0.395799  -0.149639  -0.686955   0.423628
     36      -0.000013  -0.000609  -0.000249   0.006383  -0.000772   0.000221
     37       0.001060   0.002963  -0.004033  -0.012879   0.031906  -0.069029
     38       0.002269   0.055086   0.023012  -0.589047   0.066551  -0.012865
     39       0.000160   0.000283  -0.000119  -0.002529   0.000545  -0.000352
     40      -0.021753  -0.032311   0.006572   0.289709  -0.054565   0.046241
     41      -0.010733  -0.022596   0.009497   0.205263  -0.046200   0.028631
     42       0.000110   0.000078   0.000157  -0.002286  -0.000063   0.000261
     43       0.018238   0.017250   0.017920  -0.287252   0.005238   0.039487
     44      -0.008372  -0.009077  -0.017971   0.238058   0.002616  -0.026918
                 36         37         38         39         40         41    
      0       0.001765  -0.000267   0.001176  -0.000713   0.000001  -0.000002
      1      -0.051629  -0.004129   0.168850   0.365384   0.000368   0.000164
      2      -0.158683   0.025279  -0.120916   0.035626  -0.000095   0.000223
      3      -0.001343  -0.000706  -0.002631   0.002481   0.000025  -0.000006
      4       0.135114   0.036064  -0.010531  -0.234414   0.011160  -0.001679
      5       0.112681   0.061973   0.242921  -0.208486  -0.003246   0.000705
      6      -0.001415   0.001429  -0.003480   0.000385   0.000006  -0.000077
      7      -0.081340   0.064090  -0.153780  -0.167908  -0.001392   0.017221
      8       0.136885  -0.137928   0.332498  -0.022056  -0.000342   0.005504
      9       0.004558   0.000843   0.001106  -0.003454  -0.000739   0.000104
     10      -0.173077  -0.069651  -0.241913   0.072867  -0.127483   0.017311
     11      -0.399580  -0.075352  -0.082885   0.311366   0.077796  -0.011000
     12       0.004137  -0.001903   0.003285   0.001850  -0.000097   0.001320
     13       0.200754  -0.136015   0.196852  -0.125235   0.014585  -0.197907
     14      -0.397809   0.201181  -0.318740  -0.158408   0.007849  -0.104041
     15      -0.000964   0.000157   0.003531  -0.000971   0.000510   0.000012
     16      -0.102441  -0.093392   0.134113   0.143993  -0.076292  -0.001251
     17       0.097293  -0.001756  -0.341035   0.073679  -0.040657  -0.001018
     18      -0.000451  -0.000280   0.002992  -0.002296   0.000002  -0.000435
     19       0.092931  -0.110719  -0.003795   0.224021   0.001078  -0.071995
     20       0.033862   0.034334  -0.275896   0.193998  -0.000250   0.045320
     21       0.004725   0.000111  -0.003575  -0.001136  -0.005796  -0.000111
     22       0.190274  -0.116931  -0.245149   0.161374   0.869319   0.015851
     23      -0.486453   0.017955   0.358674   0.080571   0.462433   0.008834
     24       0.003622  -0.000705  -0.001368   0.003556  -0.000051   0.005006
     25      -0.115437  -0.113045   0.264344  -0.088046  -0.009990   0.818752
     26      -0.328471   0.072406   0.107407  -0.324062   0.005658  -0.520854
     27       0.002287  -0.000441  -0.002011   0.001388   0.000028  -0.000025
     28      -0.025786   0.247781  -0.120194  -0.338686   0.002714   0.002997
     29      -0.212665   0.021644   0.197923  -0.102070  -0.002852   0.002167
     30      -0.000645  -0.000009   0.000180  -0.000000  -0.000003   0.000003
     31       0.017127  -0.044798   0.010324   0.048976  -0.000382  -0.000340
     32       0.058773   0.006157  -0.019545  -0.005233   0.000311  -0.000211
     33      -0.001794   0.002986   0.000012  -0.003498  -0.000099   0.000015
     34      -0.050353   0.110987  -0.005956  -0.129293   0.002878   0.000825
     35       0.221840  -0.366160   0.043355   0.397160   0.007768  -0.001752
     36      -0.000113   0.000351   0.000908  -0.000262  -0.000001   0.000000
     37      -0.034512  -0.670681  -0.095716  -0.160158   0.000161   0.000247
     38       0.014359   0.029473  -0.076131   0.039096   0.000089  -0.000045
     39      -0.000182  -0.001609  -0.000442  -0.000056   0.000001  -0.000001
     40       0.026131   0.274743   0.067947   0.037779  -0.000051  -0.000138
     41       0.014531   0.121871   0.034958   0.001648  -0.000042   0.000136
     42       0.000057   0.001308  -0.000182   0.000248   0.000001  -0.000000
     43       0.008558   0.272812  -0.003476   0.066001  -0.000098  -0.000048
     44      -0.005307  -0.147046   0.017799  -0.027959  -0.000109   0.000017
                 42         43         44    
      0       0.000024  -0.000019  -0.000006
      1      -0.002868  -0.002845   0.000044
      2      -0.001940   0.001981   0.000614
      3       0.000443   0.000018   0.000006
      4       0.073326   0.001917  -0.000231
      5      -0.046516  -0.001820  -0.000398
      6       0.000009  -0.000519   0.000002
      7      -0.002281   0.075142   0.000030
      8      -0.000672   0.041139  -0.000382
      9      -0.005016  -0.000164  -0.000003
     10      -0.831984  -0.026742  -0.000277
     11       0.526576   0.017121   0.000690
     12      -0.000142   0.005830  -0.000006
     13       0.021063  -0.854086   0.000495
     14       0.011225  -0.461797   0.000200
     15      -0.000117   0.000001  -0.000021
     16       0.011166  -0.000919   0.000480
     17       0.009819  -0.000068   0.001056
     18      -0.000012   0.000141  -0.000013
     19      -0.002363   0.015883   0.000839
     20       0.001300  -0.014145   0.000899
     21       0.000880  -0.000052  -0.000024
     22      -0.127638   0.007972  -0.003968
     23      -0.070713   0.004032  -0.003061
     24       0.000150  -0.001153  -0.000004
     25       0.024458  -0.184233   0.000151
     26      -0.015515   0.119996   0.000082
     27      -0.000011   0.000012   0.000013
     28      -0.000695  -0.001044  -0.002124
     29       0.001065  -0.001070  -0.000949
     30       0.000002  -0.000002   0.000309
     31       0.000120   0.000072  -0.057520
     32      -0.000166   0.000157  -0.023450
     33       0.000016  -0.000010  -0.004753
     34      -0.001097   0.000506   0.927881
     35      -0.001250   0.000876   0.367586
     36       0.000004  -0.000006   0.000007
     37       0.001131   0.001204  -0.000027
     38      -0.000526   0.000423  -0.000601
     39      -0.000002  -0.000002  -0.000002
     40      -0.000034  -0.000632   0.000153
     41       0.000205   0.000307   0.000150
     42       0.000003   0.000002   0.000001
     43      -0.000685  -0.000090  -0.000119
     44      -0.000214  -0.000219   0.000169


-----------
IR SPECTRUM
-----------

 Mode   freq       eps      Int      T**2         TX        TY        TZ
       cm**-1   L/(mol*cm) km/mol    a.u.
----------------------------------------------------------------------------
  6:     61.20   0.000132    0.67  0.000672  (-0.025927 -0.000046 -0.000200)
  7:    114.77   0.000367    1.86  0.000999  (-0.031594 -0.000008 -0.000560)
  8:    231.25   0.000688    3.48  0.000929  (-0.000431  0.025037  0.017369)
  9:    301.18   0.000265    1.34  0.000274  (-0.016560 -0.000038  0.000075)
 10:    368.33   0.000113    0.57  0.000096  ( 0.000932 -0.000121  0.009758)
 11:    412.98   0.020870  105.47  0.015770  ( 0.125503 -0.000747 -0.004304)
 12:    419.94   0.002664   13.46  0.001980  (-0.008492 -0.008667 -0.042809)
 13:    436.99   0.016135   81.54  0.011522  (-0.107297 -0.000662 -0.003032)
 14:    509.57   0.003125   15.79  0.001914  (-0.043745 -0.000061 -0.000605)
 15:    546.80   0.000901    4.55  0.000514  (-0.000380  0.017988 -0.013796)
 16:    645.43   0.000925    4.68  0.000447  ( 0.000233 -0.013009  0.016674)
 17:    649.75   0.010059   50.83  0.004831  (-0.001287  0.002362  0.069453)
 18:    716.98   0.003540   17.89  0.001541  ( 0.039246  0.000061  0.000565)
 19:    795.56   0.011265   56.93  0.004419  ( 0.066467  0.000102  0.000851)
 20:    825.91   0.000144    0.73  0.000055  ( 0.007382  0.000029  0.000135)
 21:    839.69   0.000088    0.45  0.000033  (-0.000152  0.000160  0.005721)
 22:    877.80   0.012535   63.35  0.004456  ( 0.066749  0.000114  0.000842)
 23:    895.40   0.014532   73.44  0.005065  (-0.000831  0.003330  0.071083)
 24:    985.09   0.000077    0.39  0.000024  (-0.004926  0.000073  0.000021)
 25:    992.86   0.000084    0.43  0.000027  (-0.005147 -0.000080 -0.000049)
 26:   1025.95   0.000064    0.32  0.000019  (-0.000051  0.001895  0.003982)
 27:   1125.46   0.006653   33.62  0.001845  ( 0.000179 -0.037560 -0.020832)
 28:   1139.29   0.077022  389.24  0.021097  (-0.001547  0.005636  0.145131)
 29:   1198.78   0.001529    7.72  0.000398  ( 0.000164  0.005181 -0.019262)
 30:   1203.93   0.054473  275.28  0.014119  (-0.001014 -0.000386  0.118821)
 31:   1322.90   0.103249  521.78  0.024356  (-0.001679  0.006684  0.155911)
 32:   1336.93   0.010626   53.70  0.002480  (-0.000635  0.000604  0.049796)
 33:   1397.78   0.208316  1052.75  0.046508  ( 0.002325 -0.004339 -0.215601)
 34:   1418.49   0.003629   18.34  0.000798  (-0.000070  0.027955 -0.004121)
 35:   1488.17   0.008668   43.80  0.001818  (-0.000294 -0.026868  0.033100)
 36:   1542.76   0.020169  101.92  0.004080  ( 0.000709 -0.017817 -0.061333)
 37:   1591.67   0.101270  511.78  0.019855  ( 0.000157 -0.140859 -0.003705)
 38:   1657.55   0.059394  300.15  0.011182  (-0.001061 -0.026509  0.102363)
 39:   1670.32   0.026695  134.91  0.004987  ( 0.000433 -0.062123 -0.033584)
 40:   3204.20   0.000596    3.01  0.000058  ( 0.000092 -0.000450 -0.007607)
 41:   3218.69   0.000184    0.93  0.000018  (-0.000048 -0.000611  0.004180)
 42:   3243.17   0.001068    5.40  0.000103  (-0.000075 -0.006487  0.007790)
 43:   3244.89   0.000972    4.91  0.000093  ( 0.000080 -0.006740 -0.006928)
 44:   3802.97   0.056256  284.30  0.004616  (-0.000605  0.041312  0.053937)

* The epsilon (eps) is given for a Dirac delta lineshape.
** The dipole moment derivative (T) already includes vibrational overlap.

The first frequency considered to be a vibration is 6
The total number of vibrations considered is 39


--------------------------
THERMOCHEMISTRY AT 298.15K
--------------------------

Temperature         ... 298.15 K
Pressure            ... 1.00 atm
Total Mass          ... 139.11 AMU

Throughout the following assumptions are being made:
  (1) The electronic state is orbitally nondegenerate
  (2) There are no thermally accessible electronically excited states
  (3) Hindered rotations indicated by low frequency modes are not
      treated as such but are treated as vibrations and this may
      cause some error
  (4) All equations used are the standard statistical mechanics
      equations for an ideal gas
  (5) All vibrations are strictly harmonic

freq.      61.20  E(vib)   ...       0.51 
freq.     114.77  E(vib)   ...       0.44 
freq.     231.25  E(vib)   ...       0.32 
freq.     301.18  E(vib)   ...       0.26 
freq.     368.33  E(vib)   ...       0.21 
freq.     412.98  E(vib)   ...       0.19 
freq.     419.94  E(vib)   ...       0.18 
freq.     436.99  E(vib)   ...       0.17 
freq.     509.57  E(vib)   ...       0.14 
freq.     546.80  E(vib)   ...       0.12 
freq.     645.43  E(vib)   ...       0.09 
freq.     649.75  E(vib)   ...       0.08 
freq.     716.98  E(vib)   ...       0.07 
freq.     795.56  E(vib)   ...       0.05 
freq.     825.91  E(vib)   ...       0.04 
freq.     839.69  E(vib)   ...       0.04 
freq.     877.80  E(vib)   ...       0.04 
freq.     895.40  E(vib)   ...       0.03 
freq.     985.09  E(vib)   ...       0.02 
freq.     992.86  E(vib)   ...       0.02 
freq.    1025.95  E(vib)   ...       0.02 
freq.    1125.46  E(vib)   ...       0.01 
freq.    1139.29  E(vib)   ...       0.01 
freq.    1198.78  E(vib)   ...       0.01 
freq.    1203.93  E(vib)   ...       0.01 
freq.    1322.90  E(vib)   ...       0.01 
freq.    1336.93  E(vib)   ...       0.01 
freq.    1397.78  E(vib)   ...       0.00 
freq.    1418.49  E(vib)   ...       0.00 
freq.    1488.17  E(vib)   ...       0.00 
freq.    1542.76  E(vib)   ...       0.00 
freq.    1591.67  E(vib)   ...       0.00 
freq.    1657.55  E(vib)   ...       0.00 
freq.    1670.32  E(vib)   ...       0.00 
freq.    3204.20  E(vib)   ...       0.00 
freq.    3218.69  E(vib)   ...       0.00 
freq.    3243.17  E(vib)   ...       0.00 
freq.    3244.89  E(vib)   ...       0.00 
freq.    3802.97  E(vib)   ...       0.00 

------------
INNER ENERGY
------------

The inner energy is: U= E(el) + E(ZPE) + E(vib) + E(rot) + E(trans)
    E(el)   - is the total energy from the electronic structure calculation
              = E(kin-el) + E(nuc-el) + E(el-el) + E(nuc-nuc)
    E(ZPE)  - the the zero temperature vibrational energy from the frequency calculation
    E(vib)  - the the finite temperature correction to E(ZPE) due to population
              of excited vibrational states
    E(rot)  - is the rotational thermal energy
    E(trans)- is the translational thermal energy

Summary of contributions to the inner energy U:
Electronic energy                ...   -511.64634895 Eh
Zero point energy                ...      0.10812499 Eh      67.85 kcal/mol
Thermal vibrational correction   ...      0.00501221 Eh       3.15 kcal/mol
Thermal rotational correction    ...      0.00141627 Eh       0.89 kcal/mol
Thermal translational correction ...      0.00141627 Eh       0.89 kcal/mol
-----------------------------------------------------------------------
Total thermal energy                   -511.53037920 Eh


Summary of corrections to the electronic energy:
(perhaps to be used in another calculation)
Total thermal correction                  0.00784475 Eh       4.92 kcal/mol
Non-thermal (ZPE) correction              0.10812499 Eh      67.85 kcal/mol
-----------------------------------------------------------------------
Total correction                          0.11596974 Eh      72.77 kcal/mol


--------
ENTHALPY
--------

The enthalpy is H = U + kB*T
                kB is Boltzmann's constant
Total free energy                 ...   -511.53037920 Eh 
Thermal Enthalpy correction       ...      0.00094421 Eh       0.59 kcal/mol
-----------------------------------------------------------------------
Total Enthalpy                    ...   -511.52943500 Eh


Note: Only C1 symmetry has been detected, increase convergence thresholds 
      if your molecule has a higher symmetry. Symmetry factor of 1.0 is   
      used for the rotational entropy correction. 
 

Note: Rotational entropy computed according to Herzberg 
Infrared and Raman Spectra, Chapter V,1, Van Nostrand Reinhold, 1945 
Point Group:  C1, Symmetry Number:   1  
Rotational constants in cm-1:     0.133157     0.027728     0.022949 

Vibrational entropy computed according to the QRRHO of S. Grimme
Chem.Eur.J. 2012 18 9955


-------
ENTROPY
-------

The entropy contributions are T*S = T*(S(el)+S(vib)+S(rot)+S(trans))
     S(el)   - electronic entropy
     S(vib)  - vibrational entropy
     S(rot)  - rotational entropy
     S(trans)- translational entropy
The entropies will be listed as multiplied by the temperature to get
units of energy

Electronic entropy                ...      0.00000000 Eh      0.00 kcal/mol
Vibrational entropy               ...      0.00817707 Eh      5.13 kcal/mol
Rotational entropy                ...      0.01393712 Eh      8.75 kcal/mol
Translational entropy             ...      0.01933875 Eh     12.14 kcal/mol
-----------------------------------------------------------------------
Final entropy term                ...      0.04145294 Eh     26.01 kcal/mol

In case the symmetry of your molecule has not been determined correctly
or in case you have a reason to use a different symmetry number we print 
out the resulting rotational entropy values for sn=1,12 :
 --------------------------------------------------------
|  sn= 1 | S(rot)=       0.01393712 Eh      8.75 kcal/mol|
|  sn= 2 | S(rot)=       0.01328267 Eh      8.33 kcal/mol|
|  sn= 3 | S(rot)=       0.01289984 Eh      8.09 kcal/mol|
|  sn= 4 | S(rot)=       0.01262821 Eh      7.92 kcal/mol|
|  sn= 5 | S(rot)=       0.01241752 Eh      7.79 kcal/mol|
|  sn= 6 | S(rot)=       0.01224538 Eh      7.68 kcal/mol|
|  sn= 7 | S(rot)=       0.01209983 Eh      7.59 kcal/mol|
|  sn= 8 | S(rot)=       0.01197376 Eh      7.51 kcal/mol|
|  sn= 9 | S(rot)=       0.01186255 Eh      7.44 kcal/mol|
|  sn=10 | S(rot)=       0.01176307 Eh      7.38 kcal/mol|
|  sn=11 | S(rot)=       0.01167308 Eh      7.32 kcal/mol|
|  sn=12 | S(rot)=       0.01159092 Eh      7.27 kcal/mol|
 --------------------------------------------------------


-------------------
GIBBS FREE ENERGY
-------------------

The Gibbs free energy is G = H - T*S

Total enthalpy                    ...   -511.52943500 Eh 
Total entropy correction          ...     -0.04145294 Eh    -26.01 kcal/mol
-----------------------------------------------------------------------
Final Gibbs free energy         ...   -511.57088793 Eh

For completeness - the Gibbs free energy minus the electronic energy
G-E(el)                           ...      0.07546101 Eh     47.35 kcal/mol


Timings for individual modules:

Sum of individual times         ...      321.501 sec (=   5.358 min)
GTO integral calculation        ...        6.678 sec (=   0.111 min)   2.1 %
SCF iterations                  ...       95.413 sec (=   1.590 min)  29.7 %
SCF Gradient evaluation         ...       22.609 sec (=   0.377 min)   7.0 %
Geometry relaxation             ...        0.290 sec (=   0.005 min)   0.1 %
Analytical frequency calculation...      196.511 sec (=   3.275 min)  61.1 %
                             ****ORCA TERMINATED NORMALLY****
TOTAL RUN TIME: 0 days 0 hours 5 minutes 33 seconds 510 msec
