
                                 *****************
                                 * O   R   C   A *
                                 *****************

                                            #,                                       
                                            ###                                      
                                            ####                                     
                                            #####                                    
                                            ######                                   
                                           ########,                                 
                                     ,,################,,,,,                         
                               ,,#################################,,                 
                          ,,##########################################,,             
                       ,#########################################, ''#####,          
                    ,#############################################,,   '####,        
                  ,##################################################,,,,####,       
                ,###########''''           ''''###############################       
              ,#####''   ,,,,##########,,,,          '''####'''          '####       
            ,##' ,,,,###########################,,,                        '##       
           ' ,,###''''                  '''############,,,                           
         ,,##''                                '''############,,,,        ,,,,,,###''
      ,#''                                            '''#######################'''  
     '                                                          ''''####''''         
             ,#######,   #######,   ,#######,      ##                                
            ,#'     '#,  ##    ##  ,#'     '#,    #''#        ######   ,####,        
            ##       ##  ##   ,#'  ##            #'  '#       #        #'  '#        
            ##       ##  #######   ##           ,######,      #####,   #    #        
            '#,     ,#'  ##    ##  '#,     ,#' ,#      #,         ##   #,  ,#        
             '#######'   ##     ##  '#######'  #'      '#     #####' # '####'        



                  #######################################################
                  #                        -***-                        #
                  #          Department of theory and spectroscopy      #
                  #    Directorship and core code : Frank Neese         #
                  #        Max Planck Institute fuer Kohlenforschung    #
                  #                Kaiser Wilhelm Platz 1               #
                  #                 D-45470 Muelheim/Ruhr               #
                  #                      Germany                        #
                  #                                                     #
                  #                  All rights reserved                #
                  #                        -***-                        #
                  #######################################################


                         Program Version 5.0.4 -  RELEASE  -


 With contributions from (in alphabetic order):
   Daniel Aravena         : Magnetic Suceptibility
   Michael Atanasov       : Ab Initio Ligand Field Theory (pilot matlab implementation)
   Alexander A. Auer      : GIAO ZORA, VPT2 properties, NMR spectrum
   Ute Becker             : Parallelization
   Giovanni Bistoni       : ED, misc. LED, open-shell LED, HFLD
   Martin Brehm           : Molecular dynamics
   Dmytro Bykov           : SCF Hessian
   Vijay G. Chilkuri      : MRCI spin determinant printing, contributions to CSF-ICE
   Dipayan Datta          : RHF DLPNO-CCSD density
   Achintya Kumar Dutta   : EOM-CC, STEOM-CC
   Dmitry Ganyushin       : Spin-Orbit,Spin-Spin,Magnetic field MRCI
   Miquel Garcia          : C-PCM and meta-GGA Hessian, CC/C-PCM, Gaussian charge scheme
   Yang Guo               : DLPNO-NEVPT2, F12-NEVPT2, CIM, IAO-localization
   Andreas Hansen         : Spin unrestricted coupled pair/coupled cluster methods
   Benjamin Helmich-Paris : MC-RPA, TRAH-SCF, COSX integrals
   Lee Huntington         : MR-EOM, pCC
   Robert Izsak           : Overlap fitted RIJCOSX, COSX-SCS-MP3, EOM
   Marcus Kettner         : VPT2
   Christian Kollmar      : KDIIS, OOCD, Brueckner-CCSD(T), CCSD density, CASPT2, CASPT2-K
   Simone Kossmann        : Meta GGA functionals, TD-DFT gradient, OOMP2, MP2 Hessian
   Martin Krupicka        : Initial AUTO-CI
   Lucas Lang             : DCDCAS
   Marvin Lechner         : AUTO-CI (C++ implementation), FIC-MRCC
   Dagmar Lenk            : GEPOL surface, SMD
   Dimitrios Liakos       : Extrapolation schemes; Compound Job, initial MDCI parallelization
   Dimitrios Manganas     : Further ROCIS development; embedding schemes
   Dimitrios Pantazis     : SARC Basis sets
   Anastasios Papadopoulos: AUTO-CI, single reference methods and gradients
   Taras Petrenko         : DFT Hessian,TD-DFT gradient, ASA, ECA, R-Raman, ABS, FL, XAS/XES, NRVS
   Peter Pinski           : DLPNO-MP2, DLPNO-MP2 Gradient
   Christoph Reimann      : Effective Core Potentials
   Marius Retegan         : Local ZFS, SOC
   Christoph Riplinger    : Optimizer, TS searches, QM/MM, DLPNO-CCSD(T), (RO)-DLPNO pert. Triples
   Tobias Risthaus        : Range-separated hybrids, TD-DFT gradient, RPA, STAB
   Michael Roemelt        : Original ROCIS implementation
   Masaaki Saitow         : Open-shell DLPNO-CCSD energy and density
   Barbara Sandhoefer     : DKH picture change effects
   Avijit Sen             : IP-ROCIS
   Kantharuban Sivalingam : CASSCF convergence, NEVPT2, FIC-MRCI
   Bernardo de Souza      : ESD, SOC TD-DFT
   Georgi Stoychev        : AutoAux, RI-MP2 NMR, DLPNO-MP2 response
   Willem Van den Heuvel  : Paramagnetic NMR
   Boris Wezisla          : Elementary symmetry handling
   Frank Wennmohs         : Technical directorship


 We gratefully acknowledge several colleagues who have allowed us to
 interface, adapt or use parts of their codes:
   Stefan Grimme, W. Hujo, H. Kruse, P. Pracht,  : VdW corrections, initial TS optimization,
                  C. Bannwarth, S. Ehlert          DFT functionals, gCP, sTDA/sTD-DF
   Ed Valeev, F. Pavosevic, A. Kumar             : LibInt (2-el integral package), F12 methods
   Garnet Chan, S. Sharma, J. Yang, R. Olivares  : DMRG
   Ulf Ekstrom                                   : XCFun DFT Library
   Mihaly Kallay                                 : mrcc  (arbitrary order and MRCC methods)
   Jiri Pittner, Ondrej Demel                    : Mk-CCSD
   Frank Weinhold                                : gennbo (NPA and NBO analysis)
   Christopher J. Cramer and Donald G. Truhlar   : smd solvation model
   Lars Goerigk                                  : TD-DFT with DH, B97 family of functionals
   V. Asgeirsson, H. Jonsson                     : NEB implementation
   FAccTs GmbH                                   : IRC, NEB, NEB-TS, DLPNO-Multilevel, CI-OPT
                                                   MM, QMMM, 2- and 3-layer-ONIOM, Crystal-QMMM,
                                                   LR-CPCM, SF, NACMEs, symmetry and pop. for TD-DFT,
                                                   nearIR, NL-DFT gradient (VV10), updates on ESD,
                                                   ML-optimized integration grids
   S Lehtola, MJT Oliveira, MAL Marques          : LibXC Library
   Liviu Ungur et al                             : ANISO software


 Your calculation uses the libint2 library for the computation of 2-el integrals
 For citations please refer to: http://libint.valeyev.net

 Your ORCA version has been built with support for libXC version: 5.1.0
 For citations please refer to: https://tddft.org/programs/libxc/

 This ORCA versions uses:
   CBLAS   interface :  Fast vector & matrix operations
   LAPACKE interface :  Fast linear algebra routines
   SCALAPACK package :  Parallel linear algebra routines
   Shared memory     :  Shared parallel matrices
   BLAS/LAPACK       :  OpenBLAS 0.3.15  USE64BITINT DYNAMIC_ARCH NO_AFFINITY Haswell SINGLE_THREADED
        Core in use  :  Haswell
   Copyright (c) 2011-2014, The OpenBLAS Project


Your calculation utilizes the atom-pairwise dispersion correction
with the Becke-Johnson damping scheme (D3BJ)
Cite in your paper:
S.Grimme, S.Ehrlich, L.Goerigk, J Comput Chem, (2011), 32, 1456–1465 
S.Grimme, J.Antony, S.Ehrlich and H.Krieg, J.Chem.Phys., 132, (2010), 154104 
   

================================================================================

----- Orbital basis set information -----
Your calculation utilizes the basis: def2-TZVP
   F. Weigend and R. Ahlrichs, Phys. Chem. Chem. Phys. 7, 3297 (2005).

----- AuxJ basis set information -----
Your calculation utilizes the auxiliary basis: def2/J
   F. Weigend, Phys. Chem. Chem. Phys. 8, 1057 (2006).

================================================================================
                                        WARNINGS
                       Please study these warnings very carefully!
================================================================================


WARNING: Geometry Optimization
  ===> : Switching off AutoStart
         For restart on a previous wavefunction, please use MOREAD

INFO   : the flag for use of the SHARK integral package has been found!

================================================================================
                                       INPUT FILE
================================================================================
NAME = PhenO/PhenO.inp
|  1> %pal nprocs 24 end
|  2> %maxcore 3500
|  3> ! PBE0 D3BJ def2-TZVP TightSCF OPT FREQ TightOpt
|  4> ! CPCM(dmso)
|  5> %scf
|  6> MaxIter 800
|  7> end
|  8> %geom
|  9> MaxIter 800
| 10> MaxStep 0.2
| 11> end
| 12> *xyz -1 1
| 13> 
| 14> C       0.00000000     -0.54892000     -1.57569300
| 15> C      -0.00000000      0.66973000     -0.89903000
| 16> C       0.00000000     -1.71787200     -0.81654300
| 17> H       0.00000000      1.59695200     -1.46680800
| 18> H      -0.00000000     -2.68209200     -1.31888200
| 19> C       0.00000000      0.72570700      0.48376400
| 20> C       0.00000000     -1.67841800      0.56698000
| 21> H      -0.00000000      1.68776000      0.99030500
| 22> H      -0.00000000     -2.60385500      1.13770400
| 23> C       0.00000000     -0.44972400      1.29710100
| 24> H       0.00000000     -0.58616400     -2.65908000
| 25> O       0.00000000     -0.40509200      2.57502300
| 26> *
| 27> 
| 28>                          ****END OF INPUT****
================================================================================

                       *****************************
                       * Geometry Optimization Run *
                       *****************************

Geometry optimization settings:
Update method            Update   .... BFGS
Choice of coordinates    CoordSys .... Z-matrix Internals
Initial Hessian          InHess   .... Almoef's Model

Convergence Tolerances:
Energy Change            TolE     ....  1.0000e-06 Eh
Max. Gradient            TolMAXG  ....  1.0000e-04 Eh/bohr
RMS Gradient             TolRMSG  ....  3.0000e-05 Eh/bohr
Max. Displacement        TolMAXD  ....  1.0000e-03 bohr
RMS Displacement         TolRMSD  ....  6.0000e-04 bohr
Strict Convergence                ....  False
------------------------------------------------------------------------------
                        ORCA OPTIMIZATION COORDINATE SETUP
------------------------------------------------------------------------------

The optimization will be done in new redundant internal coordinates
Making redundant internal coordinates   ...  (new redundants) done
Evaluating the initial hessian          ...  (Almloef) done
Evaluating the coordinates              ...  done
Calculating the B-matrix                .... done
Calculating the G-matrix                .... done
Diagonalizing the G-matrix              .... done
The first mode is                       ....   24
The number of degrees of freedom        ....   30

    -----------------------------------------------------------------
                    Redundant Internal Coordinates


    -----------------------------------------------------------------
         Definition                    Initial Value    Approx d2E/dq
    -----------------------------------------------------------------
      1. B(C   1,C   0)                  1.3939         0.615890   
      2. B(C   2,C   0)                  1.3938         0.616071   
      3. B(H   3,C   1)                  1.0872         0.363756   
      4. B(H   4,C   2)                  1.0872         0.363786   
      5. B(C   5,C   1)                  1.3839         0.638893   
      6. B(C   6,C   2)                  1.3841         0.638521   
      7. B(H   7,C   5)                  1.0873         0.363746   
      8. B(H   8,C   6)                  1.0873         0.363727   
      9. B(C   9,C   6)                  1.4293         0.540894   
     10. B(C   9,C   5)                  1.4294         0.540623   
     11. B(H  10,C   0)                  1.0840         0.368089   
     12. B(O  11,C   9)                  1.2787         0.842259   
     13. A(C   1,C   0,H  10)          121.0104         0.353824   
     14. A(C   2,C   0,H  10)          121.0319         0.353842   
     15. A(C   1,C   0,C   2)          117.9577         0.433051   
     16. A(H   3,C   1,C   5)          119.1628         0.355316   
     17. A(C   0,C   1,H   3)          119.4776         0.353115   
     18. A(C   0,C   1,C   5)          121.3596         0.435896   
     19. A(C   0,C   2,H   4)          119.4806         0.353138   
     20. A(C   0,C   2,C   6)          121.3674         0.435873   
     21. A(H   4,C   2,C   6)          119.1521         0.355286   
     22. A(H   7,C   5,C   9)          117.5510         0.345435   
     23. A(C   1,C   5,C   9)          122.3631         0.425811   
     24. A(C   1,C   5,H   7)          120.0859         0.355315   
     25. A(H   8,C   6,C   9)          117.6177         0.345461   
     26. A(C   2,C   6,C   9)          122.3533         0.425805   
     27. A(C   2,C   6,H   8)          120.0290         0.355276   
     28. A(C   5,C   9,C   6)          114.5989         0.413354   
     29. A(C   6,C   9,O  11)          122.7201         0.444641   
     30. A(C   5,C   9,O  11)          122.6809         0.444601   
     31. D(C   5,C   1,C   0,C   2)      0.0000         0.026227   
     32. D(C   5,C   1,C   0,H  10)    180.0000         0.026227   
     33. D(H   3,C   1,C   0,H  10)      0.0000         0.026227   
     34. D(H   3,C   1,C   0,C   2)    180.0000         0.026227   
     35. D(C   6,C   2,C   0,C   1)      0.0000         0.026243   
     36. D(H   4,C   2,C   0,C   1)    180.0000         0.026243   
     37. D(H   4,C   2,C   0,H  10)      0.0000         0.026243   
     38. D(C   6,C   2,C   0,H  10)    180.0000         0.026243   
     39. D(C   9,C   5,C   1,H   3)    180.0000         0.028354   
     40. D(C   9,C   5,C   1,C   0)      0.0000         0.028354   
     41. D(H   7,C   5,C   1,H   3)      0.0000         0.028354   
     42. D(H   7,C   5,C   1,C   0)    180.0000         0.028354   
     43. D(C   9,C   6,C   2,C   0)      0.0000         0.028318   
     44. D(H   8,C   6,C   2,H   4)      0.0000         0.028318   
     45. D(H   8,C   6,C   2,C   0)    180.0000         0.028318   
     46. D(C   9,C   6,C   2,H   4)    180.0000         0.028318   
     47. D(O  11,C   9,C   6,H   8)      0.0000         0.019993   
     48. D(C   5,C   9,C   6,H   8)    180.0000         0.019993   
     49. D(C   5,C   9,C   6,C   2)      0.0000         0.019993   
     50. D(O  11,C   9,C   5,H   7)      0.0000         0.019972   
     51. D(O  11,C   9,C   5,C   1)    180.0000         0.019972   
     52. D(O  11,C   9,C   6,C   2)    180.0000         0.019993   
     53. D(C   6,C   9,C   5,H   7)    180.0000         0.019972   
     54. D(C   6,C   9,C   5,C   1)      0.0000         0.019972   
    -----------------------------------------------------------------

Number of atoms                         .... 12
Number of degrees of freedom            .... 54

         *************************************************************
         *                GEOMETRY OPTIMIZATION CYCLE   1            *
         *************************************************************
---------------------------------
CARTESIAN COORDINATES (ANGSTROEM)
---------------------------------
  C      0.000000   -0.548920   -1.575693
  C     -0.000000    0.669730   -0.899030
  C      0.000000   -1.717872   -0.816543
  H      0.000000    1.596952   -1.466808
  H     -0.000000   -2.682092   -1.318882
  C      0.000000    0.725707    0.483764
  C      0.000000   -1.678418    0.566980
  H     -0.000000    1.687760    0.990305
  H     -0.000000   -2.603855    1.137704
  C      0.000000   -0.449724    1.297101
  H      0.000000   -0.586164   -2.659080
  O      0.000000   -0.405092    2.575023

----------------------------
CARTESIAN COORDINATES (A.U.)
----------------------------
  NO LB      ZA    FRAG     MASS         X           Y           Z
   0 C     6.0000    0    12.011    0.000000   -1.037308   -2.977628
   1 C     6.0000    0    12.011   -0.000000    1.265606   -1.698920
   2 C     6.0000    0    12.011    0.000000   -3.246308   -1.543043
   3 H     1.0000    0     1.008    0.000000    3.017802   -2.771865
   4 H     1.0000    0     1.008   -0.000000   -5.068419   -2.492326
   5 C     6.0000    0    12.011    0.000000    1.371387    0.914181
   6 C     6.0000    0    12.011    0.000000   -3.171750    1.071437
   7 H     1.0000    0     1.008   -0.000000    3.189404    1.871405
   8 H     1.0000    0     1.008   -0.000000   -4.920573    2.149949
   9 C     6.0000    0    12.011    0.000000   -0.849855    2.451166
  10 H     1.0000    0     1.008    0.000000   -1.107689   -5.024933
  11 O     8.0000    0    15.999    0.000000   -0.765513    4.866088

--------------------------------
INTERNAL COORDINATES (ANGSTROEM)
--------------------------------
 C      0   0   0     0.000000000000     0.00000000     0.00000000
 C      1   0   0     1.393908403759     0.00000000     0.00000000
 C      1   2   0     1.393828361314   117.95768610     0.00000000
 H      2   1   3     1.087249968760   119.47757104   180.00000085
 H      3   1   2     1.087227979460   119.48058633   180.00000085
 C      2   1   3     1.383926541029   121.35962657     0.00000000
 C      3   1   2     1.384085441599   121.36735275     0.00000000
 H      6   2   1     1.087257908451   120.08587158   180.00000085
 H      7   3   1     1.087271596771   120.02898468   180.00000000
 C      7   3   1     1.429253518546   122.35331489     0.00000000
 H      1   2   3     1.084026986428   121.01040007   180.00000000
 O     10   7   3     1.278701158797   122.72011855   180.00000121

---------------------------
INTERNAL COORDINATES (A.U.)
---------------------------
 C      0   0   0     0.000000000000     0.00000000     0.00000000
 C      1   0   0     2.634105138875     0.00000000     0.00000000
 C      1   2   0     2.633953880576   117.95768610     0.00000000
 H      2   1   3     2.054604680070   119.47757104   180.00000085
 H      3   1   2     2.054563126316   119.48058633   180.00000085
 C      2   1   3     2.615242152010   121.35962657     0.00000000
 C      3   1   2     2.615542430569   121.36735275     0.00000000
 H      6   2   1     2.054619683913   120.08587158   180.00000085
 H      7   3   1     2.054645551088   120.02898468   180.00000000
 C      7   3   1     2.700897725996   122.35331489     0.00000000
 H      1   2   3     2.048514126130   121.01040007   180.00000000
 O     10   7   3     2.416394997253   122.72011855   180.00000121

---------------------
BASIS SET INFORMATION
---------------------
There are 3 groups of distinct atoms

 Group   1 Type C   : 11s6p2d1f contracted to 5s3p2d1f pattern {62111/411/11/1}
 Group   2 Type H   : 5s1p contracted to 3s1p pattern {311/1}
 Group   3 Type O   : 11s6p2d1f contracted to 5s3p2d1f pattern {62111/411/11/1}

Atom   0C    basis set group =>   1
Atom   1C    basis set group =>   1
Atom   2C    basis set group =>   1
Atom   3H    basis set group =>   2
Atom   4H    basis set group =>   2
Atom   5C    basis set group =>   1
Atom   6C    basis set group =>   1
Atom   7H    basis set group =>   2
Atom   8H    basis set group =>   2
Atom   9C    basis set group =>   1
Atom  10H    basis set group =>   2
Atom  11O    basis set group =>   3
---------------------------------
AUXILIARY/J BASIS SET INFORMATION
---------------------------------
There are 3 groups of distinct atoms

 Group   1 Type C   : 12s5p4d2f1g contracted to 6s4p3d1f1g pattern {711111/2111/211/2/1}
 Group   2 Type H   : 5s2p1d contracted to 3s1p1d pattern {311/2/1}
 Group   3 Type O   : 12s5p4d2f1g contracted to 6s4p3d1f1g pattern {711111/2111/211/2/1}

Atom   0C    basis set group =>   1
Atom   1C    basis set group =>   1
Atom   2C    basis set group =>   1
Atom   3H    basis set group =>   2
Atom   4H    basis set group =>   2
Atom   5C    basis set group =>   1
Atom   6C    basis set group =>   1
Atom   7H    basis set group =>   2
Atom   8H    basis set group =>   2
Atom   9C    basis set group =>   1
Atom  10H    basis set group =>   2
Atom  11O    basis set group =>   3


           ************************************************************
           *        Program running with 24 parallel MPI-processes    *
           *              working on a common directory               *
           ************************************************************
------------------------------------------------------------------------------
                           ORCA GTO INTEGRAL CALCULATION
                           -- RI-GTO INTEGRALS CHOSEN --
------------------------------------------------------------------------------
------------------------------------------------------------------------------
                   ___                                                        
                  /   \      - P O W E R E D   B Y -                         
                 /     \                                                     
                 |  |  |   _    _      __       _____    __    __             
                 |  |  |  | |  | |    /  \     |  _  \  |  |  /  |          
                  \  \/   | |  | |   /    \    | | | |  |  | /  /          
                 / \  \   | |__| |  /  /\  \   | |_| |  |  |/  /          
                |  |  |   |  __  | /  /__\  \  |    /   |      \           
                |  |  |   | |  | | |   __   |  |    \   |  |\   \          
                \     /   | |  | | |  |  |  |  | |\  \  |  | \   \       
                 \___/    |_|  |_| |__|  |__|  |_| \__\ |__|  \__/        
                                                                              
                      - O R C A' S   B I G   F R I E N D -                    
                                      &                                       
                       - I N T E G R A L  F E E D E R -                       
                                                                              
 v1 FN, 2020, v2 2021                                                         
------------------------------------------------------------------------------


Reading SHARK input file PhenO/PhenO.SHARKINP.tmp ... ok
----------------------
SHARK INTEGRAL PACKAGE
----------------------

Number of atoms                             ...     12
Number of basis functions                   ...    247
Number of shells                            ...     97
Maximum angular momentum                    ...      3
Integral batch strategy                     ... SHARK/LIBINT Hybrid
RI-J (if used) integral strategy            ... SPLIT-RIJ (Revised 2003 algorithm where possible)
Printlevel                                  ...      1
Contraction scheme used                     ... SEGMENTED contraction
Coulomb Range Separation                    ... NOT USED
Exchange Range Separation                   ... NOT USED
Finite Nucleus Model                        ... NOT USED
Auxiliary Coulomb fitting basis             ... AVAILABLE
   # of basis functions in Aux-J            ...    398
   # of shells in Aux-J                     ...    130
   Maximum angular momentum in Aux-J        ...      4
Auxiliary J/K fitting basis                 ... NOT available
Auxiliary Correlation fitting basis         ... NOT available
Auxiliary 'external' fitting basis          ... NOT available
Integral threshold                          ...     2.500000e-11
Primitive cut-off                           ...     2.500000e-12
Primitive pair pre-selection threshold      ...     2.500000e-12

Calculating pre-screening integrals         ... done (  0.1 sec) Dimension = 97
Organizing shell pair data                  ... done (  0.1 sec)
Shell pair information
Total number of shell pairs                 ...      4753
Shell pairs after pre-screening             ...      4501
Total number of primitive shell pairs       ...     14704
Primitive shell pairs kept                  ...     10788
          la=0 lb=0:   1151 shell pairs
          la=1 lb=0:   1238 shell pairs
          la=1 lb=1:    344 shell pairs
          la=2 lb=0:    670 shell pairs
          la=2 lb=1:    358 shell pairs
          la=2 lb=2:    102 shell pairs
          la=3 lb=0:    335 shell pairs
          la=3 lb=1:    179 shell pairs
          la=3 lb=2:     96 shell pairs
          la=3 lb=3:     28 shell pairs

Calculating one electron integrals          ... done (  0.0 sec)
Calculating RI/J V-Matrix + Cholesky decomp.... done (  0.1 sec)
Calculating Nuclear repulsion               ... done (  0.0 sec) ENN=    260.580352736077 Eh

SHARK setup successfully completed in   0.5 seconds

Maximum memory used throughout the entire GTOINT-calculation: 18.1 MB


           ************************************************************
           *        Program running with 24 parallel MPI-processes    *
           *              working on a common directory               *
           ************************************************************
-------------------------------------------------------------------------------
                                 ORCA SCF
-------------------------------------------------------------------------------

------------
SCF SETTINGS
------------
Hamiltonian:
 Density Functional     Method          .... DFT(GTOs)
 Exchange Functional    Exchange        .... PBE
   PBE kappa parameter   XKappa         ....  0.804000
   PBE mue parameter    XMuePBE         ....  0.219520
 Correlation Functional Correlation     .... PBE
   PBE beta parameter  CBetaPBE         ....  0.066725
 LDA part of GGA corr.  LDAOpt          .... PW91-LDA
 Gradients option       PostSCFGGA      .... off
 Hybrid DFT is turned on
   Fraction HF Exchange ScalHFX         ....  0.250000
   Scaling of DF-GGA-X  ScalDFX         ....  0.750000
   Scaling of DF-GGA-C  ScalDFC         ....  1.000000
   Scaling of DF-LDA-C  ScalLDAC        ....  1.000000
   Perturbative correction              ....  0.000000
   Density functional embedding theory  .... OFF
   NL short-range parameter             ....  6.900000
 RI-approximation to the Coulomb term is turned on
   Number of AuxJ basis functions       .... 398
   RIJ-COSX (HFX calculated with COS-X)).... on


General Settings:
 Integral files         IntName         .... PhenO/PhenO
 Hartree-Fock type      HFTyp           .... RHF
 Total Charge           Charge          ....   -1
 Multiplicity           Mult            ....    1
 Number of Electrons    NEL             ....   50
 Basis Dimension        Dim             ....  247
 Nuclear Repulsion      ENuc            ....    260.5803527361 Eh

Convergence Acceleration:
 DIIS                   CNVDIIS         .... on
   Start iteration      DIISMaxIt       ....    12
   Startup error        DIISStart       ....  0.200000
   # of expansion vecs  DIISMaxEq       ....     5
   Bias factor          DIISBfac        ....   1.050
   Max. coefficient     DIISMaxC        ....  10.000
 Trust-Rad. Augm. Hess. CNVTRAH         .... auto
   Auto Start mean grad. ratio tolernc. ....  1.125000
   Auto Start start iteration           ....    20
   Auto Start num. interpolation iter.  ....    10
   Max. Number of Micro iterations      ....    16
   Max. Number of Macro iterations      .... Maxiter - #DIIS iter
   Number of Davidson start vectors     ....     2
   Converg. threshold I  (grad. norm)   ....   1.000e-05
   Converg. threshold II (energy diff.) ....   1.000e-08
   Grad. Scal. Fac. for Micro threshold ....   0.100
   Minimum threshold for Micro iter.    ....   0.010
   NR start threshold (gradient norm)   ....   0.001
   Initial trust radius                 ....   0.400
   Minimum AH scaling param. (alpha)    ....   1.000
   Maximum AH scaling param. (alpha)    .... 1000.000
   Orbital update algorithm             .... Taylor
   White noise on init. David. guess    .... on
   Maximum white noise                  ....   0.010
   Quad. conv. algorithm                .... NR
 SOSCF                  CNVSOSCF        .... on
   Start iteration      SOSCFMaxIt      ....   150
   Startup grad/error   SOSCFStart      ....  0.003300
 Level Shifting         CNVShift        .... on
   Level shift para.    LevelShift      ....    0.2500
   Turn off err/grad.   ShiftErr        ....    0.0010
 Zerner damping         CNVZerner       .... off
 Static damping         CNVDamp         .... on
   Fraction old density DampFac         ....    0.7000
   Max. Damping (<1)    DampMax         ....    0.9800
   Min. Damping (>=0)   DampMin         ....    0.0000
   Turn off err/grad.   DampErr         ....    0.1000
 Fernandez-Rico         CNVRico         .... off

SCF Procedure:
 Maximum # iterations   MaxIter         ....   800
 SCF integral mode      SCFMode         .... Direct
   Integral package                     .... SHARK and LIBINT hybrid scheme
 Reset frequency        DirectResetFreq ....    20
 Integral Threshold     Thresh          ....  2.500e-11 Eh
 Primitive CutOff       TCut            ....  2.500e-12 Eh

Convergence Tolerance:
 Convergence Check Mode ConvCheckMode   .... Total+1el-Energy
 Convergence forced     ConvForced      .... 0
 Energy Change          TolE            ....  1.000e-08 Eh
 1-El. energy change                    ....  1.000e-05 Eh
 Orbital Gradient       TolG            ....  1.000e-05
 Orbital Rotation angle TolX            ....  1.000e-05
 DIIS Error             TolErr          ....  5.000e-07


Diagonalization of the overlap matrix:
Smallest eigenvalue                        ... 1.277e-05
Time for diagonalization                   ...    0.018 sec
Threshold for overlap eigenvalues          ... 1.000e-08
Number of eigenvalues below threshold      ... 0
Time for construction of square roots      ...    0.018 sec
Total time needed                          ...    0.038 sec

Time for model grid setup =    0.082 sec

------------------------------
INITIAL GUESS: MODEL POTENTIAL
------------------------------
Loading Hartree-Fock densities                     ... done
Calculating cut-offs                               ... done
Initializing the effective Hamiltonian             ... done
Setting up the integral package (SHARK)            ... done
Starting the Coulomb interaction                   ... done (   0.1 sec)
Reading the grid                                   ... done
Mapping shells                                     ... done
Starting the XC term evaluation                    ... done (   0.0 sec)
  promolecular density results
     # of electrons  =     48.998471326
     EX              =    -40.258468958
     EC              =     -1.616280473
     EX+EC           =    -41.874749431
Transforming the Hamiltonian                       ... done (   0.0 sec)
Diagonalizing the Hamiltonian                      ... done (   0.0 sec)
Back transforming the eigenvectors                 ... done (   0.0 sec)
Now organizing SCF variables                       ... done
                      ------------------
                      INITIAL GUESS DONE (   0.3 sec)
                      ------------------
-------------------
DFT GRID GENERATION
-------------------

General Integration Accuracy     IntAcc      ... 4.388
Radial Grid Type                 RadialGrid  ... OptM3 with GC (2021)
Angular Grid (max. ang.)         AngularGrid ... 4 (Lebedev-302)
Angular grid pruning method      GridPruning ... 4 (adaptive)
Weight generation scheme         WeightScheme... Becke
Basis function cutoff            BFCut       ... 1.0000e-11
Integration weight cutoff        WCut        ... 1.0000e-14
Angular grids for H and He will be reduced by one unit
Partially contracted basis set               ... off
Rotationally invariant grid construction     ... off

Total number of grid points                  ...    58360
Total number of batches                      ...      920
Average number of points per batch           ...       63
Average number of grid points per atom       ...     4863
Time for grid setup =    0.308 sec

--------------------
COSX GRID GENERATION
--------------------

GRIDX 1
-------
General Integration Accuracy     IntAcc      ... 3.816
Radial Grid Type                 RadialGrid  ... OptM3 with GC (2021)
Angular Grid (max. ang.)         AngularGrid ... 1 (Lebedev-50)
Angular grid pruning method      GridPruning ... 4 (adaptive)
Weight generation scheme         WeightScheme... Becke
Basis function cutoff            BFCut       ... 1.0000e-11
Integration weight cutoff        WCut        ... 1.0000e-14
Angular grids for H and He will be reduced by one unit
Partially contracted basis set               ... on
Rotationally invariant grid construction     ... off

Total number of grid points                  ...     7456
Total number of batches                      ...      120
Average number of points per batch           ...       62
Average number of grid points per atom       ...      621
UseSFitting                                  ... on

GRIDX 2
-------
General Integration Accuracy     IntAcc      ... 4.020
Radial Grid Type                 RadialGrid  ... OptM3 with GC (2021)
Angular Grid (max. ang.)         AngularGrid ... 2 (Lebedev-110)
Angular grid pruning method      GridPruning ... 4 (adaptive)
Weight generation scheme         WeightScheme... Becke
Basis function cutoff            BFCut       ... 1.0000e-11
Integration weight cutoff        WCut        ... 1.0000e-14
Angular grids for H and He will be reduced by one unit
Partially contracted basis set               ... on
Rotationally invariant grid construction     ... off

Total number of grid points                  ...    16524
Total number of batches                      ...      263
Average number of points per batch           ...       62
Average number of grid points per atom       ...     1377
UseSFitting                                  ... on

GRIDX 3
-------
General Integration Accuracy     IntAcc      ... 4.338
Radial Grid Type                 RadialGrid  ... OptM3 with GC (2021)
Angular Grid (max. ang.)         AngularGrid ... 3 (Lebedev-194)
Angular grid pruning method      GridPruning ... 4 (adaptive)
Weight generation scheme         WeightScheme... Becke
Basis function cutoff            BFCut       ... 1.0000e-11
Integration weight cutoff        WCut        ... 1.0000e-14
Angular grids for H and He will be reduced by one unit
Partially contracted basis set               ... on
Rotationally invariant grid construction     ... off

Total number of grid points                  ...    36447
Total number of batches                      ...      574
Average number of points per batch           ...       63
Average number of grid points per atom       ...     3037
UseSFitting                                  ... on

Time for X-Grid setup             =    0.442 sec


--------------------
CPCM SOLVATION MODEL
--------------------
CPCM parameters:
  Epsilon                                         ...      47.2000
  Refrac                                          ...       1.4790
  Rsolv                                           ...       1.3000
  Surface type                                    ... GAUSSIAN VDW
  Epsilon function type                           ...         CPCM
Radii:
 Radius for C  used is    3.8550 Bohr (=   2.0400 Ang.)
 Radius for H  used is    2.4944 Bohr (=   1.3200 Ang.)
 Radius for O  used is    3.4469 Bohr (=   1.8240 Ang.)
Calculating surface                               ...        done! (  0.0s)
GEPOL surface points                              ...          705
GEPOL Volume                                      ...     822.7484
GEPOL Surface-area                                ...     475.2068
Calculating surface distance matrix               ...        done! (  0.0s)
Performing Cholesky decomposition & store         ...        done! (  0.0s)
Overall time for CPCM initialization              ...                 0.0s
--------------
SCF ITERATIONS
--------------
ITER       Energy         Delta-E        Max-DP      RMS-DP      [F,P]     Damp
               ***  Starting incremental Fock matrix formation  ***
  0   -306.4803558651   0.000000000000 0.39438337  0.00591036  0.3350594 0.7000
  1   -306.6036486520  -0.123292786851 0.37804589  0.00553583  0.1445688 0.7000
                               ***Turning on DIIS***
  2   -306.6551412453  -0.051492593339 0.39309358  0.00640650  0.0435684 0.0000
  3   -306.7326087914  -0.077467546059 0.38174380  0.00535045  0.0837272 0.0000
  4   -306.7508862591  -0.018277467672 0.07688631  0.00108405  0.0141390 0.0000
  5   -306.7518146129  -0.000928353866 0.04220336  0.00061034  0.0104967 0.0000
                      *** Initiating the SOSCF procedure ***
                           *** Shutting down DIIS ***
                      *** Re-Reading the Fockian *** 
                      *** Removing any level shift *** 
ITER      Energy       Delta-E        Grad      Rot      Max-DP    RMS-DP
  6   -306.75194356  -0.0001289461  0.000453  0.000453  0.019519  0.000292
               *** Restarting incremental Fock matrix formation ***
  7   -306.75193742   0.0000061388  0.000121  0.000410  0.003407  0.000046
  8   -306.75193704   0.0000003758  0.000169  0.000247  0.002415  0.000035
  9   -306.75193776  -0.0000007179  0.000021  0.000042  0.000133  0.000002
 10   -306.75193776   0.0000000028  0.000027  0.000025  0.000134  0.000003
                  ***Gradient check signals convergence***
              ***Rediagonalizing the Fockian in SOSCF/NRSCF***

               *****************************************************
               *                     SUCCESS                       *
               *           SCF CONVERGED AFTER  11 CYCLES          *
               *****************************************************

Old exchange energy                            =    -10.337525660 Eh
New exchange energy                            =    -10.337506323 Eh
Exchange energy change after final integration =      0.000019336 Eh
Total energy after final integration           =   -306.751918440 Eh
Final COS-X integration done in                =     1.021 sec

----------------
TOTAL SCF ENERGY
----------------

Total Energy       :         -306.75191844 Eh           -8347.14406 eV

Components:
Nuclear Repulsion  :          260.58035274 Eh            7090.75188 eV
Electronic Energy  :         -567.33227118 Eh          -15437.89595 eV
One Electron Energy:         -941.75295559 Eh          -25626.40074 eV
Two Electron Energy:          374.42068442 Eh           10188.50480 eV
Max COSX asymmetry :            0.00000164 Eh               0.00004 eV
CPCM Dielectric    :           -0.10141282 Eh              -2.75958 eV

Virial components:
Potential Energy   :         -612.08719596 Eh          -16655.73936 eV
Kinetic Energy     :          305.33527752 Eh            8308.59530 eV
Virial Ratio       :            2.00463962


DFT components:
N(Alpha)           :       25.000028472319 electrons
N(Beta)            :       25.000028472319 electrons
N(Total)           :       50.000056944638 electrons
E(X)               :      -30.946095140317 Eh       
E(C)               :       -1.660960679149 Eh       
E(XC)              :      -32.607055819465 Eh       
DFET-embed. en.    :        0.000000000000 Eh       
CPCM Solvation Model Properties:
Surface-charge          :            0.96953464
Charge-correction       :           -0.00460328 Eh              -0.12526 eV
Free-energy (cav+disp)  :  This term is not implemented in the current solvation scheme

---------------
SCF CONVERGENCE
---------------

  Last Energy change         ...   -1.6924e-08  Tolerance :   1.0000e-08
  Last MAX-Density change    ...    1.4433e-15  Tolerance :   1.0000e-07
  Last RMS-Density change    ...    1.9284e-17  Tolerance :   5.0000e-09
  Last Orbital Gradient      ...    1.0401e-06  Tolerance :   1.0000e-05
  Last Orbital Rotation      ...    4.7480e-06  Tolerance :   1.0000e-05

             **** THE GBW FILE WAS UPDATED (PhenO/PhenO.gbw) ****
             **** DENSITY PhenO/PhenO.scfp WAS UPDATED ****
             **** ENERGY FILE WAS UPDATED (PhenO/PhenO.en.tmp) ****
             **** THE GBW FILE WAS UPDATED (PhenO/PhenO.gbw) ****
             **** DENSITY PhenO/PhenO.scfp WAS UPDATED ****
----------------
ORBITAL ENERGIES
----------------

  NO   OCC          E(Eh)            E(eV) 
   0   2.0000     -19.109105      -519.9852 
   1   2.0000     -10.240716      -278.6641 
   2   2.0000     -10.203357      -277.6474 
   3   2.0000     -10.203348      -277.6472 
   4   2.0000     -10.188454      -277.2419 
   5   2.0000     -10.184355      -277.1304 
   6   2.0000     -10.184331      -277.1297 
   7   2.0000      -0.974592       -26.5200 
   8   2.0000      -0.839153       -22.8345 
   9   2.0000      -0.740602       -20.1528 
  10   2.0000      -0.709678       -19.3113 
  11   2.0000      -0.594444       -16.1756 
  12   2.0000      -0.572661       -15.5829 
  13   2.0000      -0.496068       -13.4987 
  14   2.0000      -0.444877       -12.1057 
  15   2.0000      -0.438190       -11.9238 
  16   2.0000      -0.403146       -10.9702 
  17   2.0000      -0.391468       -10.6524 
  18   2.0000      -0.379546       -10.3280 
  19   2.0000      -0.342537        -9.3209 
  20   2.0000      -0.331119        -9.0102 
  21   2.0000      -0.308817        -8.4033 
  22   2.0000      -0.246132        -6.6976 
  23   2.0000      -0.217162        -5.9093 
  24   2.0000      -0.177591        -4.8325 
  25   0.0000       0.016251         0.4422 
  26   0.0000       0.045134         1.2282 
  27   0.0000       0.079675         2.1681 
  28   0.0000       0.105626         2.8742 
  29   0.0000       0.114032         3.1030 
  30   0.0000       0.130943         3.5631 
  31   0.0000       0.142185         3.8691 
  32   0.0000       0.153233         4.1697 
  33   0.0000       0.183620         4.9966 
  34   0.0000       0.189079         5.1451 
  35   0.0000       0.223571         6.0837 
  36   0.0000       0.230515         6.2726 
  37   0.0000       0.236353         6.4315 
  38   0.0000       0.245027         6.6675 
  39   0.0000       0.263563         7.1719 
  40   0.0000       0.270563         7.3624 
  41   0.0000       0.271700         7.3933 
  42   0.0000       0.277486         7.5508 
  43   0.0000       0.308117         8.3843 
  44   0.0000       0.348934         9.4950 
  45   0.0000       0.349068         9.4986 
  46   0.0000       0.362859         9.8739 
  47   0.0000       0.368077        10.0159 
  48   0.0000       0.378062        10.2876 
  49   0.0000       0.384806        10.4711 
  50   0.0000       0.417937        11.3726 
  51   0.0000       0.425717        11.5844 
  52   0.0000       0.441334        12.0093 
  53   0.0000       0.446337        12.1455 
  54   0.0000       0.453604        12.3432 
  55   0.0000       0.456289        12.4162 
  56   0.0000       0.468327        12.7438 
  57   0.0000       0.492987        13.4149 
  58   0.0000       0.504784        13.7359 
  59   0.0000       0.509947        13.8764 
  60   0.0000       0.521335        14.1862 
  61   0.0000       0.527918        14.3654 
  62   0.0000       0.534726        14.5506 
  63   0.0000       0.551359        15.0033 
  64   0.0000       0.611158        16.6305 
  65   0.0000       0.661031        17.9876 
  66   0.0000       0.668977        18.2038 
  67   0.0000       0.672835        18.3088 
  68   0.0000       0.705056        19.1856 
  69   0.0000       0.729321        19.8458 
  70   0.0000       0.753326        20.4991 
  71   0.0000       0.759028        20.6542 
  72   0.0000       0.773670        21.0526 
  73   0.0000       0.794251        21.6127 
  74   0.0000       0.799677        21.7603 
  75   0.0000       0.833934        22.6925 
  76   0.0000       0.858743        23.3676 
  77   0.0000       0.887498        24.1500 
  78   0.0000       0.896792        24.4030 
  79   0.0000       0.902209        24.5503 
  80   0.0000       0.902661        24.5627 
  81   0.0000       0.909383        24.7456 
  82   0.0000       1.032881        28.1061 
  83   0.0000       1.037387        28.2287 
  84   0.0000       1.065009        28.9804 
  85   0.0000       1.070435        29.1280 
  86   0.0000       1.082798        29.4644 
  87   0.0000       1.107650        30.1407 
  88   0.0000       1.202267        32.7153 
  89   0.0000       1.208857        32.8947 
  90   0.0000       1.221812        33.2472 
  91   0.0000       1.232139        33.5282 
  92   0.0000       1.239001        33.7149 
  93   0.0000       1.247325        33.9414 
  94   0.0000       1.264149        34.3993 
  95   0.0000       1.305184        35.5159 
  96   0.0000       1.314863        35.7792 
  97   0.0000       1.350662        36.7534 
  98   0.0000       1.427544        38.8454 
  99   0.0000       1.436413        39.0868 
 100   0.0000       1.450147        39.4605 
 101   0.0000       1.486834        40.4588 
 102   0.0000       1.487988        40.4902 
 103   0.0000       1.494653        40.6716 
 104   0.0000       1.535551        41.7845 
 105   0.0000       1.546690        42.0876 
 106   0.0000       1.571001        42.7491 
 107   0.0000       1.596402        43.4403 
 108   0.0000       1.596992        43.4564 
 109   0.0000       1.676151        45.6104 
 110   0.0000       1.690087        45.9896 
 111   0.0000       1.696398        46.1613 
 112   0.0000       1.699663        46.2502 
 113   0.0000       1.735095        47.2143 
 114   0.0000       1.756817        47.8054 
 115   0.0000       1.794641        48.8347 
 116   0.0000       1.794891        48.8415 
 117   0.0000       1.853017        50.4231 
 118   0.0000       1.854021        50.4505 
 119   0.0000       1.883822        51.2614 
 120   0.0000       1.952229        53.1229 
 121   0.0000       1.954385        53.1815 
 122   0.0000       1.972480        53.6739 
 123   0.0000       2.074110        56.4394 
 124   0.0000       2.077263        56.5252 
 125   0.0000       2.091907        56.9237 
 126   0.0000       2.104276        57.2603 
 127   0.0000       2.151949        58.5575 
 128   0.0000       2.170495        59.0622 
 129   0.0000       2.211815        60.1865 
 130   0.0000       2.249083        61.2007 
 131   0.0000       2.278517        62.0016 
 132   0.0000       2.284345        62.1602 
 133   0.0000       2.287453        62.2448 
 134   0.0000       2.377772        64.7025 
 135   0.0000       2.430852        66.1468 
 136   0.0000       2.453700        66.7686 
 137   0.0000       2.536083        69.0103 
 138   0.0000       2.546265        69.2874 
 139   0.0000       2.579925        70.2033 
 140   0.0000       2.589781        70.4715 
 141   0.0000       2.621827        71.3435 
 142   0.0000       2.623228        71.3817 
 143   0.0000       2.626942        71.4827 
 144   0.0000       2.692220        73.2590 
 145   0.0000       2.700371        73.4808 
 146   0.0000       2.707781        73.6825 
 147   0.0000       2.709435        73.7275 
 148   0.0000       2.719513        74.0017 
 149   0.0000       2.732142        74.3454 
 150   0.0000       2.778599        75.6095 
 151   0.0000       2.795771        76.0768 
 152   0.0000       2.806695        76.3741 
 153   0.0000       2.822079        76.7927 
 154   0.0000       2.823250        76.8245 
 155   0.0000       2.862251        77.8858 
 156   0.0000       2.875520        78.2469 
 157   0.0000       2.882692        78.4420 
 158   0.0000       2.907064        79.1052 
 159   0.0000       2.907582        79.1193 
 160   0.0000       2.931155        79.7608 
 161   0.0000       2.950906        80.2982 
 162   0.0000       3.033090        82.5346 
 163   0.0000       3.067631        83.4745 
 164   0.0000       3.075772        83.6960 
 165   0.0000       3.081640        83.8557 
 166   0.0000       3.130860        85.1950 
 167   0.0000       3.145717        85.5993 
 168   0.0000       3.167669        86.1967 
 169   0.0000       3.173997        86.3689 
 170   0.0000       3.177608        86.4671 
 171   0.0000       3.221332        87.6569 
 172   0.0000       3.237879        88.1072 
 173   0.0000       3.249891        88.4340 
 174   0.0000       3.265762        88.8659 
 175   0.0000       3.271142        89.0123 
 176   0.0000       3.271715        89.0279 
 177   0.0000       3.295974        89.6880 
 178   0.0000       3.330077        90.6160 
 179   0.0000       3.345273        91.0295 
 180   0.0000       3.387900        92.1895 
 181   0.0000       3.417919        93.0063 
 182   0.0000       3.454398        93.9989 
 183   0.0000       3.455686        94.0340 
 184   0.0000       3.461589        94.1946 
 185   0.0000       3.512472        95.5792 
 186   0.0000       3.516750        95.6956 
 187   0.0000       3.536125        96.2229 
 188   0.0000       3.543387        96.4205 
 189   0.0000       3.546674        96.5099 
 190   0.0000       3.584355        97.5352 
 191   0.0000       3.633068        98.8608 
 192   0.0000       3.698630       100.6448 
 193   0.0000       3.744367       101.8894 
 194   0.0000       3.818326       103.9019 
 195   0.0000       3.836504       104.3966 
 196   0.0000       3.837621       104.4270 
 197   0.0000       3.847036       104.6832 
 198   0.0000       3.952181       107.5443 
 199   0.0000       4.038176       109.8844 
 200   0.0000       4.063727       110.5796 
 201   0.0000       4.083957       111.1301 
 202   0.0000       4.088302       111.2484 
 203   0.0000       4.096962       111.4840 
 204   0.0000       4.166619       113.3795 
 205   0.0000       4.173871       113.5768 
 206   0.0000       4.223161       114.9181 
 207   0.0000       4.247521       115.5809 
 208   0.0000       4.273216       116.2801 
 209   0.0000       4.286708       116.6473 
 210   0.0000       4.293948       116.8443 
 211   0.0000       4.319825       117.5484 
 212   0.0000       4.325444       117.7013 
 213   0.0000       4.559616       124.0734 
 214   0.0000       4.602138       125.2306 
 215   0.0000       4.652558       126.6025 
 216   0.0000       4.687416       127.5511 
 217   0.0000       4.714175       128.2792 
 218   0.0000       4.735111       128.8489 
 219   0.0000       4.863753       132.3494 
 220   0.0000       4.879900       132.7888 
 221   0.0000       4.919046       133.8541 
 222   0.0000       5.139695       139.8582 
 223   0.0000       5.141269       139.9010 
 224   0.0000       5.240413       142.5989 
 225   0.0000       5.281968       143.7297 
 226   0.0000       5.326466       144.9405 
 227   0.0000       5.330216       145.0426 
 228   0.0000       5.409174       147.1911 
 229   0.0000       5.604644       152.5101 
 230   0.0000       5.627107       153.1214 
 231   0.0000       5.790401       157.5648 
 232   0.0000       6.085955       165.6073 
 233   0.0000       6.392468       173.9479 
 234   0.0000       6.464302       175.9026 
 235   0.0000       6.636697       180.5937 
 236   0.0000       6.662494       181.2957 
 237   0.0000       6.883035       187.2969 
 238   0.0000       7.117979       193.6901 
 239   0.0000       7.121345       193.7817 
 240   0.0000      22.101326       601.4077 
 241   0.0000      22.663220       616.6976 
 242   0.0000      22.699349       617.6807 
 243   0.0000      22.781362       619.9124 
 244   0.0000      22.937679       624.1660 
 245   0.0000      23.439909       637.8324 
 246   0.0000      44.078183      1199.4283 

                    ********************************
                    * MULLIKEN POPULATION ANALYSIS *
                    ********************************

-----------------------
MULLIKEN ATOMIC CHARGES
-----------------------
   0 C :   -0.232557
   1 C :   -0.168611
   2 C :   -0.168264
   3 H :    0.129053
   4 H :    0.129104
   5 C :   -0.293688
   6 C :   -0.294229
   7 H :    0.095501
   8 H :    0.095423
   9 C :    0.252189
  10 H :    0.130408
  11 O :   -0.674329
Sum of atomic charges:   -1.0000000

--------------------------------
MULLIKEN REDUCED ORBITAL CHARGES
--------------------------------
  0 C s       :     3.167325  s :     3.167325
      pz      :     0.960215  p :     2.967521
      px      :     1.100827
      py      :     0.906480
      dz2     :     0.027096  d :     0.090553
      dxz     :     0.005721
      dyz     :     0.021392
      dx2y2   :     0.014928
      dxy     :     0.021417
      f0      :     0.000912  f :     0.007157
      f+1     :     0.000155
      f-1     :     0.001928
      f+2     :     0.000810
      f-2     :     0.001125
      f+3     :     0.001439
      f-3     :     0.000789
  1 C s       :     3.174749  s :     3.174749
      pz      :     0.941563  p :     2.885347
      px      :     0.973883
      py      :     0.969901
      dz2     :     0.019718  d :     0.101263
      dxz     :     0.024442
      dyz     :     0.037108
      dx2y2   :     0.008927
      dxy     :     0.011067
      f0      :     0.000758  f :     0.007252
      f+1     :     0.001474
      f-1     :     0.002112
      f+2     :     0.000755
      f-2     :     0.000434
      f+3     :     0.001049
      f-3     :     0.000670
  2 C s       :     3.174150  s :     3.174150
      pz      :     0.938331  p :     2.885644
      px      :     0.973822
      py      :     0.973491
      dz2     :     0.021750  d :     0.101220
      dxz     :     0.025995
      dyz     :     0.034790
      dx2y2   :     0.009175
      dxy     :     0.009511
      f0      :     0.000814  f :     0.007250
      f+1     :     0.001452
      f-1     :     0.002091
      f+2     :     0.000705
      f-2     :     0.000571
      f+3     :     0.000933
      f-3     :     0.000683
  3 H s       :     0.849215  s :     0.849215
      pz      :     0.006323  p :     0.021732
      px      :     0.004768
      py      :     0.010642
  4 H s       :     0.849159  s :     0.849159
      pz      :     0.005762  p :     0.021737
      px      :     0.004769
      py      :     0.011206
  5 C s       :     3.241654  s :     3.241654
      pz      :     0.917855  p :     2.965882
      px      :     1.099560
      py      :     0.948467
      dz2     :     0.018226  d :     0.079161
      dxz     :     0.016791
      dyz     :     0.029842
      dx2y2   :     0.008037
      dxy     :     0.006265
      f0      :     0.001023  f :     0.006991
      f+1     :     0.001420
      f-1     :     0.002052
      f+2     :     0.000771
      f-2     :     0.000436
      f+3     :     0.000680
      f-3     :     0.000609
  6 C s       :     3.242040  s :     3.242040
      pz      :     0.918801  p :     2.966014
      px      :     1.099752
      py      :     0.947461
      dz2     :     0.017782  d :     0.079185
      dxz     :     0.016065
      dyz     :     0.030312
      dx2y2   :     0.008045
      dxy     :     0.006981
      f0      :     0.000931  f :     0.006990
      f+1     :     0.001405
      f-1     :     0.002116
      f+2     :     0.000798
      f-2     :     0.000371
      f+3     :     0.000760
      f-3     :     0.000611
  7 H s       :     0.882191  s :     0.882191
      pz      :     0.005549  p :     0.022309
      px      :     0.005682
      py      :     0.011077
  8 H s       :     0.882269  s :     0.882269
      pz      :     0.006102  p :     0.022307
      px      :     0.005684
      py      :     0.010522
  9 C s       :     2.946754  s :     2.946754
      pz      :     0.864726  p :     2.620604
      px      :     0.843956
      py      :     0.911922
      dz2     :     0.032072  d :     0.163715
      dxz     :     0.056625
      dyz     :     0.045118
      dx2y2   :     0.012410
      dxy     :     0.017490
      f0      :     0.002731  f :     0.016739
      f+1     :     0.003373
      f-1     :     0.006971
      f+2     :     0.000771
      f-2     :     0.001050
      f+3     :     0.001257
      f-3     :     0.000586
 10 H s       :     0.847179  s :     0.847179
      pz      :     0.012889  p :     0.022413
      px      :     0.005880
      py      :     0.003644
 11 O s       :     3.780049  s :     3.780049
      pz      :     1.373318  p :     4.865804
      px      :     1.635205
      py      :     1.857281
      dz2     :     0.012281  d :     0.026897
      dxz     :     0.007921
      dyz     :     0.006535
      dx2y2   :     0.000100
      dxy     :     0.000060
      f0      :     0.000669  f :     0.001579
      f+1     :     0.000469
      f-1     :     0.000424
      f+2     :     0.000007
      f-2     :     0.000006
      f+3     :     0.000002
      f-3     :     0.000002


                     *******************************
                     * LOEWDIN POPULATION ANALYSIS *
                     *******************************

----------------------
LOEWDIN ATOMIC CHARGES
----------------------
   0 C :   -0.244452
   1 C :   -0.198639
   2 C :   -0.198600
   3 H :    0.142580
   4 H :    0.142588
   5 C :   -0.199704
   6 C :   -0.199803
   7 H :    0.133428
   8 H :    0.133408
   9 C :   -0.441192
  10 H :    0.137041
  11 O :   -0.206656

-------------------------------
LOEWDIN REDUCED ORBITAL CHARGES
-------------------------------
  0 C s       :     2.764903  s :     2.764903
      pz      :     0.988369  p :     3.046602
      px      :     0.992792
      py      :     1.065441
      dz2     :     0.123935  d :     0.390213
      dxz     :     0.015694
      dyz     :     0.104406
      dx2y2   :     0.068800
      dxy     :     0.077377
      f0      :     0.004399  f :     0.042735
      f+1     :     0.000209
      f-1     :     0.014654
      f+2     :     0.006627
      f-2     :     0.007693
      f+3     :     0.003873
      f-3     :     0.005279
  1 C s       :     2.768641  s :     2.768641
      pz      :     1.059589  p :     2.966295
      px      :     0.894453
      py      :     1.012253
      dz2     :     0.097340  d :     0.420131
      dxz     :     0.084092
      dyz     :     0.155895
      dx2y2   :     0.045274
      dxy     :     0.037530
      f0      :     0.007196  f :     0.043572
      f+1     :     0.006597
      f-1     :     0.014647
      f+2     :     0.004542
      f-2     :     0.002936
      f+3     :     0.003804
      f-3     :     0.003850
  2 C s       :     2.768647  s :     2.768647
      pz      :     1.064779  p :     2.966257
      px      :     0.894428
      py      :     1.007050
      dz2     :     0.104520  d :     0.420130
      dxz     :     0.089986
      dyz     :     0.147673
      dx2y2   :     0.046304
      dxy     :     0.031647
      f0      :     0.007339  f :     0.043567
      f+1     :     0.006205
      f-1     :     0.014736
      f+2     :     0.004480
      f-2     :     0.003899
      f+3     :     0.003232
      f-3     :     0.003676
  3 H s       :     0.798606  s :     0.798606
      pz      :     0.017394  p :     0.058814
      px      :     0.013489
      py      :     0.027930
  4 H s       :     0.798596  s :     0.798596
      pz      :     0.016040  p :     0.058816
      px      :     0.013489
      py      :     0.029287
  5 C s       :     2.776766  s :     2.776766
      pz      :     1.053456  p :     3.018664
      px      :     0.977596
      py      :     0.987612
      dz2     :     0.098124  d :     0.364798
      dxz     :     0.058432
      dyz     :     0.144353
      dx2y2   :     0.043965
      dxy     :     0.019924
      f0      :     0.007498  f :     0.039475
      f+1     :     0.005733
      f-1     :     0.013646
      f+2     :     0.004522
      f-2     :     0.002809
      f+3     :     0.001977
      f-3     :     0.003291
  6 C s       :     2.776774  s :     2.776774
      pz      :     1.050104  p :     3.018792
      px      :     0.977722
      py      :     0.990965
      dz2     :     0.092777  d :     0.364765
      dxz     :     0.055306
      dyz     :     0.150244
      dx2y2   :     0.043400
      dxy     :     0.023037
      f0      :     0.007238  f :     0.039472
      f+1     :     0.005871
      f-1     :     0.013740
      f+2     :     0.004496
      f-2     :     0.002289
      f+3     :     0.002358
      f-3     :     0.003479
  7 H s       :     0.805951  s :     0.805951
      pz      :     0.015537  p :     0.060621
      px      :     0.015993
      py      :     0.029091
  8 H s       :     0.805968  s :     0.805968
      pz      :     0.016872  p :     0.060624
      px      :     0.015998
      py      :     0.027754
  9 C s       :     2.732954  s :     2.732954
      pz      :     0.948372  p :     2.801037
      px      :     0.800799
      py      :     1.051866
      dz2     :     0.204132  d :     0.800671
      dxz     :     0.183257
      dyz     :     0.288232
      dx2y2   :     0.060240
      dxy     :     0.064810
      f0      :     0.020312  f :     0.106529
      f+1     :     0.020609
      f-1     :     0.042746
      f+2     :     0.005750
      f-2     :     0.006806
      f+3     :     0.005358
      f-3     :     0.004949
 10 H s       :     0.801549  s :     0.801549
      pz      :     0.033586  p :     0.061409
      px      :     0.016869
      py      :     0.010954
 11 O s       :     3.431419  s :     3.431419
      pz      :     1.466311  p :     4.709472
      px      :     1.537447
      py      :     1.705714
      dz2     :     0.027181  d :     0.060875
      dxz     :     0.014373
      dyz     :     0.019128
      dx2y2   :     0.000122
      dxy     :     0.000071
      f0      :     0.002108  f :     0.004889
      f+1     :     0.001114
      f-1     :     0.001637
      f+2     :     0.000013
      f-2     :     0.000014
      f+3     :     0.000002
      f-3     :     0.000003


                      *****************************
                      * MAYER POPULATION ANALYSIS *
                      *****************************

  NA   - Mulliken gross atomic population
  ZA   - Total nuclear charge
  QA   - Mulliken gross atomic charge
  VA   - Mayer's total valence
  BVA  - Mayer's bonded valence
  FA   - Mayer's free valence

  ATOM       NA         ZA         QA         VA         BVA        FA
  0 C      6.2326     6.0000    -0.2326     3.8588     3.8588     0.0000
  1 C      6.1686     6.0000    -0.1686     3.8572     3.8572    -0.0000
  2 C      6.1683     6.0000    -0.1683     3.8569     3.8569    -0.0000
  3 H      0.8709     1.0000     0.1291     0.9639     0.9639    -0.0000
  4 H      0.8709     1.0000     0.1291     0.9639     0.9639    -0.0000
  5 C      6.2937     6.0000    -0.2937     3.7191     3.7191     0.0000
  6 C      6.2942     6.0000    -0.2942     3.7199     3.7199     0.0000
  7 H      0.9045     1.0000     0.0955     0.9957     0.9957     0.0000
  8 H      0.9046     1.0000     0.0954     0.9956     0.9956    -0.0000
  9 C      5.7478     6.0000     0.2522     4.1802     4.1802     0.0000
 10 H      0.8696     1.0000     0.1304     0.9665     0.9665     0.0000
 11 O      8.6743     8.0000    -0.6743     1.8017     1.8017     0.0000

  Mayer bond orders larger than 0.100000
B(  0-C ,  1-C ) :   1.3764 B(  0-C ,  2-C ) :   1.3765 B(  0-C , 10-H ) :   0.9741 
B(  1-C ,  3-H ) :   0.9627 B(  1-C ,  5-C ) :   1.4129 B(  2-C ,  4-H ) :   0.9627 
B(  2-C ,  6-C ) :   1.4126 B(  5-C ,  7-H ) :   0.9846 B(  5-C ,  9-C ) :   1.2232 
B(  6-C ,  8-H ) :   0.9846 B(  6-C ,  9-C ) :   1.2235 B(  9-C , 11-O ) :   1.6578 


-------
TIMINGS
-------

Total SCF time: 0 days 0 hours 0 min 16 sec 

Total time                  ....      16.140 sec
Sum of individual times     ....      15.174 sec  ( 94.0%)

Fock matrix formation       ....      13.540 sec  ( 83.9%)
  Split-RI-J                ....       1.466 sec  ( 10.8% of F)
  Chain of spheres X        ....       5.689 sec  ( 42.0% of F)
  XC integration            ....       2.690 sec  ( 19.9% of F)
    Basis function eval.    ....       0.252 sec  (  9.4% of XC)
    Density eval.           ....       0.226 sec  (  8.4% of XC)
    XC-Functional eval.     ....       0.051 sec  (  1.9% of XC)
    XC-Potential eval.      ....       0.288 sec  ( 10.7% of XC)
Diagonalization             ....       0.236 sec  (  1.5%)
Density matrix formation    ....       0.019 sec  (  0.1%)
Population analysis         ....       0.065 sec  (  0.4%)
Initial guess               ....       0.173 sec  (  1.1%)
Orbital Transformation      ....       0.000 sec  (  0.0%)
Orbital Orthonormalization  ....       0.000 sec  (  0.0%)
DIIS solution               ....       0.177 sec  (  1.1%)
SOSCF solution              ....       0.130 sec  (  0.8%)
Grid generation             ....       0.832 sec  (  5.2%)

Maximum memory used throughout the entire SCF-calculation: 70.8 MB


-------------------------------------------------------------------------------
                          DFT DISPERSION CORRECTION                            
                                                                               
                              DFTD3 V3.1  Rev 1                                
                          USING Becke-Johnson damping                          
-------------------------------------------------------------------------------
The PBE0 functional is recognized
Active option DFTDOPT                   ...         4   

molecular C6(AA) [au] = 1804.077994 


            DFT-D V3
 parameters
 s6 scaling factor         :     1.0000 
 a1 scaling factor         :     0.4145 
 s8 scaling factor         :     1.2177 
 a2 scaling factor         :     4.8593 
 ad hoc parameters k1-k3   :    16.0000     1.3333    -4.0000 

 Edisp/kcal,au: -6.200142071014  -0.009880554264 
 E6   /kcal   :  -3.833465907 
 E8   /kcal   :  -2.366676164 
 % E8         :  38.171321516 

-------------------------   ----------------
Dispersion correction           -0.009880554
-------------------------   ----------------


-------------------------   --------------------
FINAL SINGLE POINT ENERGY      -306.761798994228
-------------------------   --------------------



           ************************************************************
           *        Program running with 24 parallel MPI-processes    *
           *              working on a common directory               *
           ************************************************************
------------------------------------------------------------------------------
                         ORCA SCF GRADIENT CALCULATION
------------------------------------------------------------------------------

 ... reading COSX grid (gridx3)
Gradient of the Kohn-Sham DFT energy:
Kohn-Sham wavefunction type      ... RKS
Hartree-Fock exchange scaling    ...    0.250
Number of operators              ...    1
Number of atoms                  ...   12
Basis set dimensions             ...  247
Integral neglect threshold       ... 2.5e-11
Integral primitive cutoff        ... 2.5e-12
SHARK Integral package           ... ON

Nuc. rep. gradient       (SHARK) ... done (  0.0 sec)
HCore & Overlap gradient (SHARK) ... done (  0.0 sec)
RI-J gradient            (SHARK) ... done (  0.3 sec)
COSX-gradient                    ... done (  1.1 sec)
Exchange-correlation gradient    ... done
Dispersion correction            ... done

------------------
CARTESIAN GRADIENT
------------------

   1   C   :   -0.000000020   -0.000042945    0.000221906
   2   C   :    0.000000065   -0.000000666    0.000176409
   3   C   :   -0.000000022    0.000092102    0.000090522
   4   H   :   -0.000000017   -0.000010126   -0.000116691
   5   H   :    0.000000010    0.000009379   -0.000105749
   6   C   :   -0.000000027   -0.000050367   -0.000249879
   7   C   :    0.000000016    0.000147660   -0.000022633
   8   H   :    0.000000019    0.000016522    0.000079487
   9   H   :   -0.000000014   -0.000075514   -0.000049169
  10   C   :   -0.000000004   -0.000040776    0.000148106
  11   H   :    0.000000008    0.000025470   -0.000068334
  12   O   :    0.000000002    0.000016476   -0.000229519

Difference to translation invariance:
           :    0.0000000151    0.0000872153   -0.0001255433

Difference to rotation invariance:
           :    0.0004085769   -0.0000000346   -0.0000001058

Norm of the cartesian gradient     ...    0.0005547474
RMS gradient                       ...    0.0000924579
MAX gradient                       ...    0.0002498795

-------
TIMINGS
-------

Total SCF gradient time            ...        2.971 sec

One electron gradient       ....       0.031 sec  (  1.0%)
RI-J Coulomb gradient       ....       0.308 sec  ( 10.4%)
COSX gradient               ....       1.082 sec  ( 36.4%)
XC gradient                 ....       0.534 sec  ( 18.0%)
CPCM gradient               ....       0.172 sec  (  5.8%)
   A-Matrix (El+Nuc)        ....       0.044 sec  (  1.5%)
   Potential                ....       0.129 sec  (  4.3%)

Maximum memory used throughout the entire SCFGRAD-calculation: 44.6 MB
------------------------------------------------------------------------------
                         ORCA GEOMETRY RELAXATION STEP
------------------------------------------------------------------------------

Reading the OPT-File                    .... done
Getting information on internals        .... done
Copying old internal coords+grads       .... done
Making the new internal coordinates     .... (new redundants).... done
Validating the new internal coordinates .... (new redundants).... done
Calculating the B-matrix                .... done
Calculating the G,G- and P matrices     .... done
Transforming gradient to internals      .... done
Projecting the internal gradient        .... done
Number of atoms                         ....  12
Number of internal coordinates          ....  54
Current Energy                          ....  -306.761798994 Eh
Current gradient norm                   ....     0.000554747 Eh/bohr
Maximum allowed component of the step   ....  0.200
Current trust radius                    ....  0.300
Evaluating the initial hessian          ....  (Almloef) done
Projecting the Hessian                  .... done
Forming the augmented Hessian           .... done
Diagonalizing the augmented Hessian     .... done
Last element of RFO vector              ....  0.999999549
Lowest eigenvalues of augmented Hessian:
 -0.000000409  0.019982299  0.021724639  0.023777229  0.024497088
Length of the computed step             ....  0.000949650
The final length of the internal step   ....  0.000949650
Converting the step to cartesian space:
 Initial RMS(Int)=    0.0001292311
Transforming coordinates:
 Iter   0:  RMS(Cart)=    0.0002052837 RMS(Int)=    2.2622052219
 Iter   1:  RMS(Cart)=    0.0000000350 RMS(Int)=    0.0000000250
done
Storing new coordinates                 .... done

                                .--------------------.
          ----------------------|Geometry convergence|-------------------------
          Item                value                   Tolerance       Converged
          ---------------------------------------------------------------------
          RMS gradient        0.0000618154            0.0000300000      NO
          MAX gradient        0.0002186002            0.0001000000      NO
          RMS step            0.0001292311            0.0006000000      YES
          MAX step            0.0003677335            0.0010000000      YES
          ........................................................
          Max(Bonds)      0.0001      Max(Angles)    0.02
          Max(Dihed)        0.00      Max(Improp)    0.00
          ---------------------------------------------------------------------

The optimization has not yet converged - more geometry cycles are needed


    ---------------------------------------------------------------------------
                         Redundant Internal Coordinates
                            (Angstroem and degrees)

        Definition                    Value    dE/dq     Step     New-Value
    ----------------------------------------------------------------------------
     1. B(C   1,C   0)                1.3939 -0.000105  0.0001    1.3940   
     2. B(C   2,C   0)                1.3938 -0.000150  0.0001    1.3940   
     3. B(H   3,C   1)                1.0872  0.000041 -0.0001    1.0872   
     4. B(H   4,C   2)                1.0872  0.000042 -0.0001    1.0872   
     5. B(C   5,C   1)                1.3839 -0.000154  0.0001    1.3841   
     6. B(C   6,C   2)                1.3841 -0.000108  0.0001    1.3842   
     7. B(H   7,C   5)                1.0873  0.000050 -0.0001    1.0872   
     8. B(H   8,C   6)                1.0873  0.000050 -0.0001    1.0872   
     9. B(C   9,C   6)                1.4293 -0.000058  0.0001    1.4293   
    10. B(C   9,C   5)                1.4294  0.000004 -0.0000    1.4294   
    11. B(H  10,C   0)                1.0840  0.000057 -0.0001    1.0839   
    12. B(O  11,C   9)                1.2787 -0.000219  0.0001    1.2788   
    13. A(C   1,C   0,H  10)          121.01 -0.000054    0.01    121.02   
    14. A(C   2,C   0,H  10)          121.03 -0.000027    0.00    121.03   
    15. A(C   1,C   0,C   2)          117.96  0.000081   -0.01    117.95   
    16. A(H   3,C   1,C   5)          119.16  0.000132   -0.02    119.14   
    17. A(C   0,C   1,H   3)          119.48 -0.000088    0.01    119.49   
    18. A(C   0,C   1,C   5)          121.36 -0.000044    0.01    121.37   
    19. A(C   0,C   2,H   4)          119.48 -0.000078    0.01    119.49   
    20. A(C   0,C   2,C   6)          121.37 -0.000006    0.00    121.37   
    21. A(H   4,C   2,C   6)          119.15  0.000084   -0.01    119.14   
    22. A(H   7,C   5,C   9)          117.55 -0.000068    0.01    117.56   
    23. A(C   1,C   5,C   9)          122.36 -0.000005    0.00    122.36   
    24. A(C   1,C   5,H   7)          120.09  0.000073   -0.01    120.07   
    25. A(H   8,C   6,C   9)          117.62  0.000091   -0.01    117.60   
    26. A(C   2,C   6,C   9)          122.35 -0.000039    0.01    122.36   
    27. A(C   2,C   6,H   8)          120.03 -0.000052    0.01    120.04   
    28. A(C   5,C   9,C   6)          114.60  0.000013   -0.00    114.60   
    29. A(C   6,C   9,O  11)          122.72  0.000023   -0.00    122.72   
    30. A(C   5,C   9,O  11)          122.68 -0.000036    0.01    122.69   
    31. D(C   5,C   1,C   0,C   2)      0.00 -0.000000    0.00      0.00   
    32. D(C   5,C   1,C   0,H  10)    180.00 -0.000000    0.00    180.00   
    33. D(H   3,C   1,C   0,H  10)      0.00  0.000000   -0.00     -0.00   
    34. D(H   3,C   1,C   0,C   2)    180.00  0.000000   -0.00    180.00   
    35. D(C   6,C   2,C   0,C   1)      0.00  0.000000   -0.00     -0.00   
    36. D(H   4,C   2,C   0,C   1)    180.00  0.000000   -0.00    180.00   
    37. D(H   4,C   2,C   0,H  10)      0.00  0.000000   -0.00     -0.00   
    38. D(C   6,C   2,C   0,H  10)    180.00 -0.000000    0.00    180.00   
    39. D(C   9,C   5,C   1,H   3)    180.00 -0.000000    0.00    180.00   
    40. D(C   9,C   5,C   1,C   0)      0.00  0.000000   -0.00     -0.00   
    41. D(H   7,C   5,C   1,H   3)      0.00 -0.000000    0.00      0.00   
    42. D(H   7,C   5,C   1,C   0)    180.00  0.000000   -0.00    180.00   
    43. D(C   9,C   6,C   2,C   0)      0.00  0.000000   -0.00     -0.00   
    44. D(H   8,C   6,C   2,H   4)      0.00 -0.000000    0.00      0.00   
    45. D(H   8,C   6,C   2,C   0)    180.00 -0.000000    0.00    180.00   
    46. D(C   9,C   6,C   2,H   4)    180.00 -0.000000    0.00    180.00   
    47. D(O  11,C   9,C   6,H   8)      0.00  0.000000   -0.00     -0.00   
    48. D(C   5,C   9,C   6,H   8)    180.00  0.000000   -0.00    180.00   
    49. D(C   5,C   9,C   6,C   2)      0.00 -0.000000    0.00      0.00   
    50. D(O  11,C   9,C   5,H   7)      0.00  0.000000   -0.00     -0.00   
    51. D(O  11,C   9,C   5,C   1)    180.00 -0.000000    0.00    180.00   
    52. D(O  11,C   9,C   6,C   2)    180.00 -0.000000    0.00    180.00   
    53. D(C   6,C   9,C   5,H   7)    180.00  0.000000   -0.00    180.00   
    54. D(C   6,C   9,C   5,C   1)      0.00 -0.000000    0.00      0.00   
    ----------------------------------------------------------------------------

         *************************************************************
         *                GEOMETRY OPTIMIZATION CYCLE   2            *
         *************************************************************
---------------------------------
CARTESIAN COORDINATES (ANGSTROEM)
---------------------------------
  C      0.000000   -0.548920   -1.575962
  C     -0.000000    0.669728   -0.899104
  C      0.000000   -1.717937   -0.816671
  H      0.000000    1.597112   -1.466504
  H     -0.000000   -2.682241   -1.318716
  C      0.000000    0.725701    0.483819
  C     -0.000000   -1.678429    0.566939
  H     -0.000000    1.687789    0.990138
  H      0.000000   -2.603691    1.137808
  C      0.000000   -0.449726    1.297149
  H      0.000000   -0.586167   -2.659267
  O      0.000000   -0.405209    2.575212

----------------------------
CARTESIAN COORDINATES (A.U.)
----------------------------
  NO LB      ZA    FRAG     MASS         X           Y           Z
   0 C     6.0000    0    12.011    0.000000   -1.037308   -2.978137
   1 C     6.0000    0    12.011   -0.000000    1.265603   -1.699059
   2 C     6.0000    0    12.011    0.000000   -3.246431   -1.543285
   3 H     1.0000    0     1.008    0.000000    3.018105   -2.771290
   4 H     1.0000    0     1.008   -0.000000   -5.068701   -2.492012
   5 C     6.0000    0    12.011    0.000000    1.371377    0.914285
   6 C     6.0000    0    12.011   -0.000000   -3.171771    1.071359
   7 H     1.0000    0     1.008   -0.000000    3.189459    1.871089
   8 H     1.0000    0     1.008    0.000000   -4.920262    2.150145
   9 C     6.0000    0    12.011    0.000000   -0.849859    2.451256
  10 H     1.0000    0     1.008    0.000000   -1.107695   -5.025286
  11 O     8.0000    0    15.999    0.000000   -0.765733    4.866446

--------------------------------
INTERNAL COORDINATES (ANGSTROEM)
--------------------------------
 C      0   0   0     0.000000000000     0.00000000     0.00000000
 C      1   0   0     1.394001684549     0.00000000     0.00000000
 C      1   2   0     1.393959893045   117.94722383     0.00000000
 H      2   1   3     1.087190996317   119.49193810   179.99998371
 H      3   1   2     1.087166510311   119.49300438   179.99998133
 C      2   1   3     1.384054801635   121.36632915     0.00000000
 C      3   1   2     1.384174415707   121.36859067     0.00000000
[...]
     17      -0.000000  -0.000001   0.000000   0.079423  -0.000001  -0.000000
     18       0.063854   0.030423   0.082591  -0.000003  -0.148599  -0.028596
     19      -0.000000  -0.000002   0.000000   0.224107  -0.000002   0.000000
     20      -0.000000  -0.000000  -0.000000   0.063939  -0.000001   0.000000
     21       0.528471   0.122646   0.597784   0.000017   0.579795   0.266448
     22       0.000001   0.000002  -0.000000  -0.259931   0.000003  -0.000000
     23       0.000000  -0.000000   0.000000   0.127580  -0.000001  -0.000000
     24       0.530536   0.122999  -0.598894   0.000020   0.575963   0.290815
     25      -0.000000  -0.000002   0.000000   0.265625  -0.000002   0.000000
     26       0.000000   0.000001  -0.000000   0.106943  -0.000002   0.000000
     27      -0.095569  -0.172554  -0.000851   0.000002   0.224882  -0.026809
     28       0.000000   0.000000  -0.000000  -0.005015  -0.000000  -0.000000
     29       0.000000   0.000001  -0.000000  -0.126185   0.000000  -0.000000
     30       0.571308  -0.891078   0.002162  -0.000022  -0.450026   0.365283
     31       0.000000   0.000000  -0.000000  -0.004794  -0.000000   0.000000
     32       0.000000   0.000001   0.000000  -0.099106   0.000001   0.000000
     33       0.009547   0.042009   0.000238  -0.000001  -0.057821   0.001856
     34      -0.000000  -0.000000   0.000000  -0.008344   0.000000   0.000000
     35      -0.000000   0.000000  -0.000000  -0.258492   0.000003   0.000000
                 18         19         20         21         22         23    
      0      -0.001622  -0.000000   0.000000   0.000000  -0.000000   0.000000
      1      -0.000001  -0.008795   0.008804  -0.092751  -0.055063  -0.000366
      2       0.000000  -0.257849   0.217400   0.005583   0.001758  -0.015352
      3       0.102235   0.000001   0.000000  -0.000001  -0.000000  -0.000000
      4       0.000001  -0.156200  -0.150021   0.047264   0.023372  -0.048717
      5      -0.000000   0.073183   0.019379  -0.039931   0.027143  -0.032789
      6      -0.096764  -0.000000  -0.000001   0.000001   0.000000  -0.000000
      7      -0.000000   0.161251   0.149420   0.054042   0.020141   0.045551
      8       0.000000   0.063231   0.007539   0.035584  -0.028090  -0.036836
      9      -0.610805  -0.000003  -0.000002   0.000003   0.000000   0.000000
     10       0.000001  -0.182751  -0.340358  -0.090026   0.247810  -0.281695
     11      -0.000001   0.008534  -0.268382  -0.277246   0.393945  -0.414877
     12       0.567667   0.000001   0.000001  -0.000003  -0.000000   0.000000
     13      -0.000001   0.183262   0.323614  -0.059515   0.215478   0.258560
     14       0.000001  -0.002780  -0.300852   0.268701  -0.402986  -0.447389
     15      -0.067580  -0.000001  -0.000000   0.000001   0.000000   0.000000
     16       0.000000   0.307293  -0.016247   0.059740   0.003732   0.001826
     17       0.000001   0.103673  -0.081528   0.078043   0.013674   0.040317
     18       0.065224   0.000000   0.000000  -0.000001  -0.000000   0.000000
     19       0.000001  -0.299841   0.008972   0.054460   0.002920   0.000231
     20      -0.000001   0.123859  -0.080324  -0.083619  -0.014184   0.041974
     21       0.382033   0.000003  -0.000000  -0.000002  -0.000000  -0.000000
     22      -0.000000   0.470824   0.173132  -0.157847   0.091242  -0.204098
     23       0.000003  -0.201155  -0.455905   0.507402  -0.152925   0.436781
     24      -0.360461  -0.000002  -0.000001   0.000002   0.000000  -0.000000
     25       0.000001  -0.484274  -0.195493  -0.191620   0.097942   0.235289
     26      -0.000001  -0.169595  -0.423778  -0.496170   0.139864   0.427288
     27      -0.000758   0.000001   0.000000  -0.000001  -0.000000  -0.000000
     28      -0.000001   0.000886   0.000984  -0.060260   0.008071   0.000586
     29       0.000000   0.020702   0.005200   0.002215  -0.000187  -0.015367
     30       0.012248   0.000003   0.000001  -0.000000   0.000000  -0.000000
     31      -0.000002  -0.010668   0.014376  -0.483233  -0.712123  -0.002206
     32      -0.000000  -0.259046   0.234225   0.019281   0.024378  -0.013855
     33       0.000036  -0.000000  -0.000000   0.000000   0.000000   0.000000
     34       0.000000  -0.001962   0.000122   0.014968   0.001376   0.000299
     35       0.000000  -0.055875   0.010716   0.000211  -0.000229   0.014312
                 24         25         26         27         28         29    
      0       0.000000   0.000000  -0.000000  -0.000000   0.000000   0.000000
      1       0.057376   0.176047  -0.003737   0.064310  -0.004770  -0.401019
      2      -0.001496  -0.006582  -0.045329  -0.001747  -0.115776   0.014659
      3       0.000000   0.000000  -0.000000   0.000000  -0.000000  -0.000000
      4      -0.067090  -0.016863   0.104037   0.035251   0.102173   0.225064
      5      -0.071116  -0.050128  -0.023457   0.209846   0.115409   0.056831
      6      -0.000000  -0.000000   0.000001  -0.000000  -0.000001   0.000000
      7      -0.061888  -0.015421  -0.104775   0.021447  -0.093036   0.221877
      8       0.075928   0.050474  -0.016102  -0.212493   0.119180  -0.075585
      9      -0.000002  -0.000000   0.000001  -0.000001   0.000000  -0.000000
     10       0.153907  -0.209726  -0.141577  -0.311869  -0.198084   0.059325
     11       0.300680  -0.366467  -0.453311  -0.324875  -0.387036  -0.248577
     12       0.000001   0.000000   0.000000   0.000001  -0.000001  -0.000000
     13       0.130363  -0.180977   0.115361  -0.289594   0.167898   0.073373
     14      -0.304818   0.368871  -0.470364   0.347643  -0.395175   0.248377
     15      -0.000000  -0.000000  -0.000000  -0.000000   0.000001   0.000000
     16      -0.077766  -0.091539  -0.090476  -0.038555  -0.076845  -0.157206
     17       0.012839   0.151534   0.131889  -0.160703   0.078486   0.101595
     18       0.000000   0.000000  -0.000001   0.000000   0.000001  -0.000000
     19      -0.078416  -0.099537   0.101143  -0.028143   0.081827  -0.163931
     20      -0.009004  -0.142028   0.127555   0.162229   0.075554  -0.088521
     21       0.000001   0.000000   0.000001   0.000001  -0.000001  -0.000000
     22      -0.321162   0.166731   0.186496  -0.198387   0.150383   0.045188
     23       0.468267  -0.347946  -0.376056   0.105410  -0.408269  -0.288749
     24      -0.000001  -0.000000  -0.000000  -0.000001   0.000001   0.000000
     25      -0.354502   0.188828  -0.217642  -0.204359  -0.183344   0.065299
     26      -0.449757   0.332514  -0.372431  -0.088987  -0.402044   0.288018
     27       0.000001   0.000000   0.000001   0.000001  -0.000002  -0.000000
     28       0.298831   0.077885   0.007124   0.115767  -0.010040   0.231482
     29      -0.009774  -0.001571   0.238120  -0.001529  -0.337122  -0.008052
     30       0.000000   0.000000   0.000001   0.000000  -0.000003   0.000000
     31       0.020890  -0.503290   0.005128  -0.572933  -0.006304   0.548736
     32      -0.000196   0.016735  -0.061936   0.020322  -0.137825  -0.018068
     33      -0.000000  -0.000000   0.000000  -0.000000   0.000000   0.000000
     34      -0.029994   0.010972  -0.006706  -0.028317   0.004895  -0.017062
     35       0.001075  -0.001508  -0.200556  -0.000448   0.157268   0.000501
                 30         31         32         33         34         35    
      0      -0.000000  -0.000000  -0.000000  -0.000000  -0.000000   0.000000
      1      -0.007005   0.000397  -0.001177  -0.003055  -0.001810   0.002834
      2      -0.152760   0.013908  -0.001103   0.007181  -0.024580   0.081999
      3      -0.000000   0.000000   0.000000   0.000000   0.000000  -0.000000
      4       0.109879   0.040425   0.031734   0.045324  -0.017710  -0.020996
      5       0.310001  -0.022772  -0.018559  -0.030368   0.012659   0.009986
      6       0.000001  -0.000000   0.000000  -0.000000  -0.000000   0.000000
      7      -0.086329  -0.036441   0.039030   0.029825   0.040879   0.021769
      8       0.316644  -0.017237   0.019247   0.016743   0.024159   0.008607
      9       0.000001  -0.000000  -0.000000  -0.000000   0.000000   0.000000
     10      -0.273767  -0.473051  -0.371322  -0.523184   0.211664   0.207262
     11      -0.315578   0.286186   0.225183   0.322074  -0.130595  -0.122700
     12      -0.000000   0.000000  -0.000000  -0.000000  -0.000000  -0.000000
     13       0.252258   0.427659  -0.457448  -0.339396  -0.476030  -0.216870
     14      -0.330868   0.220052  -0.236000  -0.177910  -0.249988  -0.109045
     15      -0.000000  -0.000000   0.000000  -0.000000  -0.000000   0.000000
     16       0.025337  -0.037138  -0.036721   0.046571  -0.028728  -0.006517
     17      -0.293796  -0.018347  -0.018352   0.026642  -0.015136  -0.004880
     18      -0.000001  -0.000000  -0.000000   0.000000   0.000000  -0.000000
     19      -0.047102   0.030054  -0.040171   0.022606   0.047449   0.006265
     20      -0.293343  -0.017504   0.023642  -0.015830  -0.030532  -0.005388
     21       0.000001  -0.000000  -0.000000   0.000000  -0.000000   0.000000
     22      -0.230059   0.441056   0.430003  -0.535529   0.330193   0.075354
     23       0.173198   0.227689   0.223653  -0.280614   0.170877   0.041277
     24      -0.000000   0.000000  -0.000000  -0.000000   0.000000   0.000000
     25       0.244554  -0.357282   0.470738  -0.261489  -0.546768  -0.073440
     26       0.162326   0.216581  -0.287402   0.162081   0.334553   0.047065
     27       0.000001   0.000000  -0.000000   0.000000   0.000000  -0.000000
     28       0.007388   0.000003   0.001045  -0.002366  -0.000842  -0.000037
     29       0.195799  -0.002284   0.000132   0.001271  -0.004018  -0.000885
     30       0.000001   0.000000  -0.000000  -0.000000   0.000000  -0.000000
     31      -0.003304  -0.006379   0.001589   0.001298   0.011746  -0.031989
     32      -0.171377  -0.187437   0.015179  -0.087561   0.303657  -0.926873
     33       0.000000  -0.000000   0.000000  -0.000000  -0.000000   0.000000
     34      -0.000978   0.000010   0.000065   0.000199   0.000104   0.000010
     35      -0.031582   0.000147  -0.000017  -0.000331   0.001116   0.000287


-----------
IR SPECTRUM
-----------

 Mode   freq       eps      Int      T**2         TX        TY        TZ
       cm**-1   L/(mol*cm) km/mol    a.u.
----------------------------------------------------------------------------
  6:    197.86   0.000441    2.23  0.000695  ( 0.026371  0.000004 -0.000004)
  7:    426.93   0.000000    0.00  0.000000  ( 0.000383 -0.000003  0.000007)
  8:    447.98   0.001158    5.85  0.000807  (-0.000000 -0.028400  0.000024)
  9:    515.44   0.008335   42.12  0.005046  (-0.071036  0.000003 -0.000005)
 10:    536.68   0.003232   16.33  0.001880  (-0.000000 -0.001432 -0.043330)
 11:    617.84   0.000155    0.78  0.000078  (-0.000000  0.008841 -0.000342)
 12:    704.80   0.011390   57.56  0.005043  ( 0.071016 -0.000001 -0.000001)
 13:    745.36   0.015535   78.51  0.006504  (-0.080649 -0.000002  0.000001)
 14:    814.08   0.000000    0.00  0.000000  (-0.000031  0.000001  0.000001)
 15:    841.30   0.001588    8.03  0.000589  ( 0.000000  0.000565  0.024267)
 16:    868.51   0.008625   43.59  0.003099  ( 0.055668  0.000002  0.000001)
 17:    948.82   0.000040    0.20  0.000013  (-0.003609  0.000000 -0.000000)
 18:    956.04   0.000000    0.00  0.000000  (-0.000242  0.000003 -0.000002)
 19:    987.50   0.012433   62.83  0.003929  ( 0.000000  0.001712  0.062659)
 20:   1038.41   0.004542   22.95  0.001365  (-0.000000 -0.000956 -0.036934)
 21:   1079.88   0.004597   23.23  0.001329  (-0.000000 -0.036448  0.000256)
 22:   1149.52   0.001868    9.44  0.000507  (-0.000000  0.022508 -0.000598)
 23:   1163.79   0.010640   53.77  0.002853  (-0.000000 -0.001190 -0.053402)
 24:   1272.42   0.001419    7.17  0.000348  ( 0.000000 -0.018605  0.001382)
 25:   1350.10   0.007619   38.51  0.001761  (-0.000000 -0.041941  0.001449)
 26:   1389.59   0.054690  276.38  0.012282  ( 0.000000  0.003666  0.110763)
 27:   1482.12   0.004657   23.54  0.000981  ( 0.000000  0.031308  0.000589)
 28:   1526.85   0.136238  688.49  0.027845  (-0.000000 -0.005476 -0.166778)
 29:   1583.37   0.011188   56.54  0.002205  ( 0.000000  0.046916 -0.001967)
 30:   1634.78   0.078689  397.66  0.015021  ( 0.000000  0.004383  0.122482)
 31:   3146.94   0.010177   51.43  0.001009  ( 0.000000 -0.001096 -0.031748)
 32:   3148.80   0.000107    0.54  0.000011  ( 0.000000 -0.002140  0.002460)
 33:   3167.00   0.020938  105.81  0.002063  ( 0.000000  0.045357  0.002427)
 34:   3167.48   0.003801   19.21  0.000374  (-0.000000  0.012843 -0.014475)
 35:   3198.64   0.005226   26.41  0.000510  ( 0.000000  0.000809  0.022566)

* The epsilon (eps) is given for a Dirac delta lineshape.
** The dipole moment derivative (T) already includes vibrational overlap.

The first frequency considered to be a vibration is 6
The total number of vibrations considered is 30


--------------------------
THERMOCHEMISTRY AT 298.15K
--------------------------

Temperature         ... 298.15 K
Pressure            ... 1.00 atm
Total Mass          ... 93.10 AMU

Throughout the following assumptions are being made:
  (1) The electronic state is orbitally nondegenerate
  (2) There are no thermally accessible electronically excited states
  (3) Hindered rotations indicated by low frequency modes are not
      treated as such but are treated as vibrations and this may
      cause some error
  (4) All equations used are the standard statistical mechanics
      equations for an ideal gas
  (5) All vibrations are strictly harmonic

freq.     197.86  E(vib)   ...       0.35 
freq.     426.93  E(vib)   ...       0.18 
freq.     447.98  E(vib)   ...       0.17 
freq.     515.44  E(vib)   ...       0.13 
freq.     536.68  E(vib)   ...       0.12 
freq.     617.84  E(vib)   ...       0.09 
freq.     704.80  E(vib)   ...       0.07 
freq.     745.36  E(vib)   ...       0.06 
freq.     814.08  E(vib)   ...       0.05 
freq.     841.30  E(vib)   ...       0.04 
freq.     868.51  E(vib)   ...       0.04 
freq.     948.82  E(vib)   ...       0.03 
freq.     956.04  E(vib)   ...       0.03 
freq.     987.50  E(vib)   ...       0.02 
freq.    1038.41  E(vib)   ...       0.02 
freq.    1079.88  E(vib)   ...       0.02 
freq.    1149.52  E(vib)   ...       0.01 
freq.    1163.79  E(vib)   ...       0.01 
freq.    1272.42  E(vib)   ...       0.01 
freq.    1350.10  E(vib)   ...       0.01 
freq.    1389.59  E(vib)   ...       0.00 
freq.    1482.12  E(vib)   ...       0.00 
freq.    1526.85  E(vib)   ...       0.00 
freq.    1583.37  E(vib)   ...       0.00 
freq.    1634.78  E(vib)   ...       0.00 
freq.    3146.94  E(vib)   ...       0.00 
freq.    3148.80  E(vib)   ...       0.00 
freq.    3167.00  E(vib)   ...       0.00 
freq.    3167.48  E(vib)   ...       0.00 
freq.    3198.64  E(vib)   ...       0.00 

------------
INNER ENERGY
------------

The inner energy is: U= E(el) + E(ZPE) + E(vib) + E(rot) + E(trans)
    E(el)   - is the total energy from the electronic structure calculation
              = E(kin-el) + E(nuc-el) + E(el-el) + E(nuc-nuc)
    E(ZPE)  - the the zero temperature vibrational energy from the frequency calculation
    E(vib)  - the the finite temperature correction to E(ZPE) due to population
              of excited vibrational states
    E(rot)  - is the rotational thermal energy
    E(trans)- is the translational thermal energy

Summary of contributions to the inner energy U:
Electronic energy                ...   -306.76179940 Eh
Zero point energy                ...      0.09137467 Eh      57.34 kcal/mol
Thermal vibrational correction   ...      0.00235562 Eh       1.48 kcal/mol
Thermal rotational correction    ...      0.00141627 Eh       0.89 kcal/mol
Thermal translational correction ...      0.00141627 Eh       0.89 kcal/mol
-----------------------------------------------------------------------
Total thermal energy                   -306.66523658 Eh


Summary of corrections to the electronic energy:
(perhaps to be used in another calculation)
Total thermal correction                  0.00518816 Eh       3.26 kcal/mol
Non-thermal (ZPE) correction              0.09137467 Eh      57.34 kcal/mol
-----------------------------------------------------------------------
Total correction                          0.09656283 Eh      60.59 kcal/mol


--------
ENTHALPY
--------

The enthalpy is H = U + kB*T
                kB is Boltzmann's constant
Total free energy                 ...   -306.66523658 Eh 
Thermal Enthalpy correction       ...      0.00094421 Eh       0.59 kcal/mol
-----------------------------------------------------------------------
Total Enthalpy                    ...   -306.66429237 Eh


Note: Rotational entropy computed according to Herzberg 
Infrared and Raman Spectra, Chapter V,1, Van Nostrand Reinhold, 1945 
Point Group:  Cs, Symmetry Number:   1  
Rotational constants in cm-1:     0.192521     0.090409     0.061519 

Vibrational entropy computed according to the QRRHO of S. Grimme
Chem.Eur.J. 2012 18 9955


-------
ENTROPY
-------

The entropy contributions are T*S = T*(S(el)+S(vib)+S(rot)+S(trans))
     S(el)   - electronic entropy
     S(vib)  - vibrational entropy
     S(rot)  - rotational entropy
     S(trans)- translational entropy
The entropies will be listed as multiplied by the temperature to get
units of energy

Electronic entropy                ...      0.00000000 Eh      0.00 kcal/mol
Vibrational entropy               ...      0.00342736 Eh      2.15 kcal/mol
Rotational entropy                ...      0.01273961 Eh      7.99 kcal/mol
Translational entropy             ...      0.01877006 Eh     11.78 kcal/mol
-----------------------------------------------------------------------
Final entropy term                ...      0.03493703 Eh     21.92 kcal/mol

In case the symmetry of your molecule has not been determined correctly
or in case you have a reason to use a different symmetry number we print 
out the resulting rotational entropy values for sn=1,12 :
 --------------------------------------------------------
|  sn= 1 | S(rot)=       0.01273961 Eh      7.99 kcal/mol|
|  sn= 2 | S(rot)=       0.01208515 Eh      7.58 kcal/mol|
|  sn= 3 | S(rot)=       0.01170232 Eh      7.34 kcal/mol|
|  sn= 4 | S(rot)=       0.01143070 Eh      7.17 kcal/mol|
|  sn= 5 | S(rot)=       0.01122001 Eh      7.04 kcal/mol|
|  sn= 6 | S(rot)=       0.01104786 Eh      6.93 kcal/mol|
|  sn= 7 | S(rot)=       0.01090232 Eh      6.84 kcal/mol|
|  sn= 8 | S(rot)=       0.01077624 Eh      6.76 kcal/mol|
|  sn= 9 | S(rot)=       0.01066503 Eh      6.69 kcal/mol|
|  sn=10 | S(rot)=       0.01056555 Eh      6.63 kcal/mol|
|  sn=11 | S(rot)=       0.01047556 Eh      6.57 kcal/mol|
|  sn=12 | S(rot)=       0.01039341 Eh      6.52 kcal/mol|
 --------------------------------------------------------


-------------------
GIBBS FREE ENERGY
-------------------

The Gibbs free energy is G = H - T*S

Total enthalpy                    ...   -306.66429237 Eh 
Total entropy correction          ...     -0.03493703 Eh    -21.92 kcal/mol
-----------------------------------------------------------------------
Final Gibbs free energy         ...   -306.69922940 Eh

For completeness - the Gibbs free energy minus the electronic energy
G-E(el)                           ...      0.06257000 Eh     39.26 kcal/mol


Timings for individual modules:

Sum of individual times         ...      142.054 sec (=   2.368 min)
GTO integral calculation        ...        3.456 sec (=   0.058 min)   2.4 %
SCF iterations                  ...       36.231 sec (=   0.604 min)  25.5 %
SCF Gradient evaluation         ...        7.511 sec (=   0.125 min)   5.3 %
Geometry relaxation             ...        0.159 sec (=   0.003 min)   0.1 %
Analytical frequency calculation...       94.698 sec (=   1.578 min)  66.7 %
                             ****ORCA TERMINATED NORMALLY****
TOTAL RUN TIME: 0 days 0 hours 2 minutes 28 seconds 139 msec
