
                                 *****************
                                 * O   R   C   A *
                                 *****************

                                            #,                                       
                                            ###                                      
                                            ####                                     
                                            #####                                    
                                            ######                                   
                                           ########,                                 
                                     ,,################,,,,,                         
                               ,,#################################,,                 
                          ,,##########################################,,             
                       ,#########################################, ''#####,          
                    ,#############################################,,   '####,        
                  ,##################################################,,,,####,       
                ,###########''''           ''''###############################       
              ,#####''   ,,,,##########,,,,          '''####'''          '####       
            ,##' ,,,,###########################,,,                        '##       
           ' ,,###''''                  '''############,,,                           
         ,,##''                                '''############,,,,        ,,,,,,###''
      ,#''                                            '''#######################'''  
     '                                                          ''''####''''         
             ,#######,   #######,   ,#######,      ##                                
            ,#'     '#,  ##    ##  ,#'     '#,    #''#        ######   ,####,        
            ##       ##  ##   ,#'  ##            #'  '#       #        #'  '#        
            ##       ##  #######   ##           ,######,      #####,   #    #        
            '#,     ,#'  ##    ##  '#,     ,#' ,#      #,         ##   #,  ,#        
             '#######'   ##     ##  '#######'  #'      '#     #####' # '####'        



                  #######################################################
                  #                        -***-                        #
                  #          Department of theory and spectroscopy      #
                  #    Directorship and core code : Frank Neese         #
                  #        Max Planck Institute fuer Kohlenforschung    #
                  #                Kaiser Wilhelm Platz 1               #
                  #                 D-45470 Muelheim/Ruhr               #
                  #                      Germany                        #
                  #                                                     #
                  #                  All rights reserved                #
                  #                        -***-                        #
                  #######################################################


                         Program Version 5.0.4 -  RELEASE  -


 With contributions from (in alphabetic order):
   Daniel Aravena         : Magnetic Suceptibility
   Michael Atanasov       : Ab Initio Ligand Field Theory (pilot matlab implementation)
   Alexander A. Auer      : GIAO ZORA, VPT2 properties, NMR spectrum
   Ute Becker             : Parallelization
   Giovanni Bistoni       : ED, misc. LED, open-shell LED, HFLD
   Martin Brehm           : Molecular dynamics
   Dmytro Bykov           : SCF Hessian
   Vijay G. Chilkuri      : MRCI spin determinant printing, contributions to CSF-ICE
   Dipayan Datta          : RHF DLPNO-CCSD density
   Achintya Kumar Dutta   : EOM-CC, STEOM-CC
   Dmitry Ganyushin       : Spin-Orbit,Spin-Spin,Magnetic field MRCI
   Miquel Garcia          : C-PCM and meta-GGA Hessian, CC/C-PCM, Gaussian charge scheme
   Yang Guo               : DLPNO-NEVPT2, F12-NEVPT2, CIM, IAO-localization
   Andreas Hansen         : Spin unrestricted coupled pair/coupled cluster methods
   Benjamin Helmich-Paris : MC-RPA, TRAH-SCF, COSX integrals
   Lee Huntington         : MR-EOM, pCC
   Robert Izsak           : Overlap fitted RIJCOSX, COSX-SCS-MP3, EOM
   Marcus Kettner         : VPT2
   Christian Kollmar      : KDIIS, OOCD, Brueckner-CCSD(T), CCSD density, CASPT2, CASPT2-K
   Simone Kossmann        : Meta GGA functionals, TD-DFT gradient, OOMP2, MP2 Hessian
   Martin Krupicka        : Initial AUTO-CI
   Lucas Lang             : DCDCAS
   Marvin Lechner         : AUTO-CI (C++ implementation), FIC-MRCC
   Dagmar Lenk            : GEPOL surface, SMD
   Dimitrios Liakos       : Extrapolation schemes; Compound Job, initial MDCI parallelization
   Dimitrios Manganas     : Further ROCIS development; embedding schemes
   Dimitrios Pantazis     : SARC Basis sets
   Anastasios Papadopoulos: AUTO-CI, single reference methods and gradients
   Taras Petrenko         : DFT Hessian,TD-DFT gradient, ASA, ECA, R-Raman, ABS, FL, XAS/XES, NRVS
   Peter Pinski           : DLPNO-MP2, DLPNO-MP2 Gradient
   Christoph Reimann      : Effective Core Potentials
   Marius Retegan         : Local ZFS, SOC
   Christoph Riplinger    : Optimizer, TS searches, QM/MM, DLPNO-CCSD(T), (RO)-DLPNO pert. Triples
   Tobias Risthaus        : Range-separated hybrids, TD-DFT gradient, RPA, STAB
   Michael Roemelt        : Original ROCIS implementation
   Masaaki Saitow         : Open-shell DLPNO-CCSD energy and density
   Barbara Sandhoefer     : DKH picture change effects
   Avijit Sen             : IP-ROCIS
   Kantharuban Sivalingam : CASSCF convergence, NEVPT2, FIC-MRCI
   Bernardo de Souza      : ESD, SOC TD-DFT
   Georgi Stoychev        : AutoAux, RI-MP2 NMR, DLPNO-MP2 response
   Willem Van den Heuvel  : Paramagnetic NMR
   Boris Wezisla          : Elementary symmetry handling
   Frank Wennmohs         : Technical directorship


 We gratefully acknowledge several colleagues who have allowed us to
 interface, adapt or use parts of their codes:
   Stefan Grimme, W. Hujo, H. Kruse, P. Pracht,  : VdW corrections, initial TS optimization,
                  C. Bannwarth, S. Ehlert          DFT functionals, gCP, sTDA/sTD-DF
   Ed Valeev, F. Pavosevic, A. Kumar             : LibInt (2-el integral package), F12 methods
   Garnet Chan, S. Sharma, J. Yang, R. Olivares  : DMRG
   Ulf Ekstrom                                   : XCFun DFT Library
   Mihaly Kallay                                 : mrcc  (arbitrary order and MRCC methods)
   Jiri Pittner, Ondrej Demel                    : Mk-CCSD
   Frank Weinhold                                : gennbo (NPA and NBO analysis)
   Christopher J. Cramer and Donald G. Truhlar   : smd solvation model
   Lars Goerigk                                  : TD-DFT with DH, B97 family of functionals
   V. Asgeirsson, H. Jonsson                     : NEB implementation
   FAccTs GmbH                                   : IRC, NEB, NEB-TS, DLPNO-Multilevel, CI-OPT
                                                   MM, QMMM, 2- and 3-layer-ONIOM, Crystal-QMMM,
                                                   LR-CPCM, SF, NACMEs, symmetry and pop. for TD-DFT,
                                                   nearIR, NL-DFT gradient (VV10), updates on ESD,
                                                   ML-optimized integration grids
   S Lehtola, MJT Oliveira, MAL Marques          : LibXC Library
   Liviu Ungur et al                             : ANISO software


 Your calculation uses the libint2 library for the computation of 2-el integrals
 For citations please refer to: http://libint.valeyev.net

 Your ORCA version has been built with support for libXC version: 5.1.0
 For citations please refer to: https://tddft.org/programs/libxc/

 This ORCA versions uses:
   CBLAS   interface :  Fast vector & matrix operations
   LAPACKE interface :  Fast linear algebra routines
   SCALAPACK package :  Parallel linear algebra routines
   Shared memory     :  Shared parallel matrices
   BLAS/LAPACK       :  OpenBLAS 0.3.15  USE64BITINT DYNAMIC_ARCH NO_AFFINITY Haswell SINGLE_THREADED
        Core in use  :  Haswell
   Copyright (c) 2011-2014, The OpenBLAS Project


Your calculation utilizes the atom-pairwise dispersion correction
with the Becke-Johnson damping scheme (D3BJ)
Cite in your paper:
S.Grimme, S.Ehrlich, L.Goerigk, J Comput Chem, (2011), 32, 1456–1465 
S.Grimme, J.Antony, S.Ehrlich and H.Krieg, J.Chem.Phys., 132, (2010), 154104 
   

================================================================================

----- Orbital basis set information -----
Your calculation utilizes the basis: def2-TZVP
   F. Weigend and R. Ahlrichs, Phys. Chem. Chem. Phys. 7, 3297 (2005).

----- AuxJ basis set information -----
Your calculation utilizes the auxiliary basis: def2/J
   F. Weigend, Phys. Chem. Chem. Phys. 8, 1057 (2006).

================================================================================
                                        WARNINGS
                       Please study these warnings very carefully!
================================================================================


WARNING: Geometry Optimization
  ===> : Switching off AutoStart
         For restart on a previous wavefunction, please use MOREAD

INFO   : the flag for use of the SHARK integral package has been found!

================================================================================
                                       INPUT FILE
================================================================================
NAME = PhenOH/PhenOH.inp
|  1> %pal nprocs 24 end
|  2> %maxcore 3500
|  3> ! PBE0 D3BJ def2-TZVP TightSCF OPT FREQ TightOpt
|  4> ! CPCM(dmso)
|  5> %scf
|  6> MaxIter 800
|  7> end
|  8> %geom
|  9> MaxIter 800
| 10> MaxStep 0.2
| 11> end
| 12> *xyz 0 1
| 13> 
| 14> C       0.00000000     -0.54654500     -1.55621700
| 15> C      -0.00000000      0.67831700     -0.90260300
| 16> C      -0.00000000     -1.71616700     -0.80602300
| 17> H       0.00000000      1.60013000     -1.47382300
| 18> H       0.00000000     -2.67978600     -1.30359500
| 19> C       0.00000100      0.73924000      0.48332900
| 20> C       0.00000000     -1.66938900      0.57952100
| 21> H       0.00000000      1.69662400      0.99545900
| 22> H      -0.00000000     -2.57909000      1.16923100
| 23> C       0.00000000     -0.43734500      1.22619500
| 24> H      -0.00000000     -0.58940900     -2.63893800
| 25> O       0.00000000     -0.43589400      2.58213000
| 26> H      -0.00000100      0.47281700      2.90477400
| 27> *
| 28> 
| 29>                          ****END OF INPUT****
================================================================================

                       *****************************
                       * Geometry Optimization Run *
                       *****************************

Geometry optimization settings:
Update method            Update   .... BFGS
Choice of coordinates    CoordSys .... Z-matrix Internals
Initial Hessian          InHess   .... Almoef's Model

Convergence Tolerances:
Energy Change            TolE     ....  1.0000e-06 Eh
Max. Gradient            TolMAXG  ....  1.0000e-04 Eh/bohr
RMS Gradient             TolRMSG  ....  3.0000e-05 Eh/bohr
Max. Displacement        TolMAXD  ....  1.0000e-03 bohr
RMS Displacement         TolRMSD  ....  6.0000e-04 bohr
Strict Convergence                ....  False
------------------------------------------------------------------------------
                        ORCA OPTIMIZATION COORDINATE SETUP
------------------------------------------------------------------------------

The optimization will be done in new redundant internal coordinates
Making redundant internal coordinates   ...  (new redundants) done
Evaluating the initial hessian          ...  (Almloef) done
Evaluating the coordinates              ...  done
Calculating the B-matrix                .... done
Calculating the G-matrix                .... done
Diagonalizing the G-matrix              .... done
The first mode is                       ....   25
The number of degrees of freedom        ....   33

    -----------------------------------------------------------------
                    Redundant Internal Coordinates


    -----------------------------------------------------------------
         Definition                    Initial Value    Approx d2E/dq
    -----------------------------------------------------------------
      1. B(C   1,C   0)                  1.3883         0.628610   
      2. B(C   2,C   0)                  1.3895         0.625865   
      3. B(H   3,C   1)                  1.0844         0.367517   
      4. B(H   4,C   2)                  1.0845         0.367450   
      5. B(C   5,C   1)                  1.3873         0.631093   
      6. B(C   6,C   2)                  1.3863         0.633269   
      7. B(H   7,C   5)                  1.0858         0.365761   
      8. B(H   8,C   6)                  1.0841         0.367965   
      9. B(C   9,C   6)                  1.3914         0.621488   
     10. B(C   9,C   5)                  1.3915         0.621421   
     11. B(H  10,C   0)                  1.0836         0.368708   
     12. B(O  11,C   9)                  1.3559         0.634195   
     13. B(H  12,O  11)                  0.9643         0.511826   
     14. A(C   1,C   0,H  10)          120.3525         0.355153   
     15. A(C   2,C   0,H  10)          120.4090         0.354890   
     16. A(C   1,C   0,C   2)          119.2386         0.435883   
     17. A(H   3,C   1,C   5)          119.2683         0.355196   
     18. A(C   0,C   1,C   5)          120.6024         0.436537   
     19. A(C   0,C   1,H   3)          120.1294         0.354959   
     20. A(C   0,C   2,H   4)          120.0140         0.354684   
     21. A(C   0,C   2,C   6)          120.7424         0.436464   
     22. A(H   4,C   2,C   6)          119.2436         0.355392   
     23. A(H   7,C   5,C   9)          119.5892         0.353980   
     24. A(C   1,C   5,C   9)          119.7503         0.435633   
     25. A(C   1,C   5,H   7)          120.6605         0.354908   
     26. A(H   8,C   6,C   9)          119.3528         0.354347   
     27. A(C   2,C   6,C   9)          119.6277         0.435912   
     28. A(C   2,C   6,H   8)          121.0195         0.355477   
     29. A(C   5,C   9,C   6)          120.0387         0.434432   
     30. A(C   6,C   9,O  11)          117.7553         0.433171   
     31. A(C   5,C   9,O  11)          122.2060         0.433163   
     32. A(C   9,O  11,H  12)          109.6091         0.370554   
     33. D(C   5,C   1,C   0,C   2)      0.0000         0.027390   
     34. D(C   5,C   1,C   0,H  10)   -180.0000         0.027390   
     35. D(H   3,C   1,C   0,H  10)      0.0000         0.027390   
     36. D(H   3,C   1,C   0,C   2)    180.0000         0.027390   
     37. D(C   6,C   2,C   0,C   1)      0.0000         0.027137   
     38. D(H   4,C   2,C   0,C   1)    180.0000         0.027137   
     39. D(H   4,C   2,C   0,H  10)      0.0000         0.027137   
     40. D(C   6,C   2,C   0,H  10)    180.0000         0.027137   
     41. D(C   9,C   5,C   1,H   3)    180.0000         0.027621   
     42. D(C   9,C   5,C   1,C   0)     -0.0001         0.027621   
     43. D(H   7,C   5,C   1,H   3)      0.0001         0.027621   
     44. D(H   7,C   5,C   1,C   0)   -179.9999         0.027621   
     45. D(C   9,C   6,C   2,C   0)      0.0000         0.027824   
     46. D(H   8,C   6,C   2,H   4)      0.0000         0.027824   
     47. D(H   8,C   6,C   2,C   0)    180.0000         0.027824   
     48. D(C   9,C   6,C   2,H   4)    180.0000         0.027824   
     49. D(O  11,C   9,C   6,H   8)      0.0000         0.026735   
     50. D(C   5,C   9,C   6,H   8)    180.0000         0.026735   
     51. D(C   5,C   9,C   6,C   2)     -0.0000         0.026735   
     52. D(O  11,C   9,C   5,H   7)     -0.0001         0.026729   
     53. D(O  11,C   9,C   5,C   1)   -180.0000         0.026729   
     54. D(O  11,C   9,C   6,C   2)    180.0000         0.026735   
     55. D(C   6,C   9,C   5,H   7)    179.9999         0.026729   
     56. D(C   6,C   9,C   5,C   1)      0.0001         0.026729   
     57. D(H  12,O  11,C   9,C   6)   -179.9999         0.029609   
     58. D(H  12,O  11,C   9,C   5)      0.0001         0.029609   
    -----------------------------------------------------------------

Number of atoms                         .... 13
Number of degrees of freedom            .... 58

         *************************************************************
         *                GEOMETRY OPTIMIZATION CYCLE   1            *
         *************************************************************
---------------------------------
CARTESIAN COORDINATES (ANGSTROEM)
---------------------------------
  C      0.000000   -0.546545   -1.556217
  C     -0.000000    0.678317   -0.902603
  C     -0.000000   -1.716167   -0.806023
  H      0.000000    1.600130   -1.473823
  H      0.000000   -2.679786   -1.303595
  C      0.000001    0.739240    0.483329
  C      0.000000   -1.669389    0.579521
  H      0.000000    1.696624    0.995459
  H     -0.000000   -2.579090    1.169231
  C      0.000000   -0.437345    1.226195
  H     -0.000000   -0.589409   -2.638938
  O      0.000000   -0.435894    2.582130
  H     -0.000001    0.472817    2.904774

----------------------------
CARTESIAN COORDINATES (A.U.)
----------------------------
  NO LB      ZA    FRAG     MASS         X           Y           Z
   0 C     6.0000    0    12.011    0.000000   -1.032820   -2.940824
   1 C     6.0000    0    12.011   -0.000000    1.281833   -1.705672
   2 C     6.0000    0    12.011   -0.000000   -3.243086   -1.523163
   3 H     1.0000    0     1.008    0.000000    3.023807   -2.785122
   4 H     1.0000    0     1.008    0.000000   -5.064062   -2.463438
   5 C     6.0000    0    12.011    0.000002    1.396961    0.913359
   6 C     6.0000    0    12.011    0.000000   -3.154688    1.095136
   7 H     1.0000    0     1.008    0.000000    3.206155    1.881145
   8 H     1.0000    0     1.008   -0.000000   -4.873774    2.209526
   9 C     6.0000    0    12.011    0.000000   -0.826462    2.317173
  10 H     1.0000    0     1.008   -0.000000   -1.113822   -4.986870
  11 O     8.0000    0    15.999    0.000000   -0.823720    4.879519
  12 H     1.0000    0     1.008   -0.000002    0.893495    5.489227

--------------------------------
INTERNAL COORDINATES (ANGSTROEM)
--------------------------------
 C      0   0   0     0.000000000000     0.00000000     0.00000000
 C      1   0   0     1.388343682249     0.00000000     0.00000000
 C      1   2   0     1.389534692089   119.23855416     0.00000000
 H      2   1   3     1.084449858393   120.12935341   180.00000085
 H      3   1   2     1.084499641468   120.01402864   180.00000085
 C      2   1   3     1.387270384804   120.60238300     0.00000000
 C      3   1   2     1.386333422096   120.74240346     0.00000000
 H      6   2   1     1.085753775198   120.66049946   180.00006140
 H      7   3   1     1.084118901920   121.01950619   180.00000000
 C      7   3   1     1.391445176862   119.62769208     0.00000000
 H      1   2   3     1.083569142389   120.35249427   180.00000121
 O     10   7   3     1.355935776365   117.75534967   180.00000000
 H     12  10   7     0.964289807194   109.60906411   180.00006308

---------------------------
INTERNAL COORDINATES (A.U.)
---------------------------
 C      0   0   0     0.000000000000     0.00000000     0.00000000
 C      1   0   0     2.623589339210     0.00000000     0.00000000
 C      1   2   0     2.625840021632   119.23855416     0.00000000
 H      2   1   3     2.049313238333   120.12935341   180.00000085
 H      3   1   2     2.049407314711   120.01402864   180.00000085
 C      2   1   3     2.621561100979   120.60238300     0.00000000
 C      3   1   2     2.619790498063   120.74240346     0.00000000
 H      6   2   1     2.051777283996   120.66049946   180.00006140
 H      7   3   1     2.048687821237   121.01950619   180.00000000
 C      7   3   1     2.629450314634   119.62769208     0.00000000
 H      1   2   3     2.047648926283   120.35249427   180.00000121
 O     10   7   3     2.562347272515   117.75534967   180.00000000
 H     12  10   7     1.822243649328   109.60906411   180.00006308

---------------------
BASIS SET INFORMATION
---------------------
There are 3 groups of distinct atoms

 Group   1 Type C   : 11s6p2d1f contracted to 5s3p2d1f pattern {62111/411/11/1}
 Group   2 Type H   : 5s1p contracted to 3s1p pattern {311/1}
 Group   3 Type O   : 11s6p2d1f contracted to 5s3p2d1f pattern {62111/411/11/1}

Atom   0C    basis set group =>   1
Atom   1C    basis set group =>   1
Atom   2C    basis set group =>   1
Atom   3H    basis set group =>   2
Atom   4H    basis set group =>   2
Atom   5C    basis set group =>   1
Atom   6C    basis set group =>   1
Atom   7H    basis set group =>   2
Atom   8H    basis set group =>   2
Atom   9C    basis set group =>   1
Atom  10H    basis set group =>   2
Atom  11O    basis set group =>   3
Atom  12H    basis set group =>   2
---------------------------------
AUXILIARY/J BASIS SET INFORMATION
---------------------------------
There are 3 groups of distinct atoms

 Group   1 Type C   : 12s5p4d2f1g contracted to 6s4p3d1f1g pattern {711111/2111/211/2/1}
 Group   2 Type H   : 5s2p1d contracted to 3s1p1d pattern {311/2/1}
 Group   3 Type O   : 12s5p4d2f1g contracted to 6s4p3d1f1g pattern {711111/2111/211/2/1}

Atom   0C    basis set group =>   1
Atom   1C    basis set group =>   1
Atom   2C    basis set group =>   1
Atom   3H    basis set group =>   2
Atom   4H    basis set group =>   2
Atom   5C    basis set group =>   1
Atom   6C    basis set group =>   1
Atom   7H    basis set group =>   2
Atom   8H    basis set group =>   2
Atom   9C    basis set group =>   1
Atom  10H    basis set group =>   2
Atom  11O    basis set group =>   3
Atom  12H    basis set group =>   2


           ************************************************************
           *        Program running with 24 parallel MPI-processes    *
           *              working on a common directory               *
           ************************************************************
------------------------------------------------------------------------------
                           ORCA GTO INTEGRAL CALCULATION
                           -- RI-GTO INTEGRALS CHOSEN --
------------------------------------------------------------------------------
------------------------------------------------------------------------------
                   ___                                                        
                  /   \      - P O W E R E D   B Y -                         
                 /     \                                                     
                 |  |  |   _    _      __       _____    __    __             
                 |  |  |  | |  | |    /  \     |  _  \  |  |  /  |          
                  \  \/   | |  | |   /    \    | | | |  |  | /  /          
                 / \  \   | |__| |  /  /\  \   | |_| |  |  |/  /          
                |  |  |   |  __  | /  /__\  \  |    /   |      \           
                |  |  |   | |  | | |   __   |  |    \   |  |\   \          
                \     /   | |  | | |  |  |  |  | |\  \  |  | \   \       
                 \___/    |_|  |_| |__|  |__|  |_| \__\ |__|  \__/        
                                                                              
                      - O R C A' S   B I G   F R I E N D -                    
                                      &                                       
                       - I N T E G R A L  F E E D E R -                       
                                                                              
 v1 FN, 2020, v2 2021                                                         
------------------------------------------------------------------------------


Reading SHARK input file PhenOH/PhenOH.SHARKINP.tmp ... ok
----------------------
SHARK INTEGRAL PACKAGE
----------------------

Number of atoms                             ...     13
Number of basis functions                   ...    253
Number of shells                            ...    101
Maximum angular momentum                    ...      3
Integral batch strategy                     ... SHARK/LIBINT Hybrid
RI-J (if used) integral strategy            ... SPLIT-RIJ (Revised 2003 algorithm where possible)
Printlevel                                  ...      1
Contraction scheme used                     ... SEGMENTED contraction
Coulomb Range Separation                    ... NOT USED
Exchange Range Separation                   ... NOT USED
Finite Nucleus Model                        ... NOT USED
Auxiliary Coulomb fitting basis             ... AVAILABLE
   # of basis functions in Aux-J            ...    409
   # of shells in Aux-J                     ...    135
   Maximum angular momentum in Aux-J        ...      4
Auxiliary J/K fitting basis                 ... NOT available
Auxiliary Correlation fitting basis         ... NOT available
Auxiliary 'external' fitting basis          ... NOT available
Integral threshold                          ...     2.500000e-11
Primitive cut-off                           ...     2.500000e-12
Primitive pair pre-selection threshold      ...     2.500000e-12

Calculating pre-screening integrals         ... done (  0.1 sec) Dimension = 101
Organizing shell pair data                  ... done (  0.1 sec)
Shell pair information
Total number of shell pairs                 ...      5151
Shell pairs after pre-screening             ...      4872
Total number of primitive shell pairs       ...     15748
Primitive shell pairs kept                  ...     11523
          la=0 lb=0:   1293 shell pairs
          la=1 lb=0:   1356 shell pairs
          la=1 lb=1:    369 shell pairs
          la=2 lb=0:    714 shell pairs
          la=2 lb=1:    371 shell pairs
          la=2 lb=2:    102 shell pairs
          la=3 lb=0:    356 shell pairs
          la=3 lb=1:    186 shell pairs
          la=3 lb=2:     97 shell pairs
          la=3 lb=3:     28 shell pairs

Calculating one electron integrals          ... done (  0.0 sec)
Calculating RI/J V-Matrix + Cholesky decomp.... done (  0.1 sec)
Calculating Nuclear repulsion               ... done (  0.0 sec) ENN=    272.268139192927 Eh

SHARK setup successfully completed in   0.5 seconds

Maximum memory used throughout the entire GTOINT-calculation: 18.4 MB


           ************************************************************
           *        Program running with 24 parallel MPI-processes    *
           *              working on a common directory               *
           ************************************************************
-------------------------------------------------------------------------------
                                 ORCA SCF
-------------------------------------------------------------------------------

------------
SCF SETTINGS
------------
Hamiltonian:
 Density Functional     Method          .... DFT(GTOs)
 Exchange Functional    Exchange        .... PBE
   PBE kappa parameter   XKappa         ....  0.804000
   PBE mue parameter    XMuePBE         ....  0.219520
 Correlation Functional Correlation     .... PBE
   PBE beta parameter  CBetaPBE         ....  0.066725
 LDA part of GGA corr.  LDAOpt          .... PW91-LDA
 Gradients option       PostSCFGGA      .... off
 Hybrid DFT is turned on
   Fraction HF Exchange ScalHFX         ....  0.250000
   Scaling of DF-GGA-X  ScalDFX         ....  0.750000
   Scaling of DF-GGA-C  ScalDFC         ....  1.000000
   Scaling of DF-LDA-C  ScalLDAC        ....  1.000000
   Perturbative correction              ....  0.000000
   Density functional embedding theory  .... OFF
   NL short-range parameter             ....  6.900000
 RI-approximation to the Coulomb term is turned on
   Number of AuxJ basis functions       .... 409
   RIJ-COSX (HFX calculated with COS-X)).... on


General Settings:
 Integral files         IntName         .... PhenOH/PhenOH
 Hartree-Fock type      HFTyp           .... RHF
 Total Charge           Charge          ....    0
 Multiplicity           Mult            ....    1
 Number of Electrons    NEL             ....   50
 Basis Dimension        Dim             ....  253
 Nuclear Repulsion      ENuc            ....    272.2681391929 Eh

Convergence Acceleration:
 DIIS                   CNVDIIS         .... on
   Start iteration      DIISMaxIt       ....    12
   Startup error        DIISStart       ....  0.200000
   # of expansion vecs  DIISMaxEq       ....     5
   Bias factor          DIISBfac        ....   1.050
   Max. coefficient     DIISMaxC        ....  10.000
 Trust-Rad. Augm. Hess. CNVTRAH         .... auto
   Auto Start mean grad. ratio tolernc. ....  1.125000
   Auto Start start iteration           ....    20
   Auto Start num. interpolation iter.  ....    10
   Max. Number of Micro iterations      ....    16
   Max. Number of Macro iterations      .... Maxiter - #DIIS iter
   Number of Davidson start vectors     ....     2
   Converg. threshold I  (grad. norm)   ....   1.000e-05
   Converg. threshold II (energy diff.) ....   1.000e-08
   Grad. Scal. Fac. for Micro threshold ....   0.100
   Minimum threshold for Micro iter.    ....   0.010
   NR start threshold (gradient norm)   ....   0.001
   Initial trust radius                 ....   0.400
   Minimum AH scaling param. (alpha)    ....   1.000
   Maximum AH scaling param. (alpha)    .... 1000.000
   Orbital update algorithm             .... Taylor
   White noise on init. David. guess    .... on
   Maximum white noise                  ....   0.010
   Quad. conv. algorithm                .... NR
 SOSCF                  CNVSOSCF        .... on
   Start iteration      SOSCFMaxIt      ....   150
   Startup grad/error   SOSCFStart      ....  0.003300
 Level Shifting         CNVShift        .... on
   Level shift para.    LevelShift      ....    0.2500
   Turn off err/grad.   ShiftErr        ....    0.0010
 Zerner damping         CNVZerner       .... off
 Static damping         CNVDamp         .... on
   Fraction old density DampFac         ....    0.7000
   Max. Damping (<1)    DampMax         ....    0.9800
   Min. Damping (>=0)   DampMin         ....    0.0000
   Turn off err/grad.   DampErr         ....    0.1000
 Fernandez-Rico         CNVRico         .... off

SCF Procedure:
 Maximum # iterations   MaxIter         ....   800
 SCF integral mode      SCFMode         .... Direct
   Integral package                     .... SHARK and LIBINT hybrid scheme
 Reset frequency        DirectResetFreq ....    20
 Integral Threshold     Thresh          ....  2.500e-11 Eh
 Primitive CutOff       TCut            ....  2.500e-12 Eh

Convergence Tolerance:
 Convergence Check Mode ConvCheckMode   .... Total+1el-Energy
 Convergence forced     ConvForced      .... 0
 Energy Change          TolE            ....  1.000e-08 Eh
 1-El. energy change                    ....  1.000e-05 Eh
 Orbital Gradient       TolG            ....  1.000e-05
 Orbital Rotation angle TolX            ....  1.000e-05
 DIIS Error             TolErr          ....  5.000e-07


Diagonalization of the overlap matrix:
Smallest eigenvalue                        ... 1.024e-05
Time for diagonalization                   ...    0.015 sec
Threshold for overlap eigenvalues          ... 1.000e-08
Number of eigenvalues below threshold      ... 0
Time for construction of square roots      ...    0.018 sec
Total time needed                          ...    0.035 sec

Time for model grid setup =    0.086 sec

------------------------------
INITIAL GUESS: MODEL POTENTIAL
------------------------------
Loading Hartree-Fock densities                     ... done
Calculating cut-offs                               ... done
Initializing the effective Hamiltonian             ... done
Setting up the integral package (SHARK)            ... done
Starting the Coulomb interaction                   ... done (   0.1 sec)
Reading the grid                                   ... done
Mapping shells                                     ... done
Starting the XC term evaluation                    ... done (   0.0 sec)
  promolecular density results
     # of electrons  =     49.996774731
     EX              =    -40.619440852
     EC              =     -1.654733182
     EX+EC           =    -42.274174034
Transforming the Hamiltonian                       ... done (   0.0 sec)
Diagonalizing the Hamiltonian                      ... done (   0.0 sec)
Back transforming the eigenvectors                 ... done (   0.0 sec)
Now organizing SCF variables                       ... done
                      ------------------
                      INITIAL GUESS DONE (   0.3 sec)
                      ------------------
-------------------
DFT GRID GENERATION
-------------------

General Integration Accuracy     IntAcc      ... 4.388
Radial Grid Type                 RadialGrid  ... OptM3 with GC (2021)
Angular Grid (max. ang.)         AngularGrid ... 4 (Lebedev-302)
Angular grid pruning method      GridPruning ... 4 (adaptive)
Weight generation scheme         WeightScheme... Becke
Basis function cutoff            BFCut       ... 1.0000e-11
Integration weight cutoff        WCut        ... 1.0000e-14
Angular grids for H and He will be reduced by one unit
Partially contracted basis set               ... off
Rotationally invariant grid construction     ... off

Total number of grid points                  ...    61545
Total number of batches                      ...      969
Average number of points per batch           ...       63
Average number of grid points per atom       ...     4734
Time for grid setup =    0.319 sec

--------------------
COSX GRID GENERATION
--------------------

GRIDX 1
-------
General Integration Accuracy     IntAcc      ... 3.816
Radial Grid Type                 RadialGrid  ... OptM3 with GC (2021)
Angular Grid (max. ang.)         AngularGrid ... 1 (Lebedev-50)
Angular grid pruning method      GridPruning ... 4 (adaptive)
Weight generation scheme         WeightScheme... Becke
Basis function cutoff            BFCut       ... 1.0000e-11
Integration weight cutoff        WCut        ... 1.0000e-14
Angular grids for H and He will be reduced by one unit
Partially contracted basis set               ... on
Rotationally invariant grid construction     ... off

Total number of grid points                  ...     7880
Total number of batches                      ...      127
Average number of points per batch           ...       62
Average number of grid points per atom       ...      606
UseSFitting                                  ... on

GRIDX 2
-------
General Integration Accuracy     IntAcc      ... 4.020
Radial Grid Type                 RadialGrid  ... OptM3 with GC (2021)
Angular Grid (max. ang.)         AngularGrid ... 2 (Lebedev-110)
Angular grid pruning method      GridPruning ... 4 (adaptive)
Weight generation scheme         WeightScheme... Becke
Basis function cutoff            BFCut       ... 1.0000e-11
Integration weight cutoff        WCut        ... 1.0000e-14
Angular grids for H and He will be reduced by one unit
Partially contracted basis set               ... on
Rotationally invariant grid construction     ... off

Total number of grid points                  ...    17263
Total number of batches                      ...      276
Average number of points per batch           ...       62
Average number of grid points per atom       ...     1328
UseSFitting                                  ... on

GRIDX 3
-------
General Integration Accuracy     IntAcc      ... 4.338
Radial Grid Type                 RadialGrid  ... OptM3 with GC (2021)
Angular Grid (max. ang.)         AngularGrid ... 3 (Lebedev-194)
Angular grid pruning method      GridPruning ... 4 (adaptive)
Weight generation scheme         WeightScheme... Becke
Basis function cutoff            BFCut       ... 1.0000e-11
Integration weight cutoff        WCut        ... 1.0000e-14
Angular grids for H and He will be reduced by one unit
Partially contracted basis set               ... on
Rotationally invariant grid construction     ... off

Total number of grid points                  ...    38008
Total number of batches                      ...      601
Average number of points per batch           ...       63
Average number of grid points per atom       ...     2924
UseSFitting                                  ... on

Time for X-Grid setup             =    0.484 sec


--------------------
CPCM SOLVATION MODEL
--------------------
CPCM parameters:
  Epsilon                                         ...      47.2000
  Refrac                                          ...       1.4790
  Rsolv                                           ...       1.3000
  Surface type                                    ... GAUSSIAN VDW
  Epsilon function type                           ...         CPCM
Radii:
 Radius for C  used is    3.8550 Bohr (=   2.0400 Ang.)
 Radius for H  used is    2.4944 Bohr (=   1.3200 Ang.)
 Radius for O  used is    3.4469 Bohr (=   1.8240 Ang.)
Calculating surface                               ...        done! (  0.0s)
GEPOL surface points                              ...          756
GEPOL Volume                                      ...     833.8053
GEPOL Surface-area                                ...     481.8553
Calculating surface distance matrix               ...        done! (  0.0s)
Performing Cholesky decomposition & store         ...        done! (  0.0s)
Overall time for CPCM initialization              ...                 0.1s
--------------
SCF ITERATIONS
--------------
ITER       Energy         Delta-E        Max-DP      RMS-DP      [F,P]     Damp
               ***  Starting incremental Fock matrix formation  ***
  0   -307.0611061364   0.000000000000 0.05661079  0.00120422  0.2099231 0.7000
  1   -307.1394118883  -0.078305751869 0.06626765  0.00109848  0.0999747 0.7000
                               ***Turning on DIIS***
  2   -307.1743466852  -0.034934796914 0.10775689  0.00202671  0.0377256 0.0000
  3   -307.2252616894  -0.050915004164 0.05944825  0.00078118  0.0478073 0.0000
  4   -307.2374431216  -0.012181432238 0.01580767  0.00024688  0.0081148 0.0000
  5   -307.2379235388  -0.000480417182 0.00878056  0.00012132  0.0051064 0.0000
                      *** Initiating the SOSCF procedure ***
                           *** Shutting down DIIS ***
                      *** Re-Reading the Fockian *** 
                      *** Removing any level shift *** 
ITER      Energy       Delta-E        Grad      Rot      Max-DP    RMS-DP
  6   -307.23796608  -0.0000425368  0.000217  0.000217  0.002108  0.000040
               *** Restarting incremental Fock matrix formation ***
  7   -307.23794857   0.0000175035  0.000072  0.000252  0.001202  0.000033
  8   -307.23794866  -0.0000000831  0.000122  0.000215  0.000199  0.000007
  9   -307.23794890  -0.0000002453  0.000016  0.000037  0.000190  0.000006
 10   -307.23794890  -0.0000000030  0.000007  0.000012  0.000118  0.000002
 11   -307.23794891  -0.0000000023  0.000005  0.000008  0.000025  0.000001
                  ***Gradient check signals convergence***
              ***Rediagonalizing the Fockian in SOSCF/NRSCF***

               *****************************************************
               *                     SUCCESS                       *
               *           SCF CONVERGED AFTER  12 CYCLES          *
               *****************************************************

Old exchange energy                            =    -10.376359371 Eh
New exchange energy                            =    -10.376357878 Eh
Exchange energy change after final integration =      0.000001493 Eh
Total energy after final integration           =   -307.237947411 Eh
Final COS-X integration done in                =     0.979 sec

----------------
TOTAL SCF ENERGY
----------------

Total Energy       :         -307.23794741 Eh           -8360.36958 eV

Components:
Nuclear Repulsion  :          272.26813919 Eh            7408.79272 eV
Electronic Energy  :         -579.50608660 Eh          -15769.16231 eV
One Electron Energy:         -955.16557535 Eh          -25991.37668 eV
Two Electron Energy:          375.65948875 Eh           10222.21438 eV
Max COSX asymmetry :            0.00000123 Eh               0.00003 eV
CPCM Dielectric    :           -0.01177496 Eh              -0.32041 eV

Virial components:
Potential Energy   :         -613.06005155 Eh          -16682.21211 eV
Kinetic Energy     :          305.82210414 Eh            8321.84253 eV
Virial Ratio       :            2.00462963


DFT components:
N(Alpha)           :       25.000030476062 electrons
N(Beta)            :       25.000030476062 electrons
N(Total)           :       50.000060952125 electrons
E(X)               :      -31.047168399921 Eh       
E(C)               :       -1.664563493064 Eh       
E(XC)              :      -32.711731892985 Eh       
DFET-embed. en.    :        0.000000000000 Eh       
CPCM Solvation Model Properties:
Surface-charge          :           -0.02105613
Charge-correction       :            0.00015111 Eh               0.00411 eV
Free-energy (cav+disp)  :  This term is not implemented in the current solvation scheme

---------------
SCF CONVERGENCE
---------------

  Last Energy change         ...    9.5224e-10  Tolerance :   1.0000e-08
  Last MAX-Density change    ...    1.3323e-15  Tolerance :   1.0000e-07
  Last RMS-Density change    ...    1.6295e-17  Tolerance :   5.0000e-09
  Last Orbital Gradient      ...    7.0718e-07  Tolerance :   1.0000e-05
  Last Orbital Rotation      ...    1.3881e-06  Tolerance :   1.0000e-05

             **** THE GBW FILE WAS UPDATED (PhenOH/PhenOH.gbw) ****
             **** DENSITY PhenOH/PhenOH.scfp WAS UPDATED ****
             **** ENERGY FILE WAS UPDATED (PhenOH/PhenOH.en.tmp) ****
             **** THE GBW FILE WAS UPDATED (PhenOH/PhenOH.gbw) ****
             **** DENSITY PhenOH/PhenOH.scfp WAS UPDATED ****
----------------
ORBITAL ENERGIES
----------------

  NO   OCC          E(Eh)            E(eV) 
   0   2.0000     -19.237545      -523.4802 
   1   2.0000     -10.288694      -279.9696 
   2   2.0000     -10.228894      -278.3424 
   3   2.0000     -10.228381      -278.3284 
   4   2.0000     -10.224483      -278.2223 
   5   2.0000     -10.222417      -278.1661 
   6   2.0000     -10.219368      -278.0831 
   7   2.0000      -1.095697       -29.8154 
   8   2.0000      -0.881815       -23.9954 
   9   2.0000      -0.775361       -21.0987 
  10   2.0000      -0.763655       -20.7801 
  11   2.0000      -0.645892       -17.5756 
  12   2.0000      -0.623549       -16.9676 
  13   2.0000      -0.563593       -15.3361 
  14   2.0000      -0.515475       -14.0268 
  15   2.0000      -0.484557       -13.1855 
  16   2.0000      -0.451812       -12.2944 
  17   2.0000      -0.436027       -11.8649 
  18   2.0000      -0.434999       -11.8369 
  19   2.0000      -0.408367       -11.1122 
  20   2.0000      -0.373222       -10.1559 
  21   2.0000      -0.360086        -9.7984 
  22   2.0000      -0.350869        -9.5476 
  23   2.0000      -0.272692        -7.4203 
  24   2.0000      -0.241819        -6.5802 
  25   0.0000      -0.010902        -0.2967 
  26   0.0000       0.005920         0.1611 
  27   0.0000       0.063048         1.7156 
  28   0.0000       0.070718         1.9243 
  29   0.0000       0.099478         2.7069 
  30   0.0000       0.113143         3.0788 
  31   0.0000       0.129136         3.5140 
  32   0.0000       0.141107         3.8397 
  33   0.0000       0.152083         4.1384 
  34   0.0000       0.155953         4.2437 
  35   0.0000       0.197889         5.3848 
  36   0.0000       0.211790         5.7631 
  37   0.0000       0.212734         5.7888 
  38   0.0000       0.232354         6.3227 
  39   0.0000       0.235361         6.4045 
  40   0.0000       0.251382         6.8405 
  41   0.0000       0.253422         6.8960 
  42   0.0000       0.263444         7.1687 
  43   0.0000       0.268763         7.3134 
  44   0.0000       0.289606         7.8806 
  45   0.0000       0.329871         8.9763 
  46   0.0000       0.335425         9.1274 
  47   0.0000       0.338751         9.2179 
  48   0.0000       0.343276         9.3410 
  49   0.0000       0.362350         9.8600 
  50   0.0000       0.364580         9.9207 
  51   0.0000       0.383361        10.4318 
  52   0.0000       0.405924        11.0458 
  53   0.0000       0.413031        11.2391 
  54   0.0000       0.432020        11.7559 
  55   0.0000       0.440857        11.9963 
  56   0.0000       0.446912        12.1611 
  57   0.0000       0.457813        12.4577 
  58   0.0000       0.465031        12.6541 
  59   0.0000       0.487244        13.2586 
  60   0.0000       0.493491        13.4286 
  61   0.0000       0.505097        13.7444 
  62   0.0000       0.510304        13.8861 
  63   0.0000       0.517043        14.0695 
  64   0.0000       0.529587        14.4108 
  65   0.0000       0.565372        15.3846 
  66   0.0000       0.593442        16.1484 
  67   0.0000       0.640717        17.4348 
  68   0.0000       0.641004        17.4426 
  69   0.0000       0.658407        17.9162 
  70   0.0000       0.686710        18.6863 
  71   0.0000       0.707634        19.2557 
  72   0.0000       0.727139        19.7865 
  73   0.0000       0.741764        20.1844 
  74   0.0000       0.747393        20.3376 
  75   0.0000       0.769305        20.9339 
  76   0.0000       0.772121        21.0105 
  77   0.0000       0.820248        22.3201 
  78   0.0000       0.831292        22.6206 
  79   0.0000       0.844649        22.9841 
  80   0.0000       0.872659        23.7463 
  81   0.0000       0.877808        23.8864 
  82   0.0000       0.890903        24.2427 
  83   0.0000       0.908031        24.7088 
  84   0.0000       1.008923        27.4542 
  85   0.0000       1.014721        27.6120 
  86   0.0000       1.033290        28.1172 
  87   0.0000       1.044294        28.4167 
  88   0.0000       1.075153        29.2564 
  89   0.0000       1.084258        29.5041 
  90   0.0000       1.150469        31.3058 
  91   0.0000       1.169019        31.8106 
  92   0.0000       1.192117        32.4392 
  93   0.0000       1.194285        32.4982 
  94   0.0000       1.212914        33.0051 
  95   0.0000       1.231788        33.5187 
  96   0.0000       1.237569        33.6760 
  97   0.0000       1.276095        34.7243 
  98   0.0000       1.300573        35.3904 
  99   0.0000       1.339482        36.4492 
 100   0.0000       1.346755        36.6471 
 101   0.0000       1.397835        38.0370 
 102   0.0000       1.404827        38.2273 
 103   0.0000       1.418756        38.6063 
 104   0.0000       1.471074        40.0300 
 105   0.0000       1.478434        40.2302 
 106   0.0000       1.503039        40.8998 
 107   0.0000       1.509825        41.0844 
 108   0.0000       1.524197        41.4755 
 109   0.0000       1.579154        42.9710 
 110   0.0000       1.611036        43.8385 
 111   0.0000       1.628272        44.3075 
 112   0.0000       1.634401        44.4743 
 113   0.0000       1.678126        45.6641 
 114   0.0000       1.691343        46.0238 
 115   0.0000       1.694878        46.1200 
 116   0.0000       1.715009        46.6678 
 117   0.0000       1.723206        46.8908 
 118   0.0000       1.753649        47.7192 
 119   0.0000       1.763460        47.9862 
 120   0.0000       1.795310        48.8529 
 121   0.0000       1.845230        50.2113 
 122   0.0000       1.862585        50.6835 
 123   0.0000       1.896724        51.6125 
 124   0.0000       1.917754        52.1847 
 125   0.0000       1.938509        52.7495 
 126   0.0000       2.021816        55.0164 
 127   0.0000       2.039499        55.4976 
 128   0.0000       2.043301        55.6011 
 129   0.0000       2.087855        56.8134 
 130   0.0000       2.098584        57.1054 
 131   0.0000       2.143364        58.3239 
 132   0.0000       2.157402        58.7059 
 133   0.0000       2.159426        58.7610 
 134   0.0000       2.204268        59.9812 
 135   0.0000       2.231022        60.7092 
 136   0.0000       2.255117        61.3649 
 137   0.0000       2.276570        61.9486 
 138   0.0000       2.326338        63.3029 
 139   0.0000       2.362325        64.2821 
 140   0.0000       2.416052        65.7441 
 141   0.0000       2.452738        66.7424 
 142   0.0000       2.492702        67.8299 
 143   0.0000       2.526757        68.7565 
 144   0.0000       2.548119        69.3378 
 145   0.0000       2.582735        70.2798 
 146   0.0000       2.591038        70.5057 
 147   0.0000       2.605307        70.8940 
 148   0.0000       2.638086        71.7860 
 149   0.0000       2.653037        72.1928 
 150   0.0000       2.678659        72.8900 
 151   0.0000       2.690160        73.2030 
 152   0.0000       2.691804        73.2477 
 153   0.0000       2.699974        73.4700 
 154   0.0000       2.732252        74.3483 
 155   0.0000       2.738126        74.5082 
 156   0.0000       2.772680        75.4485 
 157   0.0000       2.773225        75.4633 
 158   0.0000       2.779115        75.6236 
 159   0.0000       2.815793        76.6216 
 160   0.0000       2.837955        77.2247 
 161   0.0000       2.838575        77.2416 
 162   0.0000       2.863196        77.9115 
 163   0.0000       2.882028        78.4240 
 164   0.0000       2.891055        78.6696 
 165   0.0000       2.921359        79.4942 
 166   0.0000       2.926825        79.6429 
 167   0.0000       2.959243        80.5251 
 168   0.0000       3.034716        82.5788 
 169   0.0000       3.035804        82.6084 
 170   0.0000       3.053592        83.0925 
 171   0.0000       3.099264        84.3353 
 172   0.0000       3.101600        84.3988 
 173   0.0000       3.131982        85.2256 
 174   0.0000       3.143383        85.5358 
 175   0.0000       3.155367        85.8619 
 176   0.0000       3.176069        86.4252 
 177   0.0000       3.215528        87.4990 
 178   0.0000       3.217416        87.5503 
 179   0.0000       3.235035        88.0298 
 180   0.0000       3.244615        88.2905 
 181   0.0000       3.251413        88.4754 
 182   0.0000       3.275672        89.1356 
 183   0.0000       3.320256        90.3488 
 184   0.0000       3.321047        90.3703 
 185   0.0000       3.367322        91.6295 
 186   0.0000       3.387548        92.1799 
 187   0.0000       3.407573        92.7248 
 188   0.0000       3.431564        93.3776 
 189   0.0000       3.455208        94.0210 
 190   0.0000       3.462607        94.2223 
 191   0.0000       3.490128        94.9712 
 192   0.0000       3.511684        95.5578 
 193   0.0000       3.526130        95.9509 
 194   0.0000       3.528715        96.0212 
 195   0.0000       3.542066        96.3845 
 196   0.0000       3.615577        98.3848 
 197   0.0000       3.659099        99.5692 
 198   0.0000       3.702626       100.7536 
 199   0.0000       3.757343       102.2425 
 200   0.0000       3.785316       103.0037 
 201   0.0000       3.790240       103.1377 
 202   0.0000       3.844497       104.6141 
 203   0.0000       3.940265       107.2201 
 204   0.0000       3.979732       108.2940 
 205   0.0000       4.023781       109.4926 
 206   0.0000       4.057336       110.4057 
 207   0.0000       4.071573       110.7931 
 208   0.0000       4.106838       111.7528 
 209   0.0000       4.111274       111.8735 
 210   0.0000       4.189159       113.9928 
 211   0.0000       4.207065       114.4801 
 212   0.0000       4.219454       114.8172 
 213   0.0000       4.234697       115.2320 
 214   0.0000       4.241905       115.4281 
 215   0.0000       4.282380       116.5295 
 216   0.0000       4.308465       117.2393 
 217   0.0000       4.318788       117.5202 
 218   0.0000       4.380137       119.1896 
 219   0.0000       4.515055       122.8609 
 220   0.0000       4.610244       125.4511 
 221   0.0000       4.645765       126.4177 
 222   0.0000       4.681427       127.3881 
 223   0.0000       4.708113       128.1143 
 224   0.0000       4.795625       130.4956 
 225   0.0000       4.858799       132.2146 
 226   0.0000       4.877185       132.7150 
 227   0.0000       4.899368       133.3186 
 228   0.0000       5.140510       139.8804 
 229   0.0000       5.192149       141.2856 
 230   0.0000       5.244314       142.7050 
 231   0.0000       5.276143       143.5712 
 232   0.0000       5.311061       144.5213 
 233   0.0000       5.404678       147.0688 
 234   0.0000       5.499487       149.6486 
 235   0.0000       5.508063       149.8820 
 236   0.0000       5.613446       152.7496 
 237   0.0000       5.815924       158.2593 
 238   0.0000       6.020288       163.8204 
 239   0.0000       6.343462       172.6144 
 240   0.0000       6.415812       174.5831 
 241   0.0000       6.437228       175.1659 
 242   0.0000       6.732499       183.2006 
 243   0.0000       6.817437       185.5119 
 244   0.0000       7.000905       190.5043 
 245   0.0000       7.294072       198.4818 
 246   0.0000      22.066350       600.4559 
 247   0.0000      22.672452       616.9488 
 248   0.0000      22.684197       617.2684 
 249   0.0000      22.781108       619.9055 
 250   0.0000      22.895905       623.0293 
 251   0.0000      23.320539       634.5841 
 252   0.0000      44.016876      1197.7601 

                    ********************************
                    * MULLIKEN POPULATION ANALYSIS *
                    ********************************

-----------------------
MULLIKEN ATOMIC CHARGES
-----------------------
   0 C :   -0.183675
   1 C :   -0.146508
   2 C :   -0.131372
   3 H :    0.153278
   4 H :    0.150191
   5 C :   -0.248180
   6 C :   -0.249008
   7 H :    0.157014
   8 H :    0.144034
   9 C :    0.272399
  10 H :    0.149004
  11 O :   -0.434558
  12 H :    0.367381
Sum of atomic charges:    0.0000000

--------------------------------
MULLIKEN REDUCED ORBITAL CHARGES
--------------------------------
  0 C s       :     3.179897  s :     3.179897
      pz      :     0.981638  p :     2.903384
      px      :     1.009348
      py      :     0.912397
      dz2     :     0.027804  d :     0.093201
      dxz     :     0.005695
      dyz     :     0.023010
      dx2y2   :     0.015348
      dxy     :     0.021343
      f0      :     0.000894  f :     0.007194
      f+1     :     0.000149
      f-1     :     0.001961
      f+2     :     0.000796
      f-2     :     0.001081
      f+3     :     0.001537
      f-3     :     0.000776
  1 C s       :     3.173056  s :     3.173056
      pz      :     0.946282  p :     2.869117
      px      :     0.953255
      py      :     0.969580
      dz2     :     0.019995  d :     0.096968
      dxz     :     0.021472
      dyz     :     0.035569
      dx2y2   :     0.009286
      dxy     :     0.010646
      f0      :     0.000834  f :     0.007367
      f+1     :     0.001495
      f-1     :     0.002137
      f+2     :     0.000762
      f-2     :     0.000381
      f+3     :     0.001078
      f-3     :     0.000680
  2 C s       :     3.173234  s :     3.173234
      pz      :     0.928450  p :     2.854057
      px      :     0.952768
      py      :     0.972839
      dz2     :     0.022979  d :     0.096766
      dxz     :     0.022390
      dyz     :     0.032770
      dx2y2   :     0.009357
      dxy     :     0.009270
      f0      :     0.000857  f :     0.007315
      f+1     :     0.001464
      f-1     :     0.002141
      f+2     :     0.000697
      f-2     :     0.000522
      f+3     :     0.000942
      f-3     :     0.000692
  3 H s       :     0.824703  s :     0.824703
      pz      :     0.006463  p :     0.022019
      px      :     0.004601
      py      :     0.010955
  4 H s       :     0.827805  s :     0.827805
      pz      :     0.005751  p :     0.022005
      px      :     0.004600
      py      :     0.011654
  5 C s       :     3.237015  s :     3.237015
      pz      :     0.921716  p :     2.920158
      px      :     1.036404
      py      :     0.962038
      dz2     :     0.018735  d :     0.083858
      dxz     :     0.017359
      dyz     :     0.030071
      dx2y2   :     0.009100
      dxy     :     0.008594
      f0      :     0.000877  f :     0.007148
      f+1     :     0.001421
      f-1     :     0.002007
      f+2     :     0.000776
      f-2     :     0.000446
      f+3     :     0.000933
      f-3     :     0.000688
  6 C s       :     3.251534  s :     3.251534
      pz      :     0.929322  p :     2.906605
      px      :     1.026652
      py      :     0.950632
      dz2     :     0.017164  d :     0.083480
      dxz     :     0.016693
      dyz     :     0.031255
      dx2y2   :     0.007830
      dxy     :     0.010538
      f0      :     0.000821  f :     0.007389
      f+1     :     0.001417
      f-1     :     0.002185
      f+2     :     0.000816
      f-2     :     0.000398
      f+3     :     0.001068
      f-3     :     0.000684
  7 H s       :     0.820830  s :     0.820830
      pz      :     0.005584  p :     0.022157
      px      :     0.005055
      py      :     0.011517
  8 H s       :     0.833778  s :     0.833778
      pz      :     0.006489  p :     0.022188
      px      :     0.004998
      py      :     0.010700
  9 C s       :     3.002361  s :     3.002361
      pz      :     0.712181  p :     2.529438
      px      :     0.916747
      py      :     0.900511
      dz2     :     0.034050  d :     0.180061
      dxz     :     0.046910
      dyz     :     0.058651
      dx2y2   :     0.015257
      dxy     :     0.025194
      f0      :     0.002573  f :     0.015741
      f+1     :     0.003357
      f-1     :     0.005405
      f+2     :     0.000740
      f-2     :     0.001100
      f+3     :     0.001739
      f-3     :     0.000827
 10 H s       :     0.828813  s :     0.828813
      pz      :     0.013556  p :     0.022183
      px      :     0.005028
      py      :     0.003598
 11 O s       :     3.751745  s :     3.751745
      pz      :     1.345682  p :     4.648731
      px      :     1.821538
      py      :     1.481512
      dz2     :     0.011567  d :     0.032332
      dxz     :     0.005727
      dyz     :     0.007296
      dx2y2   :     0.006432
      dxy     :     0.001310
      f0      :     0.000535  f :     0.001750
      f+1     :     0.000307
      f-1     :     0.000260
      f+2     :     0.000227
      f-2     :     0.000021
      f+3     :     0.000055
      f-3     :     0.000346
 12 H s       :     0.587310  s :     0.587310
      pz      :     0.010956  p :     0.045309
      px      :     0.014954
      py      :     0.019399


                     *******************************
                     * LOEWDIN POPULATION ANALYSIS *
                     *******************************

----------------------
LOEWDIN ATOMIC CHARGES
----------------------
   0 C :   -0.174703
   1 C :   -0.150380
   2 C :   -0.149932
   3 H :    0.153880
   4 H :    0.153760
   5 C :   -0.146934
   6 C :   -0.137968
   7 H :    0.156671
   8 H :    0.155047
   9 C :   -0.294117
  10 H :    0.150355
  11 O :    0.077073
  12 H :    0.207247

-------------------------------
LOEWDIN REDUCED ORBITAL CHARGES
-------------------------------
  0 C s       :     2.763859  s :     2.763859
      pz      :     0.993184  p :     2.979268
      px      :     0.918901
      py      :     1.067183
      dz2     :     0.123726  d :     0.388328
      dxz     :     0.013453
      dyz     :     0.104902
      dx2y2   :     0.070564
      dxy     :     0.075683
      f0      :     0.004412  f :     0.043248
      f+1     :     0.000169
      f-1     :     0.014865
      f+2     :     0.006675
      f-2     :     0.007553
      f+3     :     0.004101
      f-3     :     0.005472
  1 C s       :     2.765043  s :     2.765043
      pz      :     1.046966  p :     2.940200
      px      :     0.875105
      py      :     1.018129
      dz2     :     0.097873  d :     0.401391
      dxz     :     0.070932
      dyz     :     0.154200
      dx2y2   :     0.044977
      dxy     :     0.033409
      f0      :     0.007245  f :     0.043747
      f+1     :     0.006564
      f-1     :     0.015043
      f+2     :     0.004593
      f-2     :     0.002622
      f+3     :     0.003689
      f-3     :     0.003991
  2 C s       :     2.764968  s :     2.764968
      pz      :     1.053651  p :     2.940149
      px      :     0.874605
      py      :     1.011893
      dz2     :     0.105888  d :     0.401135
      dxz     :     0.075685
      dyz     :     0.145558
      dx2y2   :     0.045884
      dxy     :     0.028121
      f0      :     0.007390  f :     0.043679
      f+1     :     0.006138
      f-1     :     0.015197
      f+2     :     0.004526
      f-2     :     0.003597
      f+3     :     0.003068
      f-3     :     0.003763
  3 H s       :     0.786323  s :     0.786323
      pz      :     0.017711  p :     0.059797
      px      :     0.013049
      py      :     0.029037
  4 H s       :     0.786513  s :     0.786513
      pz      :     0.016007  p :     0.059727
      px      :     0.013024
      py      :     0.030696
  5 C s       :     2.762525  s :     2.762525
      pz      :     1.045215  p :     2.970082
      px      :     0.932786
      py      :     0.992082
      dz2     :     0.094687  d :     0.371786
      dxz     :     0.061171
      dyz     :     0.147587
      dx2y2   :     0.043209
      dxy     :     0.025133
      f0      :     0.007475  f :     0.042540
      f+1     :     0.005827
      f-1     :     0.014361
      f+2     :     0.004844
      f-2     :     0.003395
      f+3     :     0.002942
      f-3     :     0.003697
  6 C s       :     2.761540  s :     2.761540
      pz      :     1.043275  p :     2.965566
      px      :     0.925290
      py      :     0.997001
      dz2     :     0.088552  d :     0.368375
      dxz     :     0.056247
      dyz     :     0.151295
      dx2y2   :     0.042867
      dxy     :     0.029413
      f0      :     0.007337  f :     0.042487
      f+1     :     0.006075
      f-1     :     0.014261
      f+2     :     0.004808
      f-2     :     0.002531
      f+3     :     0.003511
      f-3     :     0.003965
  7 H s       :     0.782303  s :     0.782303
      pz      :     0.015801  p :     0.061026
      px      :     0.014566
      py      :     0.030660
  8 H s       :     0.783881  s :     0.783881
      pz      :     0.017972  p :     0.061072
      px      :     0.014399
      py      :     0.028701
  9 C s       :     2.716334  s :     2.716334
      pz      :     0.840670  p :     2.777926
      px      :     0.848646
      py      :     1.088610
      dz2     :     0.205657  d :     0.700701
      dxz     :     0.145506
      dyz     :     0.197312
      dx2y2   :     0.069592
      dxy     :     0.082635
      f0      :     0.019686  f :     0.099156
      f+1     :     0.019809
      f-1     :     0.034641
      f+2     :     0.006219
      f-2     :     0.007663
      f+3     :     0.005409
      f-3     :     0.005729
 10 H s       :     0.789008  s :     0.789008
      pz      :     0.035494  p :     0.060638
      px      :     0.014349
      py      :     0.010795
 11 O s       :     3.318633  s :     3.318633
      pz      :     1.383916  p :     4.527527
      px      :     1.705394
      py      :     1.438218
      dz2     :     0.024696  d :     0.071903
      dxz     :     0.014681
      dyz     :     0.022640
      dx2y2   :     0.009389
      dxy     :     0.000497
      f0      :     0.001419  f :     0.004864
      f+1     :     0.001029
      f-1     :     0.001450
      f+2     :     0.000392
      f-2     :     0.000010
      f+3     :     0.000001
      f-3     :     0.000564
 12 H s       :     0.639376  s :     0.639376
      pz      :     0.029795  p :     0.153377
      px      :     0.041618
      py      :     0.081964


                      *****************************
                      * MAYER POPULATION ANALYSIS *
                      *****************************

  NA   - Mulliken gross atomic population
  ZA   - Total nuclear charge
  QA   - Mulliken gross atomic charge
  VA   - Mayer's total valence
  BVA  - Mayer's bonded valence
  FA   - Mayer's free valence

  ATOM       NA         ZA         QA         VA         BVA        FA
  0 C      6.1837     6.0000    -0.1837     3.9170     3.9170     0.0000
  1 C      6.1465     6.0000    -0.1465     3.8913     3.8913     0.0000
  2 C      6.1314     6.0000    -0.1314     3.9234     3.9234     0.0000
  3 H      0.8467     1.0000     0.1533     0.9606     0.9606     0.0000
  4 H      0.8498     1.0000     0.1502     0.9597     0.9597     0.0000
  5 C      6.2482     6.0000    -0.2482     3.8711     3.8711    -0.0000
  6 C      6.2490     6.0000    -0.2490     3.9570     3.9570    -0.0000
  7 H      0.8430     1.0000     0.1570     0.9664     0.9664     0.0000
  8 H      0.8560     1.0000     0.1440     0.9780     0.9780     0.0000
  9 C      5.7276     6.0000     0.2724     3.9642     3.9642     0.0000
 10 H      0.8510     1.0000     0.1490     0.9623     0.9623     0.0000
 11 O      8.4346     8.0000    -0.4346     2.0606     2.0606     0.0000
 12 H      0.6326     1.0000     0.3674     0.8779     0.8779     0.0000

  Mayer bond orders larger than 0.100000
B(  0-C ,  1-C ) :   1.4082 B(  0-C ,  2-C ) :   1.4035 B(  0-C , 10-H ) :   0.9679 
B(  1-C ,  3-H ) :   0.9568 B(  1-C ,  5-C ) :   1.3895 B(  2-C ,  4-H ) :   0.9685 
B(  2-C ,  6-C ) :   1.4393 B(  5-C ,  7-H ) :   0.9609 B(  5-C ,  9-C ) :   1.3651 
B(  6-C ,  8-H ) :   0.9756 B(  6-C ,  9-C ) :   1.3792 B(  9-C , 11-O ) :   1.1229 
B( 11-O , 12-H ) :   0.8519 

-------
TIMINGS
-------

Total SCF time: 0 days 0 hours 0 min 18 sec 

Total time                  ....      18.703 sec
Sum of individual times     ....      17.681 sec  ( 94.5%)

Fock matrix formation       ....      15.949 sec  ( 85.3%)
  Split-RI-J                ....       1.552 sec  (  9.7% of F)
  Chain of spheres X        ....       6.446 sec  ( 40.4% of F)
  XC integration            ....       3.352 sec  ( 21.0% of F)
    Basis function eval.    ....       0.276 sec  (  8.2% of XC)
    Density eval.           ....       0.247 sec  (  7.4% of XC)
    XC-Functional eval.     ....       0.058 sec  (  1.7% of XC)
    XC-Potential eval.      ....       0.283 sec  (  8.4% of XC)
Diagonalization             ....       0.239 sec  (  1.3%)
Density matrix formation    ....       0.024 sec  (  0.1%)
Population analysis         ....       0.067 sec  (  0.4%)
Initial guess               ....       0.178 sec  (  1.0%)
Orbital Transformation      ....       0.000 sec  (  0.0%)
Orbital Orthonormalization  ....       0.000 sec  (  0.0%)
DIIS solution               ....       0.173 sec  (  0.9%)
SOSCF solution              ....       0.162 sec  (  0.9%)
Grid generation             ....       0.889 sec  (  4.8%)

Maximum memory used throughout the entire SCF-calculation: 71.7 MB


-------------------------------------------------------------------------------
                          DFT DISPERSION CORRECTION                            
                                                                               
                              DFTD3 V3.1  Rev 1                                
                          USING Becke-Johnson damping                          
-------------------------------------------------------------------------------
The PBE0 functional is recognized
Active option DFTDOPT                   ...         4   

molecular C6(AA) [au] = 1919.668899 


            DFT-D V3
 parameters
 s6 scaling factor         :     1.0000 
 a1 scaling factor         :     0.4145 
 s8 scaling factor         :     1.2177 
 a2 scaling factor         :     4.8593 
 ad hoc parameters k1-k3   :    16.0000     1.3333    -4.0000 

 Edisp/kcal,au: -6.566217484868  -0.010463932508 
 E6   /kcal   :  -4.086408086 
 E8   /kcal   :  -2.479809399 
 % E8         :  37.766178241 

-------------------------   ----------------
Dispersion correction           -0.010463933
-------------------------   ----------------


-------------------------   --------------------
FINAL SINGLE POINT ENERGY      -307.248411343861
-------------------------   --------------------



           ************************************************************
           *        Program running with 24 parallel MPI-processes    *
           *              working on a common directory               *
           ************************************************************
------------------------------------------------------------------------------
                         ORCA SCF GRADIENT CALCULATION
------------------------------------------------------------------------------

 ... reading COSX grid (gridx3)
Gradient of the Kohn-Sham DFT energy:
Kohn-Sham wavefunction type      ... RKS
Hartree-Fock exchange scaling    ...    0.250
Number of operators              ...    1
Number of atoms                  ...   13
Basis set dimensions             ...  253
Integral neglect threshold       ... 2.5e-11
Integral primitive cutoff        ... 2.5e-12
SHARK Integral package           ... ON

Nuc. rep. gradient       (SHARK) ... done (  0.0 sec)
HCore & Overlap gradient (SHARK) ... done (  0.0 sec)
RI-J gradient            (SHARK) ... done (  0.4 sec)
COSX-gradient                    ... done (  1.2 sec)
Exchange-correlation gradient    ... done
Dispersion correction            ... done

------------------
CARTESIAN GRADIENT
------------------

   1   C   :   -0.000000136   -0.000116157    0.000164805
   2   C   :    0.000000090    0.000015232    0.000208506
   3   C   :    0.000000087    0.000193425   -0.000098578
   4   H   :   -0.000000025    0.000021301   -0.000054788
   5   H   :   -0.000000021   -0.000030846   -0.000045242
   6   C   :    0.000000084   -0.000065529   -0.000215419
   7   C   :   -0.000000053    0.000087183    0.000146107
   8   H   :   -0.000000039   -0.000006994    0.000092645
   9   H   :    0.000000020   -0.000124931   -0.000126656
  10   C   :   -0.000000036   -0.000031204   -0.000031513
  11   H   :    0.000000044    0.000061130   -0.000061494
  12   O   :    0.000000012   -0.000016996   -0.000161368
  13   H   :   -0.000000006   -0.000029357    0.000112618

Difference to translation invariance:
           :    0.0000000200   -0.0000437414   -0.0000703779

Difference to rotation invariance:
           :    0.0017978932   -0.0000000505   -0.0000000343

Norm of the cartesian gradient     ...    0.0005542855
RMS gradient                       ...    0.0000887567
MAX gradient                       ...    0.0002154194

-------
TIMINGS
-------

Total SCF gradient time            ...        3.269 sec

One electron gradient       ....       0.029 sec  (  0.9%)
RI-J Coulomb gradient       ....       0.408 sec  ( 12.5%)
COSX gradient               ....       1.209 sec  ( 37.0%)
XC gradient                 ....       0.597 sec  ( 18.3%)
CPCM gradient               ....       0.158 sec  (  4.8%)
   A-Matrix (El+Nuc)        ....       0.050 sec  (  1.5%)
   Potential                ....       0.108 sec  (  3.3%)

Maximum memory used throughout the entire SCFGRAD-calculation: 45.3 MB
------------------------------------------------------------------------------
                         ORCA GEOMETRY RELAXATION STEP
------------------------------------------------------------------------------

Reading the OPT-File                    .... done
Getting information on internals        .... done
Copying old internal coords+grads       .... done
Making the new internal coordinates     .... (new redundants).... done
Validating the new internal coordinates .... (new redundants).... done
Calculating the B-matrix                .... done
Calculating the G,G- and P matrices     .... done
Transforming gradient to internals      .... done
Projecting the internal gradient        .... done
Number of atoms                         ....  13
Number of internal coordinates          ....  58
Current Energy                          ....  -307.248411344 Eh
Current gradient norm                   ....     0.000554285 Eh/bohr
Maximum allowed component of the step   ....  0.200
Current trust radius                    ....  0.300
Evaluating the initial hessian          ....  (Almloef) done
Projecting the Hessian                  .... done
Forming the augmented Hessian           .... done
Diagonalizing the augmented Hessian     .... done
Last element of RFO vector              ....  0.999999553
Lowest eigenvalues of augmented Hessian:
 -0.000000363  0.026810879  0.027141143  0.027241086  0.027264166
Length of the computed step             ....  0.000945021
The final length of the internal step   ....  0.000945021
Converting the step to cartesian space:
 Initial RMS(Int)=    0.0001240874
Transforming coordinates:
 Iter   0:  RMS(Cart)=    0.0001844686 RMS(Int)=    1.4289810447
 Iter   1:  RMS(Cart)=    0.0000000383 RMS(Int)=    0.0000000328
done
Storing new coordinates                 .... done

                                .--------------------.
          ----------------------|Geometry convergence|-------------------------
          Item                value                   Tolerance       Converged
          ---------------------------------------------------------------------
          RMS gradient        0.0000517521            0.0000300000      NO
          MAX gradient        0.0001681356            0.0001000000      NO
          RMS step            0.0001240874            0.0006000000      YES
          MAX step            0.0004537406            0.0010000000      YES
          ........................................................
          Max(Bonds)      0.0001      Max(Angles)    0.03
          Max(Dihed)        0.00      Max(Improp)    0.00
          ---------------------------------------------------------------------

The optimization has not yet converged - more geometry cycles are needed


    ---------------------------------------------------------------------------
                         Redundant Internal Coordinates
                            (Angstroem and degrees)

        Definition                    Value    dE/dq     Step     New-Value
    ----------------------------------------------------------------------------
     1. B(C   1,C   0)                1.3883 -0.000030  0.0000    1.3884   
     2. B(C   2,C   0)                1.3895 -0.000167  0.0001    1.3897   
     3. B(H   3,C   1)                1.0844  0.000043 -0.0001    1.0844   
     4. B(H   4,C   2)                1.0845  0.000046 -0.0001    1.0844   
     5. B(C   5,C   1)                1.3873 -0.000141  0.0001    1.3874   
     6. B(C   6,C   2)                1.3863 -0.000017  0.0000    1.3863   
     7. B(H   7,C   5)                1.0858  0.000040 -0.0001    1.0857   
     8. B(H   8,C   6)                1.0841  0.000040 -0.0001    1.0841   
     9. B(C   9,C   6)                1.3914 -0.000037  0.0000    1.3915   
    10. B(C   9,C   5)                1.3915 -0.000006  0.0000    1.3915   
    11. B(H  10,C   0)                1.0836  0.000053 -0.0001    1.0835   
    12. B(O  11,C   9)                1.3559 -0.000052  0.0000    1.3560   
    13. B(H  12,O  11)                0.9643  0.000051 -0.0001    0.9642   
    14. A(C   1,C   0,H  10)          120.35 -0.000041    0.01    120.36   
    15. A(C   2,C   0,H  10)          120.41  0.000008   -0.00    120.41   
    16. A(C   1,C   0,C   2)          119.24  0.000034   -0.00    119.23   
    17. A(H   3,C   1,C   5)          119.27  0.000078   -0.01    119.26   
    18. A(C   0,C   1,C   5)          120.60 -0.000016    0.00    120.61   
    19. A(C   0,C   1,H   3)          120.13 -0.000062    0.01    120.14   
    20. A(C   0,C   2,H   4)          120.01  0.000009   -0.00    120.01   
    21. A(C   0,C   2,C   6)          120.74  0.000020   -0.00    120.74   
    22. A(H   4,C   2,C   6)          119.24 -0.000029    0.00    119.25   
    23. A(H   7,C   5,C   9)          119.59 -0.000056    0.01    119.60   
    24. A(C   1,C   5,C   9)          119.75  0.000005   -0.00    119.75   
    25. A(C   1,C   5,H   7)          120.66  0.000052   -0.01    120.65   
    26. A(H   8,C   6,C   9)          119.35  0.000158   -0.02    119.33   
    27. A(C   2,C   6,C   9)          119.63 -0.000049    0.01    119.63   
    28. A(C   2,C   6,H   8)          121.02 -0.000110    0.02    121.04   
    29. A(C   5,C   9,C   6)          120.04  0.000007   -0.00    120.04   
    30. A(C   6,C   9,O  11)          117.76 -0.000033    0.00    117.76   
    31. A(C   5,C   9,O  11)          122.21  0.000026   -0.00    122.20   
    32. A(C   9,O  11,H  12)          109.61  0.000168   -0.03    109.58   
    33. D(C   5,C   1,C   0,C   2)      0.00 -0.000000    0.00      0.00   
    34. D(C   5,C   1,C   0,H  10)   -180.00  0.000000   -0.00   -180.00   
    35. D(H   3,C   1,C   0,H  10)      0.00  0.000000   -0.00     -0.00   
    36. D(H   3,C   1,C   0,C   2)    180.00  0.000000   -0.00    180.00   
    37. D(C   6,C   2,C   0,C   1)      0.00  0.000000   -0.00     -0.00   
    38. D(H   4,C   2,C   0,C   1)    180.00  0.000000   -0.00    180.00   
    39. D(H   4,C   2,C   0,H  10)      0.00 -0.000000    0.00      0.00   
    40. D(C   6,C   2,C   0,H  10)    180.00 -0.000000    0.00    180.00   
    41. D(C   9,C   5,C   1,H   3)    180.00 -0.000000    0.00    180.00   
    42. D(C   9,C   5,C   1,C   0)     -0.00  0.000000   -0.00     -0.00   
    43. D(H   7,C   5,C   1,H   3)      0.00  0.000000   -0.00      0.00   
    44. D(H   7,C   5,C   1,C   0)   -180.00  0.000000   -0.00   -180.00   
    45. D(C   9,C   6,C   2,C   0)      0.00 -0.000000    0.00      0.00   
    46. D(H   8,C   6,C   2,H   4)      0.00  0.000000   -0.00     -0.00   
    47. D(H   8,C   6,C   2,C   0)    180.00 -0.000000    0.00    180.00   
    48. D(C   9,C   6,C   2,H   4)    180.00  0.000000   -0.00    180.00   
    49. D(O  11,C   9,C   6,H   8)      0.00 -0.000000    0.00      0.00   
    50. D(C   5,C   9,C   6,H   8)    180.00 -0.000000    0.00    180.00   
    51. D(C   5,C   9,C   6,C   2)     -0.00 -0.000000    0.00     -0.00   
    52. D(O  11,C   9,C   5,H   7)     -0.00 -0.000000    0.00     -0.00   
    53. D(O  11,C   9,C   5,C   1)   -180.00  0.000000   -0.00   -180.00   
    54. D(O  11,C   9,C   6,C   2)    180.00  0.000000   -0.00    180.00   
    55. D(C   6,C   9,C   5,H   7)    180.00 -0.000000    0.00    180.00   
    56. D(C   6,C   9,C   5,C   1)      0.00  0.000000   -0.00      0.00   
    57. D(H  12,O  11,C   9,C   6)   -180.00  0.000000   -0.00   -180.00   
    58. D(H  12,O  11,C   9,C   5)      0.00  0.000000   -0.00      0.00   
    ----------------------------------------------------------------------------

         *************************************************************
         *                GEOMETRY OPTIMIZATION CYCLE   2            *
         *************************************************************
---------------------------------
CARTESIAN COORDINATES (ANGSTROEM)
---------------------------------
  C      0.000000   -0.546520   -1.556343
  C     -0.000000    0.678316   -0.902620
  C     -0.000000   -1.716269   -0.806083
  H      0.000000    1.600220   -1.473576
  H      0.000000   -2.679810   -1.303662
  C      0.000001    0.739204    0.483432
[...]
     17      -0.000001  -0.000001   0.147896   0.054943   0.094608   0.008156
     18      -0.070046   0.041476  -0.000001   0.000000   0.000001   0.000000
     19       0.000001  -0.000000  -0.352536   0.028742   0.050767   0.012871
     20      -0.000000  -0.000000   0.174463   0.069898  -0.088172  -0.001836
     21      -0.392666  -0.125523  -0.000001   0.000000  -0.000000  -0.000000
     22      -0.000001   0.000000   0.439062  -0.189104  -0.133480   0.080234
     23      -0.000000  -0.000001   0.028942   0.339332   0.464250  -0.115773
     24       0.353741  -0.311580   0.000003  -0.000001  -0.000001  -0.000000
     25       0.000000  -0.000001  -0.468085   0.273440  -0.180831   0.157241
     26       0.000000  -0.000001   0.022509   0.458871  -0.462066   0.221765
     27       0.009102   0.011334   0.000000   0.000000  -0.000000  -0.000000
     28       0.000000   0.000000   0.003543   0.005672  -0.049313  -0.010591
     29      -0.000000  -0.000000  -0.018056   0.006716   0.004669  -0.009765
     30      -0.166998  -0.532906  -0.000002  -0.000007  -0.000001  -0.000000
     31       0.000000   0.000002  -0.005922   0.046679  -0.519631  -0.683778
     32       0.000001   0.000002  -0.339168  -0.186785   0.003564   0.025748
     33      -0.000780   0.001432   0.000000  -0.000000   0.000000   0.000000
     34      -0.000000  -0.000000   0.004969   0.002700   0.001298  -0.005169
     35       0.000000   0.000000  -0.006670  -0.019197   0.003821   0.011236
     36      -0.005763  -0.001064   0.000000  -0.000000  -0.000000  -0.000000
     37       0.000000   0.000000  -0.020188  -0.014591   0.064407   0.032264
     38       0.000000   0.000001   0.060240   0.026120  -0.168797  -0.091365
                 24         25         26         27         28         29    
      0       0.000000  -0.000000  -0.000001   0.000000  -0.000000   0.000000
      1      -0.002927   0.001957   0.011443  -0.127847   0.141119  -0.160139
      2       0.011118   0.008929   0.006655  -0.000948  -0.013697   0.041452
      3      -0.000000   0.000000  -0.000000  -0.000000  -0.000000  -0.000000
      4       0.035530  -0.005210  -0.102325   0.007954  -0.103493  -0.001449
      5       0.039856  -0.020314   0.053424   0.014106  -0.178847  -0.156903
      6      -0.000000   0.000000  -0.000000   0.000000  -0.000000  -0.000000
      7      -0.038200  -0.026590   0.071451  -0.007046  -0.116830   0.077579
      8       0.028743  -0.006692   0.080191  -0.018232   0.179312   0.093438
      9       0.000000  -0.000000  -0.000001  -0.000000   0.000000   0.000001
     10       0.308709   0.060910   0.141079   0.173271   0.174304   0.311148
     11       0.481118   0.086553   0.471789   0.280318   0.266848   0.316386
     12      -0.000000   0.000001  -0.000000  -0.000000   0.000000  -0.000001
     13      -0.197124   0.079852  -0.035923   0.178088   0.195450   0.175021
     14       0.334141  -0.218737   0.311883  -0.379547  -0.428557  -0.046028
     15       0.000000  -0.000000   0.000001  -0.000000   0.000000   0.000000
     16       0.016753  -0.050258   0.006516   0.052190  -0.057880   0.065665
     17      -0.050076   0.017241  -0.081279  -0.102161   0.140088   0.084898
     18      -0.000000  -0.000000   0.000001  -0.000000  -0.000000   0.000000
     19      -0.019372  -0.042560  -0.059032   0.075493  -0.040341  -0.014496
     20      -0.028806  -0.007130  -0.088575   0.120110  -0.089840  -0.150287
     21      -0.000001   0.000000   0.000000   0.000001   0.000000  -0.000001
     22       0.242522  -0.161017  -0.306210  -0.214474  -0.013964   0.164805
     23      -0.481426   0.214247   0.467864   0.410637   0.070583  -0.060101
     24       0.000000  -0.000000  -0.000001   0.000000  -0.000000   0.000000
     25      -0.254453  -0.201562   0.091099  -0.248114  -0.093533   0.283581
     26      -0.394385  -0.245923   0.120914  -0.385104  -0.172309   0.289751
     27      -0.000000   0.000000  -0.000001   0.000000   0.000000  -0.000000
     28       0.008494   0.103616   0.059006   0.004619   0.196498  -0.142209
     29       0.014788   0.052940  -0.353468   0.007756   0.013474   0.055066
     30      -0.000000  -0.000000   0.000007   0.000000   0.000000  -0.000001
     31      -0.045009  -0.162861   0.009204   0.423509   0.077377   0.592553
     32       0.011936   0.015016   0.015664  -0.024185  -0.013340   0.018543
     33       0.000000  -0.000000   0.000000  -0.000000   0.000000   0.000000
     34      -0.003401   0.055345   0.018624  -0.027660  -0.048396   0.040593
     35      -0.008349  -0.074614   0.178495   0.005600   0.019554  -0.027265
     36      -0.000000   0.000000   0.000000  -0.000000  -0.000000   0.000000
     37      -0.003962  -0.266822  -0.040641   0.062837   0.201236  -0.085578
     38      -0.005024   0.797227   0.343139  -0.236839  -0.635200   0.299512
                 30         31         32         33         34         35    
      0      -0.000000   0.000000   0.000000   0.000000   0.000000  -0.000000
      1       0.068140   0.246249  -0.228274   0.000322   0.002589   0.001403
      2       0.106308  -0.113749  -0.088948   0.016203   0.033687  -0.034722
      3       0.000001   0.000000  -0.000000   0.000000  -0.000000  -0.000000
      4      -0.129757  -0.082280   0.197741   0.035417   0.006614  -0.048738
      5      -0.082246   0.144855   0.259846  -0.019565  -0.005895   0.033245
      6       0.000001  -0.000000   0.000000   0.000000   0.000000   0.000000
      7       0.074079  -0.196518   0.084233  -0.012150  -0.056194  -0.024373
      8      -0.149046   0.290656   0.134118  -0.006191  -0.028945  -0.010634
      9      -0.000001   0.000000  -0.000000  -0.000000  -0.000000   0.000000
     10       0.133894  -0.180426  -0.155880  -0.412971  -0.085623   0.570845
     11       0.371402   0.019077  -0.319092   0.253649   0.054669  -0.356683
     12       0.000000  -0.000000   0.000000  -0.000000  -0.000000  -0.000000
     13      -0.230844   0.139915   0.164629   0.143990   0.656903   0.269024
     14       0.442345  -0.373027   0.013332   0.074413   0.339664   0.137398
     15      -0.000001  -0.000000   0.000000  -0.000000   0.000000  -0.000000
     16       0.092280   0.196561  -0.084288  -0.063977   0.025696  -0.031535
     17      -0.106531  -0.284224  -0.168893  -0.032332   0.013628  -0.018207
     18      -0.000001  -0.000000  -0.000000  -0.000000  -0.000000  -0.000000
     19      -0.098080   0.089062  -0.218784   0.004859   0.029440   0.026142
     20      -0.019147  -0.164932  -0.264297  -0.002224  -0.016970  -0.014960
     21       0.000001   0.000001  -0.000000  -0.000000   0.000000  -0.000000
     22      -0.197579  -0.137058  -0.221308   0.735127  -0.292081   0.354682
     23       0.474143   0.365735   0.063748   0.384118  -0.153245   0.187472
     24       0.000000   0.000000   0.000000  -0.000000  -0.000000  -0.000000
     25       0.075433   0.209086   0.154097  -0.054699  -0.340889  -0.296181
     26       0.291186  -0.015559   0.339068   0.033871   0.216813   0.187728
     27       0.000000   0.000000  -0.000000   0.000000   0.000000   0.000000
     28       0.049549  -0.270278   0.281744   0.001806  -0.001677   0.000684
     29       0.177152   0.152633   0.166182  -0.002681   0.000427  -0.002587
     30      -0.000000  -0.000001  -0.000000  -0.000000  -0.000000   0.000000
     31      -0.171205  -0.261928   0.215210  -0.007868  -0.017196   0.013278
     32       0.138088  -0.107004  -0.119277  -0.198426  -0.404046   0.404873
     33       0.000000  -0.000000   0.000000   0.000000   0.000000   0.000000
     34      -0.021193   0.031583  -0.040979  -0.000235   0.000253  -0.000184
     35      -0.038040  -0.026119  -0.004515   0.000191  -0.000187   0.000366
     36      -0.000000  -0.000000  -0.000000   0.000000   0.000000   0.000000
     37       0.056887  -0.065861   0.107939   0.001994  -0.002195   0.001833
     38      -0.237482   0.224602  -0.359003   0.006864  -0.002408   0.003756
                 36         37         38    
      0       0.000000  -0.000000   0.000000
      1       0.003899  -0.002276  -0.000061
      2       0.030372  -0.064223  -0.000192
      3      -0.000000   0.000000   0.000000
      4      -0.029119   0.031525   0.000112
      5       0.017528  -0.017169   0.000179
      6      -0.000000   0.000000   0.000000
      7      -0.025494  -0.038138   0.000102
      8      -0.017335  -0.018299   0.000122
      9       0.000000  -0.000000  -0.000000
     10       0.321459  -0.332193   0.000624
     11      -0.198739   0.202968  -0.000895
     12      -0.000000  -0.000000  -0.000000
     13       0.301297   0.408605  -0.000822
     14       0.159904   0.209337  -0.000273
     15       0.000000  -0.000000  -0.000000
     16      -0.009961   0.009576  -0.000671
     17      -0.007222   0.006539  -0.000891
     18       0.000000  -0.000000  -0.000000
     19      -0.057005  -0.024291  -0.000677
     20       0.037418   0.017464  -0.000605
     21      -0.000000   0.000000   0.000000
     22       0.114243  -0.106638   0.004143
     23       0.062150  -0.057866   0.003114
     24       0.000000   0.000000   0.000000
     25       0.649235   0.276003  -0.000436
     26      -0.416555  -0.178972  -0.000008
     27      -0.000000  -0.000000   0.000000
     28       0.003177   0.000740   0.002161
     29       0.001734   0.001786   0.000593
     30      -0.000000   0.000001  -0.000001
     31      -0.016867   0.027993   0.000001
     32      -0.347470   0.711136   0.000205
     33      -0.000000   0.000000  -0.000000
     34      -0.000358  -0.000025   0.057984
     35      -0.000187  -0.000274   0.022397
     36      -0.000000   0.000000   0.000001
     37       0.000705  -0.000937  -0.935349
     38      -0.000983  -0.001677  -0.348171


-----------
IR SPECTRUM
-----------

 Mode   freq       eps      Int      T**2         TX        TY        TZ
       cm**-1   L/(mol*cm) km/mol    a.u.
----------------------------------------------------------------------------
  6:    231.01   0.000174    0.88  0.000235  ( 0.015330 -0.000000 -0.000003)
  7:    369.79   0.035562  179.71  0.030010  ( 0.173234  0.000000  0.000000)
  8:    414.64   0.002844   14.37  0.002141  ( 0.000000 -0.000880 -0.046257)
  9:    422.17   0.000001    0.00  0.000000  ( 0.000637 -0.000005  0.000000)
 10:    520.74   0.004966   25.10  0.002976  ( 0.054554  0.000001 -0.000004)
 11:    536.82   0.000557    2.82  0.000324  (-0.000000  0.001542 -0.017935)
 12:    628.56   0.000186    0.94  0.000092  ( 0.000000  0.008500 -0.004465)
 13:    707.03   0.009879   49.92  0.004360  ( 0.066033 -0.000003  0.000001)
 14:    770.63   0.019505   98.57  0.007899  ( 0.088874  0.000002 -0.000004)
 15:    835.66   0.000021    0.11  0.000008  ( 0.002789 -0.000002 -0.000001)
 16:    838.29   0.008054   40.70  0.002998  (-0.000000 -0.002196 -0.054711)
 17:    905.27   0.002498   12.63  0.000861  (-0.029347 -0.000001 -0.000002)
 18:    974.47   0.000002    0.01  0.000001  ( 0.000862 -0.000002  0.000001)
 19:    987.10   0.000018    0.09  0.000006  (-0.002386 -0.000001  0.000005)
 20:   1017.91   0.000434    2.20  0.000133  ( 0.000000 -0.001119  0.011485)
 21:   1052.35   0.003209   16.22  0.000951  (-0.000000  0.003962  0.030591)
 22:   1098.85   0.004386   22.16  0.001246  (-0.000000 -0.032308 -0.014203)
 23:   1164.13   0.001734    8.77  0.000465  (-0.000000  0.010320 -0.018933)
 24:   1183.77   0.003059   15.46  0.000806  (-0.000000  0.006227  0.027705)
 25:   1199.70   0.047955  242.34  0.012474  (-0.000000 -0.007695  0.111421)
 26:   1299.26   0.030129  152.26  0.007237  ( 0.000000 -0.008459 -0.084647)
 27:   1364.13   0.002996   15.14  0.000685  (-0.000000  0.015530 -0.021078)
 28:   1380.89   0.006774   34.24  0.001531  (-0.000000 -0.011770 -0.037315)
 29:   1506.55   0.010399   52.55  0.002154  (-0.000000  0.009589  0.045409)
 30:   1536.51   0.022447  113.44  0.004559  ( 0.000000 -0.000370  0.067519)
 31:   1656.38   0.019429   98.18  0.003660  (-0.000000 -0.015915  0.058370)
 32:   1666.84   0.012458   62.96  0.002332  (-0.000000  0.021118  0.043432)
 33:   3182.36   0.001695    8.57  0.000166  (-0.000000 -0.001206 -0.012836)
 34:   3190.10   0.000147    0.74  0.000014  ( 0.000000 -0.003675 -0.000926)
 35:   3198.53   0.002478   12.52  0.000242  (-0.000000 -0.012189 -0.009654)
 36:   3206.56   0.003177   16.06  0.000309  ( 0.000000 -0.013894  0.010777)
 37:   3215.49   0.001405    7.10  0.000136  ( 0.000000 -0.002789 -0.011341)
 38:   3820.77   0.034796  175.85  0.002842  ( 0.000000 -0.037307 -0.038082)

* The epsilon (eps) is given for a Dirac delta lineshape.
** The dipole moment derivative (T) already includes vibrational overlap.

The first frequency considered to be a vibration is 6
The total number of vibrations considered is 33


--------------------------
THERMOCHEMISTRY AT 298.15K
--------------------------

Temperature         ... 298.15 K
Pressure            ... 1.00 atm
Total Mass          ... 94.11 AMU

Throughout the following assumptions are being made:
  (1) The electronic state is orbitally nondegenerate
  (2) There are no thermally accessible electronically excited states
  (3) Hindered rotations indicated by low frequency modes are not
      treated as such but are treated as vibrations and this may
      cause some error
  (4) All equations used are the standard statistical mechanics
      equations for an ideal gas
  (5) All vibrations are strictly harmonic

freq.     231.01  E(vib)   ...       0.32 
freq.     369.79  E(vib)   ...       0.21 
freq.     414.64  E(vib)   ...       0.19 
freq.     422.17  E(vib)   ...       0.18 
freq.     520.74  E(vib)   ...       0.13 
freq.     536.82  E(vib)   ...       0.12 
freq.     628.56  E(vib)   ...       0.09 
freq.     707.03  E(vib)   ...       0.07 
freq.     770.63  E(vib)   ...       0.05 
freq.     835.66  E(vib)   ...       0.04 
freq.     838.29  E(vib)   ...       0.04 
freq.     905.27  E(vib)   ...       0.03 
freq.     974.47  E(vib)   ...       0.03 
freq.     987.10  E(vib)   ...       0.02 
freq.    1017.91  E(vib)   ...       0.02 
freq.    1052.35  E(vib)   ...       0.02 
freq.    1098.85  E(vib)   ...       0.02 
freq.    1164.13  E(vib)   ...       0.01 
freq.    1183.77  E(vib)   ...       0.01 
freq.    1199.70  E(vib)   ...       0.01 
freq.    1299.26  E(vib)   ...       0.01 
freq.    1364.13  E(vib)   ...       0.01 
freq.    1380.89  E(vib)   ...       0.01 
freq.    1506.55  E(vib)   ...       0.00 
freq.    1536.51  E(vib)   ...       0.00 
freq.    1656.38  E(vib)   ...       0.00 
freq.    1666.84  E(vib)   ...       0.00 
freq.    3182.36  E(vib)   ...       0.00 
freq.    3190.10  E(vib)   ...       0.00 
freq.    3198.53  E(vib)   ...       0.00 
freq.    3206.56  E(vib)   ...       0.00 
freq.    3215.49  E(vib)   ...       0.00 
freq.    3820.77  E(vib)   ...       0.00 

------------
INNER ENERGY
------------

The inner energy is: U= E(el) + E(ZPE) + E(vib) + E(rot) + E(trans)
    E(el)   - is the total energy from the electronic structure calculation
              = E(kin-el) + E(nuc-el) + E(el-el) + E(nuc-nuc)
    E(ZPE)  - the the zero temperature vibrational energy from the frequency calculation
    E(vib)  - the the finite temperature correction to E(ZPE) due to population
              of excited vibrational states
    E(rot)  - is the rotational thermal energy
    E(trans)- is the translational thermal energy

Summary of contributions to the inner energy U:
Electronic energy                ...   -307.24841185 Eh
Zero point energy                ...      0.10498536 Eh      65.88 kcal/mol
Thermal vibrational correction   ...      0.00264162 Eh       1.66 kcal/mol
Thermal rotational correction    ...      0.00141627 Eh       0.89 kcal/mol
Thermal translational correction ...      0.00141627 Eh       0.89 kcal/mol
-----------------------------------------------------------------------
Total thermal energy                   -307.13795232 Eh


Summary of corrections to the electronic energy:
(perhaps to be used in another calculation)
Total thermal correction                  0.00547417 Eh       3.44 kcal/mol
Non-thermal (ZPE) correction              0.10498536 Eh      65.88 kcal/mol
-----------------------------------------------------------------------
Total correction                          0.11045953 Eh      69.31 kcal/mol


--------
ENTHALPY
--------

The enthalpy is H = U + kB*T
                kB is Boltzmann's constant
Total free energy                 ...   -307.13795232 Eh 
Thermal Enthalpy correction       ...      0.00094421 Eh       0.59 kcal/mol
-----------------------------------------------------------------------
Total Enthalpy                    ...   -307.13700811 Eh


Note: Rotational entropy computed according to Herzberg 
Infrared and Raman Spectra, Chapter V,1, Van Nostrand Reinhold, 1945 
Point Group:  Cs, Symmetry Number:   1  
Rotational constants in cm-1:     0.190216     0.088181     0.060250 

Vibrational entropy computed according to the QRRHO of S. Grimme
Chem.Eur.J. 2012 18 9955


-------
ENTROPY
-------

The entropy contributions are T*S = T*(S(el)+S(vib)+S(rot)+S(trans))
     S(el)   - electronic entropy
     S(vib)  - vibrational entropy
     S(rot)  - rotational entropy
     S(trans)- translational entropy
The entropies will be listed as multiplied by the temperature to get
units of energy

Electronic entropy                ...      0.00000000 Eh      0.00 kcal/mol
Vibrational entropy               ...      0.00381654 Eh      2.39 kcal/mol
Rotational entropy                ...      0.01276691 Eh      8.01 kcal/mol
Translational entropy             ...      0.01878531 Eh     11.79 kcal/mol
-----------------------------------------------------------------------
Final entropy term                ...      0.03536877 Eh     22.19 kcal/mol

In case the symmetry of your molecule has not been determined correctly
or in case you have a reason to use a different symmetry number we print 
out the resulting rotational entropy values for sn=1,12 :
 --------------------------------------------------------
|  sn= 1 | S(rot)=       0.01276691 Eh      8.01 kcal/mol|
|  sn= 2 | S(rot)=       0.01211246 Eh      7.60 kcal/mol|
|  sn= 3 | S(rot)=       0.01172963 Eh      7.36 kcal/mol|
|  sn= 4 | S(rot)=       0.01145800 Eh      7.19 kcal/mol|
|  sn= 5 | S(rot)=       0.01124731 Eh      7.06 kcal/mol|
|  sn= 6 | S(rot)=       0.01107517 Eh      6.95 kcal/mol|
|  sn= 7 | S(rot)=       0.01092962 Eh      6.86 kcal/mol|
|  sn= 8 | S(rot)=       0.01080355 Eh      6.78 kcal/mol|
|  sn= 9 | S(rot)=       0.01069234 Eh      6.71 kcal/mol|
|  sn=10 | S(rot)=       0.01059286 Eh      6.65 kcal/mol|
|  sn=11 | S(rot)=       0.01050287 Eh      6.59 kcal/mol|
|  sn=12 | S(rot)=       0.01042071 Eh      6.54 kcal/mol|
 --------------------------------------------------------


-------------------
GIBBS FREE ENERGY
-------------------

The Gibbs free energy is G = H - T*S

Total enthalpy                    ...   -307.13700811 Eh 
Total entropy correction          ...     -0.03536877 Eh    -22.19 kcal/mol
-----------------------------------------------------------------------
Final Gibbs free energy         ...   -307.17237688 Eh

For completeness - the Gibbs free energy minus the electronic energy
G-E(el)                           ...      0.07603497 Eh     47.71 kcal/mol


Timings for individual modules:

Sum of individual times         ...      163.049 sec (=   2.717 min)
GTO integral calculation        ...        4.855 sec (=   0.081 min)   3.0 %
SCF iterations                  ...       45.240 sec (=   0.754 min)  27.7 %
SCF Gradient evaluation         ...       11.905 sec (=   0.198 min)   7.3 %
Geometry relaxation             ...        0.227 sec (=   0.004 min)   0.1 %
Analytical frequency calculation...      100.822 sec (=   1.680 min)  61.8 %
                             ****ORCA TERMINATED NORMALLY****
TOTAL RUN TIME: 0 days 0 hours 2 minutes 52 seconds 362 msec
