
                                 *****************
                                 * O   R   C   A *
                                 *****************

                                            #,                                       
                                            ###                                      
                                            ####                                     
                                            #####                                    
                                            ######                                   
                                           ########,                                 
                                     ,,################,,,,,                         
                               ,,#################################,,                 
                          ,,##########################################,,             
                       ,#########################################, ''#####,          
                    ,#############################################,,   '####,        
                  ,##################################################,,,,####,       
                ,###########''''           ''''###############################       
              ,#####''   ,,,,##########,,,,          '''####'''          '####       
            ,##' ,,,,###########################,,,                        '##       
           ' ,,###''''                  '''############,,,                           
         ,,##''                                '''############,,,,        ,,,,,,###''
      ,#''                                            '''#######################'''  
     '                                                          ''''####''''         
             ,#######,   #######,   ,#######,      ##                                
            ,#'     '#,  ##    ##  ,#'     '#,    #''#        ######   ,####,        
            ##       ##  ##   ,#'  ##            #'  '#       #        #'  '#        
            ##       ##  #######   ##           ,######,      #####,   #    #        
            '#,     ,#'  ##    ##  '#,     ,#' ,#      #,         ##   #,  ,#        
             '#######'   ##     ##  '#######'  #'      '#     #####' # '####'        



                  #######################################################
                  #                        -***-                        #
                  #          Department of theory and spectroscopy      #
                  #    Directorship and core code : Frank Neese         #
                  #        Max Planck Institute fuer Kohlenforschung    #
                  #                Kaiser Wilhelm Platz 1               #
                  #                 D-45470 Muelheim/Ruhr               #
                  #                      Germany                        #
                  #                                                     #
                  #                  All rights reserved                #
                  #                        -***-                        #
                  #######################################################


                         Program Version 5.0.4 -  RELEASE  -


 With contributions from (in alphabetic order):
   Daniel Aravena         : Magnetic Suceptibility
   Michael Atanasov       : Ab Initio Ligand Field Theory (pilot matlab implementation)
   Alexander A. Auer      : GIAO ZORA, VPT2 properties, NMR spectrum
   Ute Becker             : Parallelization
   Giovanni Bistoni       : ED, misc. LED, open-shell LED, HFLD
   Martin Brehm           : Molecular dynamics
   Dmytro Bykov           : SCF Hessian
   Vijay G. Chilkuri      : MRCI spin determinant printing, contributions to CSF-ICE
   Dipayan Datta          : RHF DLPNO-CCSD density
   Achintya Kumar Dutta   : EOM-CC, STEOM-CC
   Dmitry Ganyushin       : Spin-Orbit,Spin-Spin,Magnetic field MRCI
   Miquel Garcia          : C-PCM and meta-GGA Hessian, CC/C-PCM, Gaussian charge scheme
   Yang Guo               : DLPNO-NEVPT2, F12-NEVPT2, CIM, IAO-localization
   Andreas Hansen         : Spin unrestricted coupled pair/coupled cluster methods
   Benjamin Helmich-Paris : MC-RPA, TRAH-SCF, COSX integrals
   Lee Huntington         : MR-EOM, pCC
   Robert Izsak           : Overlap fitted RIJCOSX, COSX-SCS-MP3, EOM
   Marcus Kettner         : VPT2
   Christian Kollmar      : KDIIS, OOCD, Brueckner-CCSD(T), CCSD density, CASPT2, CASPT2-K
   Simone Kossmann        : Meta GGA functionals, TD-DFT gradient, OOMP2, MP2 Hessian
   Martin Krupicka        : Initial AUTO-CI
   Lucas Lang             : DCDCAS
   Marvin Lechner         : AUTO-CI (C++ implementation), FIC-MRCC
   Dagmar Lenk            : GEPOL surface, SMD
   Dimitrios Liakos       : Extrapolation schemes; Compound Job, initial MDCI parallelization
   Dimitrios Manganas     : Further ROCIS development; embedding schemes
   Dimitrios Pantazis     : SARC Basis sets
   Anastasios Papadopoulos: AUTO-CI, single reference methods and gradients
   Taras Petrenko         : DFT Hessian,TD-DFT gradient, ASA, ECA, R-Raman, ABS, FL, XAS/XES, NRVS
   Peter Pinski           : DLPNO-MP2, DLPNO-MP2 Gradient
   Christoph Reimann      : Effective Core Potentials
   Marius Retegan         : Local ZFS, SOC
   Christoph Riplinger    : Optimizer, TS searches, QM/MM, DLPNO-CCSD(T), (RO)-DLPNO pert. Triples
   Tobias Risthaus        : Range-separated hybrids, TD-DFT gradient, RPA, STAB
   Michael Roemelt        : Original ROCIS implementation
   Masaaki Saitow         : Open-shell DLPNO-CCSD energy and density
   Barbara Sandhoefer     : DKH picture change effects
   Avijit Sen             : IP-ROCIS
   Kantharuban Sivalingam : CASSCF convergence, NEVPT2, FIC-MRCI
   Bernardo de Souza      : ESD, SOC TD-DFT
   Georgi Stoychev        : AutoAux, RI-MP2 NMR, DLPNO-MP2 response
   Willem Van den Heuvel  : Paramagnetic NMR
   Boris Wezisla          : Elementary symmetry handling
   Frank Wennmohs         : Technical directorship


 We gratefully acknowledge several colleagues who have allowed us to
 interface, adapt or use parts of their codes:
   Stefan Grimme, W. Hujo, H. Kruse, P. Pracht,  : VdW corrections, initial TS optimization,
                  C. Bannwarth, S. Ehlert          DFT functionals, gCP, sTDA/sTD-DF
   Ed Valeev, F. Pavosevic, A. Kumar             : LibInt (2-el integral package), F12 methods
   Garnet Chan, S. Sharma, J. Yang, R. Olivares  : DMRG
   Ulf Ekstrom                                   : XCFun DFT Library
   Mihaly Kallay                                 : mrcc  (arbitrary order and MRCC methods)
   Jiri Pittner, Ondrej Demel                    : Mk-CCSD
   Frank Weinhold                                : gennbo (NPA and NBO analysis)
   Christopher J. Cramer and Donald G. Truhlar   : smd solvation model
   Lars Goerigk                                  : TD-DFT with DH, B97 family of functionals
   V. Asgeirsson, H. Jonsson                     : NEB implementation
   FAccTs GmbH                                   : IRC, NEB, NEB-TS, DLPNO-Multilevel, CI-OPT
                                                   MM, QMMM, 2- and 3-layer-ONIOM, Crystal-QMMM,
                                                   LR-CPCM, SF, NACMEs, symmetry and pop. for TD-DFT,
                                                   nearIR, NL-DFT gradient (VV10), updates on ESD,
                                                   ML-optimized integration grids
   S Lehtola, MJT Oliveira, MAL Marques          : LibXC Library
   Liviu Ungur et al                             : ANISO software


 Your calculation uses the libint2 library for the computation of 2-el integrals
 For citations please refer to: http://libint.valeyev.net

 Your ORCA version has been built with support for libXC version: 5.1.0
 For citations please refer to: https://tddft.org/programs/libxc/

 This ORCA versions uses:
   CBLAS   interface :  Fast vector & matrix operations
   LAPACKE interface :  Fast linear algebra routines
   SCALAPACK package :  Parallel linear algebra routines
   Shared memory     :  Shared parallel matrices
   BLAS/LAPACK       :  OpenBLAS 0.3.15  USE64BITINT DYNAMIC_ARCH NO_AFFINITY Haswell SINGLE_THREADED
        Core in use  :  Haswell
   Copyright (c) 2011-2014, The OpenBLAS Project


Your calculation utilizes the atom-pairwise dispersion correction
with the Becke-Johnson damping scheme (D3BJ)
Cite in your paper:
S.Grimme, S.Ehrlich, L.Goerigk, J Comput Chem, (2011), 32, 1456–1465 
S.Grimme, J.Antony, S.Ehrlich and H.Krieg, J.Chem.Phys., 132, (2010), 154104 
   

================================================================================

----- Orbital basis set information -----
Your calculation utilizes the basis: def2-TZVP
   F. Weigend and R. Ahlrichs, Phys. Chem. Chem. Phys. 7, 3297 (2005).

----- AuxJ basis set information -----
Your calculation utilizes the auxiliary basis: def2/J
   F. Weigend, Phys. Chem. Chem. Phys. 8, 1057 (2006).

================================================================================
                                        WARNINGS
                       Please study these warnings very carefully!
================================================================================


WARNING: Geometry Optimization
  ===> : Switching off AutoStart
         For restart on a previous wavefunction, please use MOREAD

INFO   : the flag for use of the SHARK integral package has been found!

================================================================================
                                       INPUT FILE
================================================================================
NAME = IM_4-OMePh/IM_4-OMePh.inp
|  1> %pal nprocs 24 end
|  2> %maxcore 3500
|  3> ! PBE0 D3BJ def2-TZVP TightSCF OPT FREQ TightOpt
|  4> ! CPCM(dmso)
|  5> %scf
|  6> MaxIter 800
|  7> end
|  8> 
|  9> %geom
| 10> MaxIter 800
| 11> MaxStep 0.2
| 12> end
| 13> 
| 14> *xyz 0 1
| 15> C       1.58818500      1.83297400      3.76573200
| 16> C       1.94209900      0.49128300      3.71096400
| 17> C       2.12388500     -0.10109500      2.48608800
| 18> N       1.97053100      0.60652200      1.35471000
| 19> C       1.63107800      1.90641400      1.38272300
| 20> C       1.43718300      2.54439600      2.58789900
| 21> C       2.03977400     -0.08645500      0.06788200
| 22> C       3.00322700      0.62559000     -0.86464700
| 23> O       3.70369800      1.55412200     -0.54520000
| 24> O       3.10411700     -0.03369500     -2.00295700
| 25> C       4.01879100      0.50211600     -2.96121300
| 26> H       1.43453400      2.31795400      4.72200300
| 27> H       2.38596300     -1.14417500      2.36858400
| 28> H       1.56493000      2.40109000      0.42352500
| 29> H       1.16846900      3.59192700      2.58833100
| 30> H       2.51025300     -1.05176200      0.26448600
| 31> H       5.03197700      0.50820700     -2.55894900
| 32> H       3.72459400      1.51586700     -3.23386600
| 33> H       2.07482500     -0.09937400      4.60690400
| 34> C      -3.98569600      0.04139300      1.89841000
| 35> C      -3.46907300      1.32907700      1.78761100
| 36> C      -2.32246700      1.55779100      1.04045900
| 37> C      -1.64668400      0.52401400      0.38602700
| 38> C      -2.18921000     -0.76440100      0.51619300
| 39> C      -3.33173700     -1.00546700      1.25288800
| 40> C      -0.39809700      0.71183200     -0.35366600
| 41> C       0.58598400     -0.41889800     -0.39020400
| 42> C       0.54961800     -1.27493700     -1.63797900
| 43> C       0.00203600     -0.82903500     -2.82940200
| 44> C      -0.04737900     -1.64125200     -3.95504900
| 45> C       0.45156000     -2.93110700     -3.88578900
| 46> C       0.98681600     -3.41359200     -2.69840900
| 47> C       1.03188000     -2.59108700     -1.57819100
| 48> O       1.52498800     -2.98705400     -0.38021600
| 49> C       2.02035500     -4.30684900     -0.25948100
| 50> N      -0.14965200      1.82346200     -1.04374400
| 51> O      -0.97667200      2.77652300     -1.12718100
| 52> H      -3.94821100      2.16432900      2.28142700
| 53> H      -1.94154000      2.56624100      0.96491400
| 54> H      -1.71751300     -1.60281800      0.01572800
| 55> H      -3.73653500     -2.00817900      1.33213900
| 56> H       0.26557900     -1.08369300      0.41809200
| 57> H      -0.38530300      0.18041900     -2.87864900
| 58> H      -0.47532400     -1.26490700     -4.87666500
| 59> H       0.42189800     -3.57857000     -4.75496900
| 60> H       1.36150800     -4.42726100     -2.65267100
| 61> H       2.35864800     -4.40771500      0.76972300
| 62> H       2.86048100     -4.47581900     -0.93880300
| 63> H       1.23610900     -5.04199800     -0.46068200
| 64> O       0.98215900      1.95291600     -1.62794600
| 65> H       3.95647500     -0.15559400     -3.82418500
| 66> O      -5.09978700     -0.28136200      2.59747100
| 67> C      -5.78213200      0.76397400      3.26194100
| 68> H      -6.63732800      0.30402400      3.75333500
| 69> H      -5.14417500      1.24042500      4.01255200
| 70> H      -6.13296800      1.52146000      2.55442800
| 71> *
| 72> 
| 73>                          ****END OF INPUT****
================================================================================

                       *****************************
                       * Geometry Optimization Run *
                       *****************************

Geometry optimization settings:
Update method            Update   .... BFGS
Choice of coordinates    CoordSys .... Z-matrix Internals
Initial Hessian          InHess   .... Almoef's Model

Convergence Tolerances:
Energy Change            TolE     ....  1.0000e-06 Eh
Max. Gradient            TolMAXG  ....  1.0000e-04 Eh/bohr
RMS Gradient             TolRMSG  ....  3.0000e-05 Eh/bohr
Max. Displacement        TolMAXD  ....  1.0000e-03 bohr
RMS Displacement         TolRMSD  ....  6.0000e-04 bohr
Strict Convergence                ....  False
------------------------------------------------------------------------------
                        ORCA OPTIMIZATION COORDINATE SETUP
------------------------------------------------------------------------------

The optimization will be done in new redundant internal coordinates
Making redundant internal coordinates   ...  (new redundants) done
Evaluating the initial hessian          ...  (Almloef) done
Evaluating the coordinates              ...  done
Calculating the B-matrix                .... done
Calculating the G-matrix                .... done
Diagonalizing the G-matrix              .... done
Small eigenvalue found = 1.973e-03
Small eigenvalue found = 2.458e-03
Small eigenvalue found = 3.739e-03
Small eigenvalue found = 5.919e-03
Small eigenvalue found = 8.553e-03
Small eigenvalue found = 9.155e-03
Small eigenvalue found = 1.260e-02
Small eigenvalue found = 1.444e-02
Small eigenvalue found = 1.945e-02
Small eigenvalue found = 2.581e-02
Small eigenvalue found = 2.826e-02
The first mode is                       ....  120
The number of degrees of freedom        ....  162

    -----------------------------------------------------------------
                    Redundant Internal Coordinates


    -----------------------------------------------------------------
         Definition                    Initial Value    Approx d2E/dq
    -----------------------------------------------------------------
      1. B(C   1,C   0)                  1.3887         0.627869   
      2. B(C   2,C   1)                  1.3727         0.665817   
      3. B(N   3,C   2)                  1.3432         0.664509   
      4. B(C   4,N   3)                  1.3438         0.663169   
      5. B(C   5,C   4)                  1.3773         0.654541   
      6. B(C   5,C   0)                  1.3843         0.638079   
      7. B(C   6,N   3)                  1.4632         0.427660   
      8. B(C   7,C   6)                  1.5182         0.390158   
      9. B(O   8,C   7)                  1.2062         1.099369   
     10. B(O   9,C   7)                  1.3193         0.725526   
     11. B(C  10,O   9)                  1.4290         0.484942   
     12. B(H  11,C   0)                  1.0832         0.369243   
     13. B(H  12,C   2)                  1.0819         0.370976   
     14. B(H  13,C   4)                  1.0813         0.371838   
     15. B(H  14,C   5)                  1.0814         0.371594   
     16. B(H  15,C   6)                  1.0917         0.357851   
     17. B(H  16,C  10)                  1.0901         0.359918   
     18. B(H  17,C  10)                  1.0902         0.359807   
     19. B(H  18,C   1)                  1.0813         0.371801   
     20. B(C  20,C  19)                  1.3919         0.620516   
     21. B(C  21,C  20)                  1.3875         0.630482   
     22. B(C  22,C  21)                  1.3977         0.607296   
     23. B(C  23,C  22)                  1.4040         0.593417   
     24. B(C  24,C  23)                  1.3807         0.646625   
     25. B(C  24,C  19)                  1.3929         0.618089   
     26. B(C  25,C  22)                  1.4633         0.477216   
     27. B(C  26,C  25)                  1.4994         0.417969   
     28. B(C  26,C   6)                  1.5601         0.334486   
     29. B(C  27,C  26)                  1.5136         0.396734   
     30. B(C  28,C  27)                  1.3850         0.636431   
     31. B(C  29,C  28)                  1.3890         0.627180   
     32. B(C  30,C  29)                  1.3847         0.637022   
     33. B(C  31,C  30)                  1.3889         0.627228   
     34. B(C  32,C  31)                  1.3905         0.623697   
     35. B(C  32,C  27)                  1.4030         0.595665   
     36. B(O  33,C  32)                  1.3547         0.637187   
     37. B(C  34,O  33)                  1.4149         0.510758   
     38. B(N  35,C  25)                  1.3318         0.693030   
     39. B(O  36,N  35)                  1.2646         0.794433   
     40. B(H  37,C  20)                  1.0822         0.370620   
     41. B(H  38,C  21)                  1.0806         0.372697   
     42. B(H  39,C  23)                  1.0844         0.367595   
     43. B(H  40,C  24)                  1.0842         0.367803   
     44. B(H  41,C  26)                  1.0945         0.354182   
     45. B(H  42,C  28)                  1.0823         0.370381   
     46. B(H  43,C  29)                  1.0836         0.368692   
     47. B(H  44,C  30)                  1.0842         0.367810   
     48. B(H  45,C  31)                  1.0817         0.371289   
     49. B(H  46,C  34)                  1.0881         0.362674   
     50. B(H  47,C  34)                  1.0935         0.355441   
     51. B(H  48,C  34)                  1.0936         0.355365   
     52. B(O  49,N  35)                  1.2803         0.750080   
     53. B(H  50,C  10)                  1.0868         0.364326   
     54. B(O  51,C  19)                  1.3543         0.638080   
     55. B(C  52,O  51)                  1.4142         0.512075   
     56. B(H  53,C  52)                  1.0883         0.362365   
     57. B(H  54,C  52)                  1.0943         0.354504   
     58. B(H  55,C  52)                  1.0943         0.354484   
     59. A(C   1,C   0,H  11)          120.2361         0.355170   
     60. A(C   1,C   0,C   5)          119.3926         0.437311   
     61. A(C   5,C   0,H  11)          120.3711         0.356143   
     62. A(C   2,C   1,H  18)          119.1679         0.359150   
     63. A(C   0,C   1,H  18)          121.7609         0.355586   
     64. A(C   0,C   1,C   2)          119.0709         0.440682   
     65. A(N   3,C   2,H  12)          116.3644         0.356674   
     66. A(C   1,C   2,H  12)          123.0284         0.359015   
     67. A(C   1,C   2,N   3)          120.6056         0.442294   
     68. A(C   2,N   3,C   6)          119.0688         0.405981   
     69. A(C   2,N   3,C   4)          121.3914         0.439071   
     70. A(C   4,N   3,C   6)          119.2373         0.405836   
     71. A(N   3,C   4,H  13)          116.0730         0.356692   
     72. A(N   3,C   4,C   5)          120.1241         0.440770   
     73. A(C   5,C   4,H  13)          123.7586         0.358114   
     74. A(C   0,C   5,H  14)          121.6399         0.356527   
     75. A(C   4,C   5,H  14)          118.9470         0.358074   
     76. A(C   0,C   5,C   4)          119.4131         0.440606   
     77. A(N   3,C   6,C   7)          110.3717         0.372321   
     78. A(C   7,C   6,C  26)          120.7276         0.359217   
     79. A(N   3,C   6,H  15)          106.3070         0.329294   
     80. A(H  15,C   6,C  26)          105.4295         0.318180   
     81. A(N   3,C   6,C  26)          108.3644         0.362619   
     82. A(C   7,C   6,H  15)          104.5863         0.326307   
     83. A(O   8,C   7,O   9)          124.6656         0.489385   
     84. A(C   6,C   7,O   9)          110.1285         0.408327   
     85. A(C   6,C   7,O   8)          124.5354         0.439823   
     86. A(C   7,O   9,C  10)          116.1142         0.421679   
     87. A(H  16,C  10,H  17)          109.7484         0.290779   
     88. A(O   9,C  10,H  17)          110.0987         0.336534   
     89. A(O   9,C  10,H  16)          110.4600         0.336551   
     90. A(O   9,C  10,H  50)          105.5960         0.337234   
     91. A(H  16,C  10,H  50)          110.4672         0.291350   
     92. A(H  17,C  10,H  50)          110.4059         0.291336   
     93. A(C  20,C  19,C  24)          118.9563         0.433890   
     94. A(C  20,C  19,O  51)          124.5356         0.433525   
     95. A(C  24,C  19,O  51)          116.5079         0.433220   
     96. A(C  19,C  20,H  37)          120.8903         0.354685   
     97. A(C  19,C  20,C  21)          120.1379         0.435443   
     98. A(C  21,C  20,H  37)          118.9714         0.355644   
     99. A(C  20,C  21,C  22)          121.9878         0.433759   
    100. A(C  20,C  21,H  38)          118.8658         0.355982   
    101. A(C  22,C  21,H  38)          119.1463         0.353727   
    102. A(C  23,C  22,C  25)          119.6262         0.411007   
    103. A(C  21,C  22,C  25)          123.6605         0.412696   
    104. A(C  21,C  22,C  23)          116.6461         0.429063   
    105. A(C  24,C  23,H  39)          118.1138         0.356678   
    106. A(C  22,C  23,H  39)          119.9097         0.351526   
    107. A(C  22,C  23,C  24)          121.9687         0.433927   
    108. A(C  19,C  24,C  23)          120.3023         0.437122   
    109. A(C  23,C  24,H  40)          120.6259         0.356712   
    110. A(C  19,C  24,H  40)          119.0704         0.353991   
    111. A(C  26,C  25,N  35)          119.6292         0.409996   
    112. A(C  22,C  25,N  35)          121.8854         0.419773   
    113. A(C  22,C  25,C  26)          118.3927         0.386449   
    114. A(C  25,C  26,C  27)          115.5188         0.374271   
    115. A(C   6,C  26,C  27)          112.6413         0.360241   
    116. A(C   6,C  26,C  25)          116.3425         0.363461   
    117. A(C  27,C  26,H  41)          104.9659         0.326651   
    118. A(C  25,C  26,H  41)          104.3542         0.329473   
    119. A(C   6,C  26,H  41)          100.6832         0.317646   
    120. A(C  28,C  27,C  32)          118.3326         0.432983   
    121. A(C  26,C  27,C  32)          119.1539         0.398087   
    122. A(C  26,C  27,C  28)          122.4504         0.402753   
    123. A(C  27,C  28,C  29)          121.5311         0.437021   
    124. A(C  29,C  28,H  42)          119.7212         0.355289   
    125. A(C  27,C  28,H  42)          118.7449         0.356173   
    126. A(C  28,C  29,C  30)          119.4292         0.437094   
    127. A(C  30,C  29,H  43)          120.5549         0.355953   
    128. A(C  28,C  29,H  43)          120.0158         0.355014   
    129. A(C  29,C  30,C  31)          120.3440         0.437100   
    130. A(C  31,C  30,H  44)          119.2369         0.354874   
    131. A(C  29,C  30,H  44)          120.4174         0.355808   
    132. A(C  30,C  31,C  32)          119.7178         0.435438   
    133. A(C  32,C  31,H  45)          120.6003         0.355101   
    134. A(C  30,C  31,H  45)          119.6815         0.355441   
    135. A(C  31,C  32,O  33)          123.4595         0.433815   
    136. A(C  27,C  32,O  33)          115.9137         0.430244   
    137. A(C  27,C  32,C  31)          120.6264         0.431413   
    138. A(C  32,O  33,C  34)          118.3966         0.415859   
    139. A(H  47,C  34,H  48)          109.4373         0.289643   
    140. A(H  46,C  34,H  48)          109.5527         0.290560   
    141. A(O  33,C  34,H  48)          111.1176         0.338754   
    142. A(H  46,C  34,H  47)          109.5373         0.290570   
    143. A(O  33,C  34,H  47)          111.1066         0.338766   
    144. A(O  33,C  34,H  46)          106.0245         0.339907   
    145. A(C  25,N  35,O  36)          122.7683         0.454073   
    146. A(O  36,N  35,O  49)          118.1533         0.457549   
    147. A(C  25,N  35,O  49)          119.0627         0.449357   
    148. A(C  19,O  51,C  52)          117.6009         0.416154   
    149. A(H  54,C  52,H  55)          109.2094         0.289411   
    150. A(H  53,C  52,H  55)          109.4240         0.290408   
    151. A(O  51,C  52,H  55)          111.2592         0.338759   
    152. A(H  53,C  52,H  54)          109.4159         0.290411   
    153. A(O  51,C  52,H  54)          111.2756         0.338762   
    154. A(O  51,C  52,H  53)          106.1954         0.340005   
    155. D(H  18,C   1,C   0,H  11)     -0.1321         0.027322   
    156. D(C   2,C   1,C   0,H  11)    179.6559         0.027322   
    157. D(H  18,C   1,C   0,C   5)    179.7067         0.027322   
    158. D(C   2,C   1,C   0,C   5)     -0.5053         0.027322   
    159. D(N   3,C   2,C   1,H  18)   -179.7926         0.030974   
    160. D(H  12,C   2,C   1,H  18)      0.6890         0.030974   
    161. D(N   3,C   2,C   1,C   0)      0.4138         0.030974   
    162. D(H  12,C   2,C   1,C   0)   -179.1045         0.030974   
    163. D(C   6,N   3,C   2,C   1)   -173.9218         0.036179   
    164. D(C   4,N   3,C   2,C   1)     -0.2878         0.036179   
    165. D(C   6,N   3,C   2,H  12)      5.6275         0.036179   
    166. D(C   4,N   3,C   2,H  12)    179.2615         0.036179   
    167. D(H  13,C   4,N   3,C   2)    177.9198         0.036020   
    168. D(C   5,C   4,N   3,C   6)    173.8733         0.036020   
    169. D(C   5,C   4,N   3,C   2)      0.2497         0.036020   
    170. D(H  13,C   4,N   3,C   6)     -8.4567         0.036020   
    171. D(C   0,C   5,C   4,H  13)   -177.8248         0.029859   
    172. D(H  14,C   5,C   4,H  13)      2.2638         0.029859   
    173. D(H  14,C   5,C   0,H  11)      0.2188         0.028277   
    174. D(C   4,C   5,C   0,H  11)   -179.6901         0.028277   
    175. D(H  14,C   5,C   4,N   3)    179.7464         0.029859   
    176. D(C   0,C   5,C   4,N   3)     -0.3423         0.029859   
    177. D(C   4,C   5,C   0,C   1)      0.4713         0.028277   
    178. D(H  14,C   5,C   0,C   1)   -179.6197         0.028277   
    179. D(H  15,C   6,N   3,C   2)    -16.7888         0.015593   
    180. D(H  15,C   6,N   3,C   4)    169.4382         0.015593   
    181. D(C  26,C   6,N   3,C   4)    -77.6572         0.015593   
    182. D(C  26,C   6,N   3,C   2)     96.1158         0.015593   
    183. D(C   7,C   6,N   3,C   4)     56.5748         0.015593   
    184. D(C   7,C   6,N   3,C   2)   -129.6522         0.015593   
    185. D(O   8,C   7,C   6,N   3)      6.4454         0.011325   
    186. D(O   9,C   7,C   6,C  26)    -54.8727         0.011325   
    187. D(O   9,C   7,C   6,H  15)     63.4537         0.011325   
    188. D(O   9,C   7,C   6,N   3)    177.4152         0.011325   
    189. D(O   8,C   7,C   6,C  26)    134.1575         0.011325   
    190. D(O   8,C   7,C   6,H  15)   -107.5161         0.011325   
    191. D(C  10,O   9,C   7,O   8)     -6.9312         0.039700   
    192. D(C  10,O   9,C   7,C   6)   -177.8867         0.039700   
    193. D(H  17,C  10,O   9,C   7)    -60.0657         0.018560   
    194. D(H  50,C  10,O   9,C   7)   -179.2493         0.018560   
    195. D(H  16,C  10,O   9,C   7)     61.3034         0.018560   
    196. D(H  37,C  20,C  19,C  24)   -179.5987         0.026646   
    197. D(C  21,C  20,C  19,O  51)   -179.6768         0.026646   
    198. D(C  21,C  20,C  19,C  24)      0.1933         0.026646   
    199. D(H  37,C  20,C  19,O  51)      0.5311         0.026646   
    200. D(H  38,C  21,C  20,H  37)     -0.4548         0.027564   
    201. D(H  38,C  21,C  20,C  19)    179.7492         0.027564   
    202. D(C  22,C  21,C  20,H  37)    179.4540         0.027564   
    203. D(C  22,C  21,C  20,C  19)     -0.3421         0.027564   
    204. D(C  25,C  22,C  21,H  38)      3.1722         0.025459   
    205. D(C  25,C  22,C  21,C  20)   -176.7362         0.025459   
    206. D(C  23,C  22,C  21,H  38)   -179.8257         0.025459   
    207. D(C  23,C  22,C  21,C  20)      0.2658         0.025459   
    208. D(H  39,C  23,C  22,C  25)     -3.9586         0.024248   
    209. D(H  39,C  23,C  22,C  21)    178.9118         0.024248   
    210. D(C  24,C  23,C  22,C  25)    177.0767         0.024248   
    211. D(C  24,C  23,C  22,C  21)     -0.0529         0.024248   
    212. D(C  19,C  24,C  23,C  22)     -0.0840         0.029092   
    213. D(H  40,C  24,C  19,O  51)      0.3114         0.026426   
    214. D(H  40,C  24,C  19,C  20)   -179.5690         0.026426   
    215. D(C  23,C  24,C  19,O  51)    179.8947         0.026426   
    216. D(C  19,C  24,C  23,H  39)   -179.0666         0.029092   
    217. D(C  23,C  24,C  19,C  20)      0.0143         0.026426   
    218. D(H  40,C  24,C  23,H  39)      0.5102         0.029092   
    219. D(H  40,C  24,C  23,C  22)    179.4927         0.029092   
    220. D(N  35,C  25,C  22,C  23)    147.8561         0.015505   
    221. D(N  35,C  25,C  22,C  21)    -35.2265         0.015505   
    222. D(C  26,C  25,C  22,C  23)    -28.6284         0.015505   
    223. D(C  26,C  25,C  22,C  21)    148.2890         0.015505   
    224. D(H  41,C  26,C  25,N  35)    167.3572         0.012922   
    225. D(H  41,C  26,C  25,C  22)    -16.0767         0.012922   
    226. D(C  27,C  26,C  25,N  35)    -77.9630         0.012922   
    227. D(C  27,C  26,C  25,C  22)     98.6030         0.012922   
    228. D(C   6,C  26,C  25,N  35)     57.4659         0.012922   
    229. D(C   6,C  26,C  25,C  22)   -125.9680         0.012922   
    230. D(H  41,C  26,C   6,H  15)     51.2253         0.009087   
    231. D(H  41,C  26,C   6,C   7)    169.1286         0.009087   
    232. D(H  41,C  26,C   6,N   3)    -62.2613         0.009087   
    233. D(C  27,C  26,C   6,H  15)    -60.0857         0.009087   
    234. D(C  27,C  26,C   6,C   7)     57.8176         0.009087   
    235. D(C  27,C  26,C   6,N   3)   -173.5723         0.009087   
    236. D(C  25,C  26,C   6,H  15)    163.2454         0.009087   
    237. D(C  25,C  26,C   6,C   7)    -78.8513         0.009087   
    238. D(C  25,C  26,C   6,N   3)     49.7588         0.009087   
    239. D(C  32,C  27,C  26,H  41)    -42.0549         0.011690   
    240. D(C  32,C  27,C  26,C  25)   -156.3835         0.011690   
    241. D(C  32,C  27,C  26,C   6)     66.5722         0.011690   
    242. D(C  28,C  27,C  26,H  41)    135.0082         0.011690   
    243. D(C  28,C  27,C  26,C  25)     20.6795         0.011690   
    244. D(C  28,C  27,C  26,C   6)   -116.3647         0.011690   
    245. D(H  42,C  28,C  27,C  32)    179.1106         0.028121   
    246. D(H  42,C  28,C  27,C  26)      2.0246         0.028121   
    247. D(C  29,C  28,C  27,C  32)     -1.4979         0.028121   
    248. D(C  29,C  28,C  27,C  26)   -178.5840         0.028121   
    249. D(H  43,C  29,C  28,H  42)     -0.2010         0.027258   
    250. D(H  43,C  29,C  28,C  27)   -179.5866         0.027258   
    251. D(C  30,C  29,C  28,H  42)    179.9125         0.027258   
    252. D(C  30,C  29,C  28,C  27)      0.5269         0.027258   
    253. D(H  44,C  30,C  29,H  43)      0.1682         0.028177   
    254. D(H  44,C  30,C  29,C  28)   -179.9459         0.028177   
    255. D(C  31,C  30,C  29,H  43)   -179.3457         0.028177   
    256. D(C  31,C  30,C  29,C  28)      0.5402         0.028177   
    257. D(H  45,C  31,C  30,H  44)     -0.3344         0.027262   
    258. D(H  45,C  31,C  30,C  29)    179.1853         0.027262   
    259. D(C  32,C  31,C  30,H  44)    179.8925         0.027262   
    260. D(C  32,C  31,C  30,C  29)     -0.5879         0.027262   
    261. D(O  33,C  32,C  31,H  45)     -0.4237         0.026937   
    262. D(O  33,C  32,C  31,C  30)    179.3474         0.026937   
    263. D(C  27,C  32,C  31,H  45)    179.8125         0.026937   
    264. D(C  27,C  32,C  31,C  30)     -0.4165         0.026937   
    265. D(O  33,C  32,C  27,C  28)   -178.3440         0.024441   
    266. D(O  33,C  32,C  27,C  26)     -1.1596         0.024441   
    267. D(C  31,C  32,C  27,C  28)      1.4370         0.024441   
    268. D(C  31,C  32,C  27,C  26)    178.6214         0.024441   
    269. D(C  34,O  33,C  32,C  31)     -0.0316         0.029910   
    270. D(C  34,O  33,C  32,C  27)    179.7425         0.029910   
    271. D(H  48,C  34,O  33,C  32)    -60.9398         0.020654   
    272. D(H  47,C  34,O  33,C  32)     61.1648         0.020654   
    273. D(H  46,C  34,O  33,C  32)   -179.8997         0.020654   
    274. D(O  49,N  35,C  25,C  26)     -6.2851         0.039666   
    275. D(O  49,N  35,C  25,C  22)    177.2727         0.039666   
    276. D(O  36,N  35,C  25,C  26)    175.1812         0.039666   
    277. D(O  36,N  35,C  25,C  22)     -1.2609         0.039666   
    278. D(C  52,O  51,C  19,C  24)   -179.9949         0.030001   
    279. D(C  52,O  51,C  19,C  20)     -0.1219         0.030001   
    280. D(H  54,C  52,O  51,C  19)    -61.2336         0.020764   
    281. D(H  53,C  52,O  51,C  19)    179.7819         0.020764   
    282. D(H  55,C  52,O  51,C  19)     60.7967         0.020764   
    -----------------------------------------------------------------

Number of atoms                         .... 56
Number of degrees of freedom            .... 282

         *************************************************************
         *                GEOMETRY OPTIMIZATION CYCLE   1            *
         *************************************************************
---------------------------------
CARTESIAN COORDINATES (ANGSTROEM)
---------------------------------
  C      1.588185    1.832974    3.765732
  C      1.942099    0.491283    3.710964
  C      2.123885   -0.101095    2.486088
  N      1.970531    0.606522    1.354710
  C      1.631078    1.906414    1.382723
  C      1.437183    2.544396    2.587899
  C      2.039774   -0.086455    0.067882
  C      3.003227    0.625590   -0.864647
  O      3.703698    1.554122   -0.545200
  O      3.104117   -0.033695   -2.002957
  C      4.018791    0.502116   -2.961213
  H      1.434534    2.317954    4.722003
  H      2.385963   -1.144175    2.368584
  H      1.564930    2.401090    0.423525
  H      1.168469    3.591927    2.588331
  H      2.510253   -1.051762    0.264486
  H      5.031977    0.508207   -2.558949
  H      3.724594    1.515867   -3.233866
  H      2.074825   -0.099374    4.606904
  C     -3.985696    0.041393    1.898410
  C     -3.469073    1.329077    1.787611
  C     -2.322467    1.557791    1.040459
  C     -1.646684    0.524014    0.386027
  C     -2.189210   -0.764401    0.516193
  C     -3.331737   -1.005467    1.252888
  C     -0.398097    0.711832   -0.353666
  C      0.585984   -0.418898   -0.390204
  C      0.549618   -1.274937   -1.637979
  C      0.002036   -0.829035   -2.829402
  C     -0.047379   -1.641252   -3.955049
  C      0.451560   -2.931107   -3.885789
  C      0.986816   -3.413592   -2.698409
  C      1.031880   -2.591087   -1.578191
  O      1.524988   -2.987054   -0.380216
  C      2.020355   -4.306849   -0.259481
  N     -0.149652    1.823462   -1.043744
  O     -0.976672    2.776523   -1.127181
  H     -3.948211    2.164329    2.281427
  H     -1.941540    2.566241    0.964914
  H     -1.717513   -1.602818    0.015728
  H     -3.736535   -2.008179    1.332139
  H      0.265579   -1.083693    0.418092
  H     -0.385303    0.180419   -2.878649
  H     -0.475324   -1.264907   -4.876665
  H      0.421898   -3.578570   -4.754969
  H      1.361508   -4.427261   -2.652671
  H      2.358648   -4.407715    0.769723
  H      2.860481   -4.475819   -0.938803
  H      1.236109   -5.041998   -0.460682
  O      0.982159    1.952916   -1.627946
  H      3.956475   -0.155594   -3.824185
  O     -5.099787   -0.281362    2.597471
  C     -5.782132    0.763974    3.261941
  H     -6.637328    0.304024    3.753335
  H     -5.144175    1.240425    4.012552
  H     -6.132968    1.521460    2.554428

----------------------------
CARTESIAN COORDINATES (A.U.)
----------------------------
  NO LB      ZA    FRAG     MASS         X           Y           Z
   0 C     6.0000    0    12.011    3.001235    3.463819    7.116202
   1 C     6.0000    0    12.011    3.670035    0.928390    7.012706
   2 C     6.0000    0    12.011    4.013561   -0.191042    4.698025
   3 N     7.0000    0    14.007    3.723764    1.146160    2.560031
   4 C     6.0000    0    12.011    3.082291    3.602600    2.612968
   5 C     6.0000    0    12.011    2.715882    4.808212    4.890420
   6 C     6.0000    0    12.011    3.854614   -0.163376    0.128278
   7 C     6.0000    0    12.011    5.675277    1.182194   -1.633946
   8 O     8.0000    0    15.999    6.998975    2.936865   -1.030279
   9 O     8.0000    0    15.999    5.865931   -0.063674   -3.785040
  10 C     6.0000    0    12.011    7.594414    0.948862   -5.595882
  11 H     1.0000    0     1.008    2.710876    4.380298    8.923292
  12 H     1.0000    0     1.008    4.508817   -2.162177    4.475975
  13 H     1.0000    0     1.008    2.957289    4.537403    0.800346
  14 H     1.0000    0     1.008    2.208086    6.787758    4.891237
  15 H     1.0000    0     1.008    4.743691   -1.987542    0.499806
  16 H     1.0000    0     1.008    9.509058    0.960372   -4.835713
  17 H     1.0000    0     1.008    7.038463    2.864573   -6.111121
  18 H     1.0000    0     1.008    3.920851   -0.187790    8.705787
  19 C     6.0000    0    12.011   -7.531874    0.078221    3.587475
  20 C     6.0000    0    12.011   -6.555598    2.511592    3.378095
  21 C     6.0000    0    12.011   -4.388827    2.943798    1.966183
  22 C     6.0000    0    12.011   -3.111782    0.990243    0.729485
  23 C     6.0000    0    12.011   -4.137007   -1.444509    0.975463
  24 C     6.0000    0    12.011   -6.296070   -1.900057    2.367615
  25 C     6.0000    0    12.011   -0.752294    1.345168   -0.668332
  26 C     6.0000    0    12.011    1.107349   -0.791602   -0.737379
  27 C     6.0000    0    12.011    1.038627   -2.409282   -3.095332
  28 C     6.0000    0    12.011    0.003847   -1.566649   -5.346795
  29 C     6.0000    0    12.011   -0.089533   -3.101517   -7.473959
  30 C     6.0000    0    12.011    0.853325   -5.538989   -7.343077
  31 C     6.0000    0    12.011    1.864812   -6.450754   -5.099254
  32 C     6.0000    0    12.011    1.949971   -4.896445   -2.982349
  33 O     8.0000    0    15.999    2.881810   -5.644714   -0.718504
  34 C     6.0000    0    12.011    3.817918   -8.138765   -0.490348
  35 N     7.0000    0    14.007   -0.282801    3.445844   -1.972390
  36 O     8.0000    0    15.999   -1.845643    5.246868   -2.130063
  37 H     1.0000    0     1.008   -7.461038    4.089989    4.311272
  38 H     1.0000    0     1.008   -3.668979    4.849493    1.823423
  39 H     1.0000    0     1.008   -3.245629   -3.028887    0.029722
  40 H     1.0000    0     1.008   -7.061028   -3.794908    2.517378
  41 H     1.0000    0     1.008    0.501872   -2.047883    0.790079
  42 H     1.0000    0     1.008   -0.728117    0.340942   -5.439858
  43 H     1.0000    0     1.008   -0.898232   -2.390328   -9.215561
  44 H     1.0000    0     1.008    0.797272   -6.762517   -8.985589
  45 H     1.0000    0     1.008    2.572877   -8.366311   -5.012822
  46 H     1.0000    0     1.008    4.457199   -8.329374    1.454566
  47 H     1.0000    0     1.008    5.405526   -8.458072   -1.774081
  48 H     1.0000    0     1.008    2.335907   -9.527995   -0.870563
  49 O     8.0000    0    15.999    1.856012    3.690476   -3.076372
  50 H     1.0000    0     1.008    7.476654   -0.294030   -7.226662
  51 O     8.0000    0    15.999   -9.637201   -0.531697    4.908509
  52 C     6.0000    0    12.011  -10.926646    1.443702    6.164175
  53 H     1.0000    0     1.008  -12.542732    0.574522    7.092775
  54 H     1.0000    0     1.008   -9.721082    2.344064    7.582624
  55 H     1.0000    0     1.008  -11.589630    2.875143    4.827169

--------------------------------
INTERNAL COORDINATES (ANGSTROEM)
--------------------------------
 C      0   0   0     0.000000000000     0.00000000     0.00000000
 C      1   0   0     1.388664607708     0.00000000     0.00000000
 C      2   1   0     1.372690445824   119.07087169     0.00000000
 N      3   2   1     1.343225761698   120.60563054     0.41379335
 C      4   3   2     1.343775382660   121.39143762   359.71219218
 C      5   4   3     1.377340006798   120.12407013     0.24974368
 C      4   3   2     1.463194456373   119.06877964   186.07817735
 C      7   4   3     1.518176571113   110.37172416   230.34782921
 O      8   7   4     1.206183104953   124.53536769     6.44544422
 O      8   7   4     1.319312381290   110.12852560   177.41522631
 C     10   8   7     1.428977437027   116.11416786   182.11326964
 H      1   2   3     1.083175173110   120.23612788   179.65591709
 H      3   2   1     1.081900159211   123.02836549   180.89547009
 H      5   4   3     1.081268100928   116.07304366   177.91976708
 H      6   5   4     1.081447454286   118.94700978   179.74635715
 H      7   4   3     1.091705650121   106.30697593   343.21122567
 H     11  10   8     1.090137283361   110.45995347    61.30343232
 H     11  10   8     1.090221364320   110.09874407   299.93432587
 H      2   1   3     1.081295688665   121.76093612   180.21199432
 C      5   4   3     5.940739565028    86.38568033   276.58651801
 C     20   5   4     1.391871339739    49.58806422   183.27940541
 C     21  20   5     1.387534332597   120.13792723    32.67036680
 C     22  21  20     1.397733447923   121.98783099   359.65788546
 C     23  22  21     1.404026659454   116.64611656     0.26584646
 C     24  23  22     1.380652123132   121.96872227   359.94713932
 C     23  22  21     1.463349183190   123.66052685   183.26377897
 C     26  23  22     1.499433483988   118.39269921   148.28900724
 C     27  26  23     1.513627333957   115.51880292    98.60302965
 C     28  27  26     1.384977763452   122.45039712    20.67948759
 C     29  28  27     1.388963450175   121.53107512   181.41601632
 C     30  29  28     1.384724880381   119.42919713     0.52689096
 C     31  30  29     1.388942772457   120.34396472     0.54015498
 C     32  31  30     1.390479631870   119.71780391   359.41211007
 O     33  32  31     1.354654740286   123.45953032   179.34737939
 C     34  33  32     1.414858384058   118.39658907   359.96843669
 N     26  23  22     1.331785951649   121.88541127   324.77354440
 O     36  26  23     1.264614203261   122.76834663   358.73905617
 H     21  20   5     1.082161433615   120.89031989   212.87827154
 H     22  21  20     1.080640471597   118.86584546   179.74917497
 H     24  23  22     1.084392153201   119.90965141   178.91183254
 H     25  24  23     1.084238671488   120.62594629   179.49270254
 H     27  26  23     1.094510931725   104.35419798   343.92327063
 H     29  28  27     1.082337353160   118.74489638     2.02458500
 H     30  29  28     1.083581346049   120.01582350   180.41337746
 H     31  30  29     1.084233389549   120.41739429   180.05408970
 H     32  31  30     1.081670421648   119.68148530   179.18528800
 H     35  34  33     1.088061109231   106.02447106   180.10030329
 H     35  34  33     1.093545123193   111.10664154    61.16481891
 H     35  34  33     1.093603073843   111.11761067   299.06016205
 O     36  26  23     1.280252496440   119.06270253   177.27270606
 H     11  10   8     1.086823997131   105.59601289   180.75066840
 O     20   5   4     1.354273173339   153.82017889    95.81402494
 C     52  20   5     1.414157852865   117.60094066    67.30385147
 H     53  52  20     1.088293280395   106.19536813   179.78191355
 H     53  52  20     1.094263022573   111.27560628   298.76643423
 H     53  52  20     1.094278567944   111.25917084    60.79668375

---------------------------
INTERNAL COORDINATES (A.U.)
---------------------------
 C      0   0   0     0.000000000000     0.00000000     0.00000000
 C      1   0   0     2.624195800437     0.00000000     0.00000000
 C      2   1   0     2.594009009257   119.07087169     0.00000000
 N      3   2   1     2.538328825637   120.60563054     0.41379335
 C      4   3   2     2.539367458732   121.39143762   359.71219218
 C      5   4   3     2.602795406141   120.12407013     0.24974368
 C      4   3   2     2.765036803218   119.06877964   186.07817735
 C      7   4   3     2.868937942338   110.37172416   230.34782921
 O      8   7   4     2.279355735724   124.53536769     6.44544422
 O      8   7   4     2.493139085730   110.12852560   177.41522631
 C     10   8   7     2.700376007534   116.11416786   182.11326964
 H      1   2   3     2.046904432241   120.23612788   179.65591709
 H      3   2   1     2.044495005154   123.02836549   180.89547009
 H      5   4   3     2.043300588099   116.07304366   177.91976708
 H      6   5   4     2.043639516826   118.94700978   179.74635715
 H      7   4   3     2.063024697583   106.30697593   343.21122567
 H     11  10   8     2.060060913929   110.45995347    61.30343232
 H     11  10   8     2.060219803914   110.09874407   299.93432587
 H      2   1   3     2.043352721366   121.76093612   180.21199432
 C      5   4   3    11.226370810853    86.38568033   276.58651801
 C     20   5   4     2.630255645760    49.58806422   183.27940541
 C     21  20   5     2.622059890022   120.13792723    32.67036680
 C     22  21  20     2.641333424795   121.98783099   359.65788546
 C     23  22  21     2.653225871092   116.64611656     0.26584646
 C     24  23  22     2.609054398937   121.96872227   359.94713932
 C     23  22  21     2.765329194526   123.66052685   183.26377897
 C     26  23  22     2.833518640769   118.39269921   148.28900724
 C     27  26  23     2.860341129996   115.51880292    98.60302965
 C     28  27  26     2.617228674495   122.45039712    20.67948759
 C     29  28  27     2.624760530858   121.53107512   181.41601632
 C     30  29  28     2.616750794747   119.42919713     0.52689096
 C     31  30  29     2.624721455633   120.34396472     0.54015498
 C     32  31  30     2.627625699030   119.71780391   359.41211007
 O     33  32  31     2.559926465158   123.45953032   179.34737939
 C     34  33  32     2.673694864152   118.39658907   359.96843669
 N     26  23  22     2.516710717620   121.88541127   324.77354440
 O     36  26  23     2.389774509231   122.76834663   358.73905617
 H     21  20   5     2.044988742224   120.89031989   212.87827154
 H     22  21  20     2.042114540550   118.86584546   179.74917497
 H     24  23  22     2.049204191322   119.90965141   178.91183254
 H     25  24  23     2.048914152918   120.62594629   179.49270254
 H     27  26  23     2.068325911544   104.35419798   343.92327063
 H     29  28  27     2.045321181986   118.74489638     2.02458500
 H     30  29  28     2.047671987859   120.01582350   180.41337746
 H     31  30  29     2.048904171501   120.41739429   180.05408970
 H     32  31  30     2.044060864079   119.68148530   179.18528800
 H     35  34  33     2.056137513417   106.02447106   180.10030329
 H     35  34  33     2.066500797921   111.10664154    61.16481891
 H     35  34  33     2.066610308777   111.11761067   299.06016205
 O     36  26  23     2.419326600541   119.06270253   177.27270606
 H     11  10   8     2.053799710351   105.59601289   180.75066840
 O     20   5   4     2.559205408128   153.82017889    95.81402494
 C     52  20   5     2.672371052050   117.60094066    67.30385147
 H     53  52  20     2.056576253333   106.19536813   179.78191355
 H     53  52  20     2.067857431140   111.27560628   298.76643423
 H     53  52  20     2.067886807633   111.25917084    60.79668375

---------------------
BASIS SET INFORMATION
---------------------
There are 4 groups of distinct atoms

 Group   1 Type C   : 11s6p2d1f contracted to 5s3p2d1f pattern {62111/411/11/1}
 Group   2 Type N   : 11s6p2d1f contracted to 5s3p2d1f pattern {62111/411/11/1}
 Group   3 Type O   : 11s6p2d1f contracted to 5s3p2d1f pattern {62111/411/11/1}
 Group   4 Type H   : 5s1p contracted to 3s1p pattern {311/1}

Atom   0C    basis set group =>   1
Atom   1C    basis set group =>   1
Atom   2C    basis set group =>   1
Atom   3N    basis set group =>   2
Atom   4C    basis set group =>   1
Atom   5C    basis set group =>   1
Atom   6C    basis set group =>   1
Atom   7C    basis set group =>   1
Atom   8O    basis set group =>   3
Atom   9O    basis set group =>   3
Atom  10C    basis set group =>   1
Atom  11H    basis set group =>   4
Atom  12H    basis set group =>   4
Atom  13H    basis set group =>   4
Atom  14H    basis set group =>   4
Atom  15H    basis set group =>   4
Atom  16H    basis set group =>   4
Atom  17H    basis set group =>   4
Atom  18H    basis set group =>   4
Atom  19C    basis set group =>   1
Atom  20C    basis set group =>   1
Atom  21C    basis set group =>   1
Atom  22C    basis set group =>   1
Atom  23C    basis set group =>   1
Atom  24C    basis set group =>   1
Atom  25C    basis set group =>   1
Atom  26C    basis set group =>   1
Atom  27C    basis set group =>   1
Atom  28C    basis set group =>   1
Atom  29C    basis set group =>   1
Atom  30C    basis set group =>   1
Atom  31C    basis set group =>   1
Atom  32C    basis set group =>   1
Atom  33O    basis set group =>   3
Atom  34C    basis set group =>   1
Atom  35N    basis set group =>   2
Atom  36O    basis set group =>   3
Atom  37H    basis set group =>   4
Atom  38H    basis set group =>   4
Atom  39H    basis set group =>   4
Atom  40H    basis set group =>   4
Atom  41H    basis set group =>   4
Atom  42H    basis set group =>   4
Atom  43H    basis set group =>   4
Atom  44H    basis set group =>   4
Atom  45H    basis set group =>   4
Atom  46H    basis set group =>   4
Atom  47H    basis set group =>   4
Atom  48H    basis set group =>   4
Atom  49O    basis set group =>   3
Atom  50H    basis set group =>   4
Atom  51O    basis set group =>   3
Atom  52C    basis set group =>   1
Atom  53H    basis set group =>   4
Atom  54H    basis set group =>   4
Atom  55H    basis set group =>   4
---------------------------------
AUXILIARY/J BASIS SET INFORMATION
---------------------------------
There are 4 groups of distinct atoms

 Group   1 Type C   : 12s5p4d2f1g contracted to 6s4p3d1f1g pattern {711111/2111/211/2/1}
 Group   2 Type N   : 12s5p4d2f1g contracted to 6s4p3d1f1g pattern {711111/2111/211/2/1}
 Group   3 Type O   : 12s5p4d2f1g contracted to 6s4p3d1f1g pattern {711111/2111/211/2/1}
 Group   4 Type H   : 5s2p1d contracted to 3s1p1d pattern {311/2/1}

Atom   0C    basis set group =>   1
Atom   1C    basis set group =>   1
Atom   2C    basis set group =>   1
Atom   3N    basis set group =>   2
Atom   4C    basis set group =>   1
Atom   5C    basis set group =>   1
Atom   6C    basis set group =>   1
Atom   7C    basis set group =>   1
Atom   8O    basis set group =>   3
Atom   9O    basis set group =>   3
Atom  10C    basis set group =>   1
Atom  11H    basis set group =>   4
Atom  12H    basis set group =>   4
Atom  13H    basis set group =>   4
Atom  14H    basis set group =>   4
Atom  15H    basis set group =>   4
Atom  16H    basis set group =>   4
Atom  17H    basis set group =>   4
Atom  18H    basis set group =>   4
Atom  19C    basis set group =>   1
Atom  20C    basis set group =>   1
Atom  21C    basis set group =>   1
Atom  22C    basis set group =>   1
Atom  23C    basis set group =>   1
Atom  24C    basis set group =>   1
Atom  25C    basis set group =>   1
Atom  26C    basis set group =>   1
Atom  27C    basis set group =>   1
Atom  28C    basis set group =>   1
Atom  29C    basis set group =>   1
Atom  30C    basis set group =>   1
Atom  31C    basis set group =>   1
Atom  32C    basis set group =>   1
Atom  33O    basis set group =>   3
Atom  34C    basis set group =>   1
Atom  35N    basis set group =>   2
Atom  36O    basis set group =>   3
Atom  37H    basis set group =>   4
Atom  38H    basis set group =>   4
Atom  39H    basis set group =>   4
Atom  40H    basis set group =>   4
Atom  41H    basis set group =>   4
Atom  42H    basis set group =>   4
Atom  43H    basis set group =>   4
Atom  44H    basis set group =>   4
Atom  45H    basis set group =>   4
Atom  46H    basis set group =>   4
Atom  47H    basis set group =>   4
Atom  48H    basis set group =>   4
Atom  49O    basis set group =>   3
Atom  50H    basis set group =>   4
Atom  51O    basis set group =>   3
Atom  52C    basis set group =>   1
Atom  53H    basis set group =>   4
Atom  54H    basis set group =>   4
Atom  55H    basis set group =>   4


           ************************************************************
           *        Program running with 24 parallel MPI-processes    *
           *              working on a common directory               *
           ************************************************************
------------------------------------------------------------------------------
                           ORCA GTO INTEGRAL CALCULATION
                           -- RI-GTO INTEGRALS CHOSEN --
------------------------------------------------------------------------------
------------------------------------------------------------------------------
                   ___                                                        
                  /   \      - P O W E R E D   B Y -                         
                 /     \                                                     
                 |  |  |   _    _      __       _____    __    __             
                 |  |  |  | |  | |    /  \     |  _  \  |  |  /  |          
                  \  \/   | |  | |   /    \    | | | |  |  | /  /          
                 / \  \   | |__| |  /  /\  \   | |_| |  |  |/  /          
                |  |  |   |  __  | /  /__\  \  |    /   |      \           
                |  |  |   | |  | | |   __   |  |    \   |  |\   \          
                \     /   | |  | | |  |  |  |  | |\  \  |  | \   \       
                 \___/    |_|  |_| |__|  |__|  |_| \__\ |__|  \__/        
                                                                              
                      - O R C A' S   B I G   F R I E N D -                    
                                      &                                       
                       - I N T E G R A L  F E E D E R -                       
                                                                              
 v1 FN, 2020, v2 2021                                                         
------------------------------------------------------------------------------


Reading SHARK input file IM_4-OMePh/IM_4-OMePh.SHARKINP.tmp ... ok
----------------------
SHARK INTEGRAL PACKAGE
----------------------

Number of atoms                             ...     56
Number of basis functions                   ...   1136
Number of shells                            ...    448
Maximum angular momentum                    ...      3
Integral batch strategy                     ... SHARK/LIBINT Hybrid
RI-J (if used) integral strategy            ... SPLIT-RIJ (Revised 2003 algorithm where possible)
Printlevel                                  ...      1
Contraction scheme used                     ... SEGMENTED contraction
Coulomb Range Separation                    ... NOT USED
Exchange Range Separation                   ... NOT USED
Finite Nucleus Model                        ... NOT USED
Auxiliary Coulomb fitting basis             ... AVAILABLE
   # of basis functions in Aux-J            ...   1832
   # of shells in Aux-J                     ...    600
   Maximum angular momentum in Aux-J        ...      4
Auxiliary J/K fitting basis                 ... NOT available
Auxiliary Correlation fitting basis         ... NOT available
Auxiliary 'external' fitting basis          ... NOT available
Integral threshold                          ...     2.500000e-11
Primitive cut-off                           ...     2.500000e-12
Primitive pair pre-selection threshold      ...     2.500000e-12

Calculating pre-screening integrals         ... done (  0.1 sec) Dimension = 448
Organizing shell pair data                  ... done (  0.8 sec)
Shell pair information
Total number of shell pairs                 ...    100576
Shell pairs after pre-screening             ...     65356
Total number of primitive shell pairs       ...    308496
Primitive shell pairs kept                  ...    128195
          la=0 lb=0:  16854 shell pairs
          la=1 lb=0:  19024 shell pairs
          la=1 lb=1:   5385 shell pairs
          la=2 lb=0:   9201 shell pairs
          la=2 lb=1:   5331 shell pairs
          la=2 lb=2:   1338 shell pairs
          la=3 lb=0:   4248 shell pairs
          la=3 lb=1:   2504 shell pairs
          la=3 lb=2:   1175 shell pairs
          la=3 lb=3:    296 shell pairs

Calculating one electron integrals          ... done (  0.1 sec)
Calculating RI/J V-Matrix + Cholesky decomp.... done (  0.3 sec)
Calculating Nuclear repulsion               ... done (  0.0 sec) ENN=   3425.383656388023 Eh

SHARK setup successfully completed in   2.4 seconds

Maximum memory used throughout the entire GTOINT-calculation: 97.8 MB


           ************************************************************
           *        Program running with 24 parallel MPI-processes    *
           *              working on a common directory               *
           ************************************************************
-------------------------------------------------------------------------------
                                 ORCA SCF
-------------------------------------------------------------------------------

------------
SCF SETTINGS
------------
Hamiltonian:
 Density Functional     Method          .... DFT(GTOs)
 Exchange Functional    Exchange        .... PBE
   PBE kappa parameter   XKappa         ....  0.804000
   PBE mue parameter    XMuePBE         ....  0.219520
 Correlation Functional Correlation     .... PBE
   PBE beta parameter  CBetaPBE         ....  0.066725
 LDA part of GGA corr.  LDAOpt          .... PW91-LDA
 Gradients option       PostSCFGGA      .... off
 Hybrid DFT is turned on
   Fraction HF Exchange ScalHFX         ....  0.250000
   Scaling of DF-GGA-X  ScalDFX         ....  0.750000
   Scaling of DF-GGA-C  ScalDFC         ....  1.000000
   Scaling of DF-LDA-C  ScalLDAC        ....  1.000000
   Perturbative correction              ....  0.000000
   Density functional embedding theory  .... OFF
   NL short-range parameter             ....  6.900000
 RI-approximation to the Coulomb term is turned on
   Number of AuxJ basis functions       .... 1832
   RIJ-COSX (HFX calculated with COS-X)).... on


General Settings:
 Integral files         IntName         .... IM_4-OMePh/IM_4-OMePh
 Hartree-Fock type      HFTyp           .... RHF
 Total Charge           Charge          ....    0
 Multiplicity           Mult            ....    1
 Number of Electrons    NEL             ....  230
 Basis Dimension        Dim             .... 1136
 Nuclear Repulsion      ENuc            ....   3425.3836563880 Eh

Convergence Acceleration:
 DIIS                   CNVDIIS         .... on
   Start iteration      DIISMaxIt       ....    12
   Startup error        DIISStart       ....  0.200000
   # of expansion vecs  DIISMaxEq       ....     5
   Bias factor          DIISBfac        ....   1.050
   Max. coefficient     DIISMaxC        ....  10.000
 Trust-Rad. Augm. Hess. CNVTRAH         .... auto
   Auto Start mean grad. ratio tolernc. ....  1.125000
   Auto Start start iteration           ....    20
   Auto Start num. interpolation iter.  ....    10
   Max. Number of Micro iterations      ....    16
   Max. Number of Macro iterations      .... Maxiter - #DIIS iter
   Number of Davidson start vectors     ....     2
   Converg. threshold I  (grad. norm)   ....   1.000e-05
   Converg. threshold II (energy diff.) ....   1.000e-08
   Grad. Scal. Fac. for Micro threshold ....   0.100
   Minimum threshold for Micro iter.    ....   0.010
   NR start threshold (gradient norm)   ....   0.001
   Initial trust radius                 ....   0.400
   Minimum AH scaling param. (alpha)    ....   1.000
   Maximum AH scaling param. (alpha)    .... 1000.000
   Orbital update algorithm             .... Taylor
   White noise on init. David. guess    .... on
   Maximum white noise                  ....   0.010
   Quad. conv. algorithm                .... NR
 SOSCF                  CNVSOSCF        .... on
   Start iteration      SOSCFMaxIt      ....   150
   Startup grad/error   SOSCFStart      ....  0.003300
 Level Shifting         CNVShift        .... on
   Level shift para.    LevelShift      ....    0.2500
   Turn off err/grad.   ShiftErr        ....    0.0010
 Zerner damping         CNVZerner       .... off
 Static damping         CNVDamp         .... on
   Fraction old density DampFac         ....    0.7000
   Max. Damping (<1)    DampMax         ....    0.9800
   Min. Damping (>=0)   DampMin         ....    0.0000
   Turn off err/grad.   DampErr         ....    0.1000
 Fernandez-Rico         CNVRico         .... off

SCF Procedure:
 Maximum # iterations   MaxIter         ....   800
 SCF integral mode      SCFMode         .... Direct
   Integral package                     .... SHARK and LIBINT hybrid scheme
 Reset frequency        DirectResetFreq ....    20
 Integral Threshold     Thresh          ....  2.500e-11 Eh
 Primitive CutOff       TCut            ....  2.500e-12 Eh

Convergence Tolerance:
 Convergence Check Mode ConvCheckMode   .... Total+1el-Energy
 Convergence forced     ConvForced      .... 0
 Energy Change          TolE            ....  1.000e-08 Eh
 1-El. energy change                    ....  1.000e-05 Eh
 Orbital Gradient       TolG            ....  1.000e-05
 Orbital Rotation angle TolX            ....  1.000e-05
 DIIS Error             TolErr          ....  5.000e-07


Diagonalization of the overlap matrix:
Smallest eigenvalue                        ... 5.317e-06
Time for diagonalization                   ...    0.232 sec
Threshold for overlap eigenvalues          ... 1.000e-08
Number of eigenvalues below threshold      ... 0
Time for construction of square roots      ...    0.198 sec
Total time needed                          ...    0.437 sec

Time for model grid setup =    0.582 sec

------------------------------
INITIAL GUESS: MODEL POTENTIAL
------------------------------
Loading Hartree-Fock densities                     ... done
Calculating cut-offs                               ... done
Initializing the effective Hamiltonian             ... done
Setting up the integral package (SHARK)            ... done
Starting the Coulomb interaction                   ... done (   1.0 sec)
Reading the grid                                   ... done
Mapping shells                                     ... done
Starting the XC term evaluation                    ... done (   0.3 sec)
  promolecular density results
     # of electrons  =    229.995845810
     EX              =   -191.992152531
     EC              =     -7.790027034
     EX+EC           =   -199.782179566
Transforming the Hamiltonian                       ... done (   0.1 sec)
Diagonalizing the Hamiltonian                      ... done (   0.2 sec)
Back transforming the eigenvectors                 ... done (   0.1 sec)
Now organizing SCF variables                       ... done
                      ------------------
                      INITIAL GUESS DONE (   2.6 sec)
                      ------------------
-------------------
DFT GRID GENERATION
-------------------

General Integration Accuracy     IntAcc      ... 4.388
Radial Grid Type                 RadialGrid  ... OptM3 with GC (2021)
Angular Grid (max. ang.)         AngularGrid ... 4 (Lebedev-302)
Angular grid pruning method      GridPruning ... 4 (adaptive)
Weight generation scheme         WeightScheme... Becke
Basis function cutoff            BFCut       ... 1.0000e-11
Integration weight cutoff        WCut        ... 1.0000e-14
Angular grids for H and He will be reduced by one unit
Partially contracted basis set               ... off
Rotationally invariant grid construction     ... off

Total number of grid points                  ...   266444
Total number of batches                      ...     4191
Average number of points per batch           ...       63
Average number of grid points per atom       ...     4758
Time for grid setup =    2.097 sec

--------------------
COSX GRID GENERATION
--------------------

GRIDX 1
-------
General Integration Accuracy     IntAcc      ... 3.816
Radial Grid Type                 RadialGrid  ... OptM3 with GC (2021)
Angular Grid (max. ang.)         AngularGrid ... 1 (Lebedev-50)
Angular grid pruning method      GridPruning ... 4 (adaptive)
Weight generation scheme         WeightScheme... Becke
Basis function cutoff            BFCut       ... 1.0000e-11
Integration weight cutoff        WCut        ... 1.0000e-14
Angular grids for H and He will be reduced by one unit
Partially contracted basis set               ... on
Rotationally invariant grid construction     ... off

Total number of grid points                  ...    33812
Total number of batches                      ...      557
Average number of points per batch           ...       60
Average number of grid points per atom       ...      604
UseSFitting                                  ... on

GRIDX 2
-------
General Integration Accuracy     IntAcc      ... 4.020
Radial Grid Type                 RadialGrid  ... OptM3 with GC (2021)
Angular Grid (max. ang.)         AngularGrid ... 2 (Lebedev-110)
Angular grid pruning method      GridPruning ... 4 (adaptive)
Weight generation scheme         WeightScheme... Becke
Basis function cutoff            BFCut       ... 1.0000e-11
Integration weight cutoff        WCut        ... 1.0000e-14
Angular grids for H and He will be reduced by one unit
Partially contracted basis set               ... on
Rotationally invariant grid construction     ... off

Total number of grid points                  ...    72982
Total number of batches                      ...     1171
Average number of points per batch           ...       62
Average number of grid points per atom       ...     1303
UseSFitting                                  ... on

GRIDX 3
-------
General Integration Accuracy     IntAcc      ... 4.338
Radial Grid Type                 RadialGrid  ... OptM3 with GC (2021)
Angular Grid (max. ang.)         AngularGrid ... 3 (Lebedev-194)
Angular grid pruning method      GridPruning ... 4 (adaptive)
Weight generation scheme         WeightScheme... Becke
Basis function cutoff            BFCut       ... 1.0000e-11
Integration weight cutoff        WCut        ... 1.0000e-14
Angular grids for H and He will be reduced by one unit
Partially contracted basis set               ... on
Rotationally invariant grid construction     ... off

Total number of grid points                  ...   158964
Total number of batches                      ...     2513
Average number of points per batch           ...       63
Average number of grid points per atom       ...     2839
UseSFitting                                  ... on

Time for X-Grid setup             =    3.843 sec


--------------------
CPCM SOLVATION MODEL
--------------------
CPCM parameters:
  Epsilon                                         ...      47.2000
  Refrac                                          ...       1.4790
  Rsolv                                           ...       1.3000
  Surface type                                    ... GAUSSIAN VDW
  Epsilon function type                           ...         CPCM
Radii:
 Radius for C  used is    3.8550 Bohr (=   2.0400 Ang.)
 Radius for N  used is    3.5149 Bohr (=   1.8600 Ang.)
 Radius for O  used is    3.4469 Bohr (=   1.8240 Ang.)
 Radius for H  used is    2.4944 Bohr (=   1.3200 Ang.)
Calculating surface                               ...        done! (  0.0s)
GEPOL surface points                              ...         2789
GEPOL Volume                                      ...    3340.7804
GEPOL Surface-area                                ...    1622.5263
Calculating surface distance matrix               ...        done! (  0.1s)
Performing Cholesky decomposition & store         ...        done! (  1.5s)
Overall time for CPCM initialization              ...                 1.6s
--------------
SCF ITERATIONS
--------------
ITER       Energy         Delta-E        Max-DP      RMS-DP      [F,P]     Damp
               ***  Starting incremental Fock matrix formation  ***
  0  -1487.9292477287   0.000000000000 0.19002945  0.00103741  0.2637356 0.7000
  1  -1488.2293846781  -0.300136949451 0.17082627  0.00105154  0.1053012 0.7000
                               ***Turning on DIIS***
  2  -1488.3551635247  -0.125778846586 0.27834085  0.00202980  0.0355495 0.0000
  3  -1488.5587877067  -0.203624182032 0.14576624  0.00081068  0.0528314 0.0000
  4  -1488.5957870381  -0.036999331320 0.05199041  0.00032210  0.0157115 0.0000
  5  -1488.5981128912  -0.002325853126 0.03017741  0.00012266  0.0068207 0.0000
                      *** Initiating the SOSCF procedure ***
                           *** Shutting down DIIS ***
                      *** Re-Reading the Fockian *** 
                      *** Removing any level shift *** 
ITER      Energy       Delta-E        Grad      Rot      Max-DP    RMS-DP
  6  -1488.59831431  -0.0002014197  0.000414  0.000414  0.005208  0.000030
               *** Restarting incremental Fock matrix formation ***
  7  -1488.59828305   0.0000312612  0.000130  0.000769  0.003833  0.000034
  8  -1488.59828167   0.0000013757  0.000289  0.000421  0.001556  0.000010
  9  -1488.59828697  -0.0000052942  0.000041  0.000120  0.000886  0.000006
 10  -1488.59828680   0.0000001705  0.000050  0.000064  0.000946  0.000002
 11  -1488.59828706  -0.0000002574  0.000008  0.000025  0.000362  0.000002
 12  -1488.59828707  -0.0000000141  0.000010  0.000015  0.000257  0.000001
                  ***Gradient check signals convergence***
              ***Rediagonalizing the Fockian in SOSCF/NRSCF***

               *****************************************************
               *                     SUCCESS                       *
               *           SCF CONVERGED AFTER  13 CYCLES          *
               *****************************************************

Old exchange energy                            =    -48.927071382 Eh
New exchange energy                            =    -48.927099842 Eh
Exchange energy change after final integration =     -0.000028460 Eh
Total energy after final integration           =  -1488.598315512 Eh
Final COS-X integration done in                =    30.483 sec

----------------
TOTAL SCF ENERGY
----------------

Total Energy       :        -1488.59831551 Eh          -40506.81949 eV

Components:
Nuclear Repulsion  :         3425.38365639 Eh           93209.42797 eV
Electronic Energy  :        -4913.98197190 Eh         -133716.24746 eV
One Electron Energy:        -8846.86656567 Eh         -240735.47801 eV
Two Electron Energy:         3932.88459377 Eh          107019.23055 eV
Max COSX asymmetry :            0.00000530 Eh               0.00014 eV
CPCM Dielectric    :           -0.06949670 Eh              -1.89110 eV

Virial components:
Potential Energy   :        -2970.61409378 Eh          -80834.51904 eV
Kinetic Energy     :         1482.01577827 Eh           40327.69955 eV
Virial Ratio       :            2.00444161


DFT components:
N(Alpha)           :      115.000059347877 electrons
N(Beta)            :      115.000059347877 electrons
N(Total)           :      230.000118695754 electrons
E(X)               :     -146.501050119369 Eh       
E(C)               :       -7.777350026593 Eh       
E(XC)              :     -154.278400145962 Eh       
DFET-embed. en.    :        0.000000000000 Eh       
CPCM Solvation Model Properties:
Surface-charge          :           -0.03406230
Charge-correction       :           -0.00057043 Eh              -0.01552 eV
Free-energy (cav+disp)  :  This term is not implemented in the current solvation scheme

---------------
SCF CONVERGENCE
---------------

  Last Energy change         ...    1.7671e-08  Tolerance :   1.0000e-08
  Last MAX-Density change    ...    2.3315e-15  Tolerance :   1.0000e-07
  Last RMS-Density change    ...    1.2365e-17  Tolerance :   5.0000e-09
  Last Orbital Gradient      ...    1.1444e-06  Tolerance :   1.0000e-05
  Last Orbital Rotation      ...    3.4521e-06  Tolerance :   1.0000e-05

             **** THE GBW FILE WAS UPDATED (IM_4-OMePh/IM_4-OMePh.gbw) ****
             **** DENSITY IM_4-OMePh/IM_4-OMePh.scfp WAS UPDATED ****
             **** ENERGY FILE WAS UPDATED (IM_4-OMePh/IM_4-OMePh.en.tmp) ****
             **** THE GBW FILE WAS UPDATED (IM_4-OMePh/IM_4-OMePh.gbw) ****
             **** DENSITY IM_4-OMePh/IM_4-OMePh.scfp WAS UPDATED ****
----------------
ORBITAL ENERGIES
----------------

  NO   OCC          E(Eh)            E(eV) 
   0   2.0000     -19.260717      -524.1108 
   1   2.0000     -19.246518      -523.7244 
   2   2.0000     -19.240021      -523.5476 
   3   2.0000     -19.200888      -522.4827 
   4   2.0000     -19.172666      -521.7148 
   5   2.0000     -19.168677      -521.6062 
   6   2.0000     -14.551411      -395.9640 
   7   2.0000     -14.508809      -394.8048 
   8   2.0000     -10.365773      -282.0670 
   9   2.0000     -10.310650      -280.5671 
  10   2.0000     -10.305857      -280.4366 
  11   2.0000     -10.302310      -280.3401 
  12   2.0000     -10.287549      -279.9384 
  13   2.0000     -10.282013      -279.7878 
  14   2.0000     -10.276320      -279.6329 
  15   2.0000     -10.269647      -279.4513 
  16   2.0000     -10.267061      -279.3809 
  17   2.0000     -10.264916      -279.3226 
  18   2.0000     -10.263730      -279.2903 
  19   2.0000     -10.263648      -279.2881 
  20   2.0000     -10.260114      -279.1919 
  21   2.0000     -10.244581      -278.7692 
  22   2.0000     -10.236917      -278.5607 
  23   2.0000     -10.232872      -278.4506 
  24   2.0000     -10.226403      -278.2746 
  25   2.0000     -10.224718      -278.2287 
  26   2.0000     -10.223659      -278.1999 
  27   2.0000     -10.223423      -278.1935 
  28   2.0000     -10.221335      -278.1367 
  29   2.0000     -10.220344      -278.1097 
  30   2.0000     -10.219704      -278.0923 
  31   2.0000     -10.218075      -278.0480 
  32   2.0000      -1.183690       -32.2099 
  33   2.0000      -1.154618       -31.4188 
  34   2.0000      -1.108085       -30.1525 
  35   2.0000      -1.100974       -29.9590 
  36   2.0000      -1.081173       -29.4202 
  37   2.0000      -1.058052       -28.7911 
  38   2.0000      -0.999785       -27.2055 
  39   2.0000      -0.906110       -24.6565 
  40   2.0000      -0.889541       -24.2056 
  41   2.0000      -0.884520       -24.0690 
  42   2.0000      -0.854270       -23.2459 
  43   2.0000      -0.841694       -22.9037 
  44   2.0000      -0.820141       -22.3172 
  45   2.0000      -0.790001       -21.4970 
  46   2.0000      -0.777109       -21.1462 
  47   2.0000      -0.772960       -21.0333 
  48   2.0000      -0.769719       -20.9451 
  49   2.0000      -0.752847       -20.4860 
  50   2.0000      -0.725046       -19.7295 
  51   2.0000      -0.715558       -19.4713 
  52   2.0000      -0.712252       -19.3814 
  53   2.0000      -0.706506       -19.2250 
  54   2.0000      -0.678635       -18.4666 
  55   2.0000      -0.638099       -17.3635 
  56   2.0000      -0.623782       -16.9740 
  57   2.0000      -0.616629       -16.7793 
  58   2.0000      -0.615559       -16.7502 
  59   2.0000      -0.607682       -16.5359 
  60   2.0000      -0.580167       -15.7871 
  61   2.0000      -0.567190       -15.4340 
  62   2.0000      -0.559983       -15.2379 
  63   2.0000      -0.555844       -15.1253 
  64   2.0000      -0.547896       -14.9090 
  65   2.0000      -0.538855       -14.6630 
  66   2.0000      -0.538396       -14.6505 
  67   2.0000      -0.525529       -14.3004 
  68   2.0000      -0.516987       -14.0679 
  69   2.0000      -0.510621       -13.8947 
  70   2.0000      -0.507680       -13.8147 
  71   2.0000      -0.504144       -13.7185 
  72   2.0000      -0.501151       -13.6370 
  73   2.0000      -0.493651       -13.4329 
  74   2.0000      -0.489949       -13.3322 
  75   2.0000      -0.485834       -13.2202 
  76   2.0000      -0.484092       -13.1728 
  77   2.0000      -0.480857       -13.0848 
  78   2.0000      -0.477344       -12.9892 
  79   2.0000      -0.470020       -12.7899 
  80   2.0000      -0.459225       -12.4961 
  81   2.0000      -0.453623       -12.3437 
  82   2.0000      -0.441799       -12.0220 
  83   2.0000      -0.439612       -11.9624 
  84   2.0000      -0.436027       -11.8649 
  85   2.0000      -0.430828       -11.7234 
  86   2.0000      -0.427773       -11.6403 
  87   2.0000      -0.422124       -11.4866 
  88   2.0000      -0.414616       -11.2823 
  89   2.0000      -0.413058       -11.2399 
  90   2.0000      -0.409451       -11.1417 
  91   2.0000      -0.398912       -10.8549 
  92   2.0000      -0.397063       -10.8046 
  93   2.0000      -0.391357       -10.6494 
  94   2.0000      -0.381782       -10.3888 
  95   2.0000      -0.379433       -10.3249 
  96   2.0000      -0.373327       -10.1587 
  97   2.0000      -0.370040       -10.0693 
  98   2.0000      -0.362145        -9.8545 
  99   2.0000      -0.346325        -9.4240 
 100   2.0000      -0.346038        -9.4162 
 101   2.0000      -0.340362        -9.2617 
 102   2.0000      -0.338073        -9.1994 
 103   2.0000      -0.335291        -9.1237 
 104   2.0000      -0.329126        -8.9560 
 105   2.0000      -0.319891        -8.7047 
 106   2.0000      -0.305964        -8.3257 
 107   2.0000      -0.292559        -7.9609 
 108   2.0000      -0.281879        -7.6703 
 109   2.0000      -0.270922        -7.3722 
 110   2.0000      -0.267245        -7.2721 
 111   2.0000      -0.256949        -6.9919 
 112   2.0000      -0.250216        -6.8087 
 113   2.0000      -0.237596        -6.4653 
 114   2.0000      -0.193380        -5.2621 
 115   0.0000      -0.082578        -2.2471 
 116   0.0000      -0.044661        -1.2153 
 117   0.0000      -0.022010        -0.5989 
[...]
 80:   1027.35   0.004115   20.79  0.001250  (-0.008367 -0.020880  0.027275)
 81:   1032.06   0.005933   29.98  0.001794  (-0.025841 -0.012895  0.030983)
 82:   1043.98   0.002578   13.03  0.000771  ( 0.006721  0.022593 -0.014668)
 83:   1047.97   0.000634    3.20  0.000189  (-0.000049 -0.000870  0.013707)
 84:   1060.28   0.002526   12.77  0.000744  (-0.026886 -0.004539 -0.000219)
 85:   1071.99   0.014799   74.79  0.004308  (-0.030961  0.052816  0.023663)
 86:   1077.61   0.042014  212.32  0.012167  (-0.059523 -0.044756  0.081368)
 87:   1084.41   0.008453   42.72  0.002432  (-0.024874  0.039276  0.016466)
 88:   1085.18   0.005650   28.55  0.001625  (-0.020364  0.019918 -0.028518)
 89:   1087.59   0.015605   78.86  0.004478  (-0.007498 -0.065746  0.009947)
 90:   1126.61   0.002576   13.02  0.000713  (-0.001790 -0.025747 -0.006878)
 91:   1133.81   0.002576   13.02  0.000709  ( 0.021525 -0.009889  0.012162)
 92:   1140.88   0.007428   37.54  0.002032  ( 0.010110 -0.043925 -0.000298)
 93:   1169.33   0.000391    1.98  0.000104  ( 0.009500 -0.003440 -0.001547)
 94:   1171.05   0.000083    0.42  0.000022  (-0.003950 -0.001578  0.002026)
 95:   1171.34   0.000190    0.96  0.000051  ( 0.003853 -0.001052  0.005886)
 96:   1172.77   0.001974    9.97  0.000525  (-0.008228  0.021261  0.002345)
 97:   1174.52   0.001850    9.35  0.000491  (-0.013407  0.012533 -0.012434)
 98:   1191.12   0.016398   82.87  0.004296  (-0.048401 -0.010306  0.042980)
 99:   1197.99   0.005516   27.87  0.001437  (-0.034977  0.004330  0.013950)
100:   1204.38   0.007403   37.41  0.001918  (-0.028222 -0.020714  0.026318)
101:   1206.46   0.006860   34.67  0.001774  (-0.002728  0.042024 -0.000944)
102:   1210.19   0.006876   34.75  0.001773  ( 0.004261  0.026865 -0.032145)
103:   1219.93   0.016138   81.56  0.004128  (-0.037440 -0.039796  0.033805)
104:   1227.49   0.005276   26.66  0.001341  ( 0.024442  0.010621  0.025121)
105:   1230.56   0.014228   71.90  0.003608  (-0.001140 -0.053681 -0.026929)
106:   1266.54   0.011756   59.41  0.002897  (-0.030450  0.036472  0.025282)
107:   1273.98   0.097333  491.88  0.023842  ( 0.046136  0.017546 -0.146306)
108:   1290.00   0.014601   73.79  0.003532  ( 0.028465 -0.049168 -0.017446)
109:   1292.70   0.044498  224.87  0.010742  (-0.089818  0.047041 -0.021487)
110:   1294.67   0.119796  605.40  0.028875  ( 0.091436  0.041715 -0.137021)
111:   1305.76   0.078457  396.49  0.018750  ( 0.127376 -0.043746 -0.024738)
112:   1318.09   0.006939   35.07  0.001643  ( 0.018904 -0.025368 -0.025336)
113:   1331.83   0.011602   58.63  0.002718  (-0.010039  0.044179 -0.025804)
114:   1344.74   0.016800   84.90  0.003899  ( 0.061860 -0.005053  0.006819)
115:   1349.71   0.041401  209.22  0.009572  (-0.076091  0.056522  0.024239)
116:   1368.69   0.021838  110.36  0.004979  (-0.064375  0.024566  0.015212)
117:   1379.02   0.003060   15.47  0.000693  ( 0.018865 -0.016457  0.008113)
118:   1385.86   0.004683   23.67  0.001055  ( 0.010184 -0.026125  0.016380)
119:   1418.50   0.002766   13.98  0.000609  (-0.002553  0.021438  0.011934)
120:   1424.83   0.051743  261.49  0.011333  (-0.017723 -0.058111  0.087417)
121:   1454.82   0.006276   31.71  0.001346  (-0.014932 -0.015514  0.029707)
122:   1464.93   0.002455   12.41  0.000523  ( 0.020757 -0.009483 -0.001501)
123:   1464.97   0.009907   50.07  0.002110  (-0.016019  0.026014 -0.034309)
124:   1468.73   0.007793   39.38  0.001656  (-0.033933 -0.007681  0.021104)
125:   1471.14   0.016294   82.34  0.003456  ( 0.021731  0.013933 -0.052820)
126:   1472.69   0.002442   12.34  0.000517  (-0.011125  0.003594 -0.019513)
127:   1473.73   0.003075   15.54  0.000651  (-0.022366 -0.009118  0.008235)
128:   1474.08   0.002919   14.75  0.000618  (-0.007073 -0.021796 -0.009640)
129:   1485.00   0.005379   27.19  0.001130  (-0.010408  0.010559 -0.030177)
130:   1486.61   0.007966   40.26  0.001672  (-0.037652 -0.000452  0.015950)
131:   1497.54   0.018526   93.63  0.003861  (-0.020569  0.039980 -0.042885)
132:   1524.19   0.148254  749.21  0.030354  ( 0.002238 -0.143182  0.099234)
133:   1528.15   0.035485  179.33  0.007246  (-0.026006 -0.056599  0.058023)
134:   1532.93   0.010221   51.66  0.002081  ( 0.003061  0.011620 -0.044005)
135:   1534.45   0.014881   75.20  0.003026  (-0.043875 -0.014908 -0.029651)
136:   1554.00   0.087259  440.97  0.017523  (-0.107944 -0.028206  0.071242)
137:   1625.50   0.001188    6.00  0.000228  (-0.012209 -0.008878 -0.000370)
138:   1642.42   0.002889   14.60  0.000549  ( 0.012834 -0.010202  0.016739)
139:   1647.41   0.003885   19.64  0.000736  (-0.012116  0.024180 -0.002136)
140:   1663.66   0.011395   57.58  0.002137  ( 0.019845 -0.020165  0.036564)
141:   1670.11   0.017217   87.01  0.003217  ( 0.044336  0.005396 -0.034960)
142:   1695.74   0.018796   94.99  0.003459  ( 0.005102 -0.024545 -0.053203)
143:   1780.95   0.112183  566.93  0.019657  ( 0.075808  0.097718  0.066041)
144:   3031.03   0.014518   73.37  0.001495  (-0.024009  0.022133  0.020698)
145:   3037.89   0.012899   65.18  0.001325  (-0.012863  0.033688 -0.004964)
146:   3061.33   0.001625    8.21  0.000166  ( 0.002899  0.003258 -0.012111)
147:   3071.41   0.006940   35.07  0.000705  (-0.017876 -0.007309  0.018224)
148:   3099.00   0.008916   45.06  0.000898  (-0.016736  0.004650 -0.024415)
149:   3107.76   0.003412   17.24  0.000343  ( 0.009312  0.015893 -0.001812)
150:   3109.63   0.006899   34.87  0.000692  ( 0.024318  0.007073 -0.007141)
151:   3154.79   0.003916   19.79  0.000387  ( 0.014798 -0.010938  0.006981)
152:   3161.93   0.004692   23.71  0.000463  (-0.016551 -0.010266  0.009152)
153:   3165.62   0.003833   19.37  0.000378  (-0.005627  0.001143 -0.018571)
154:   3188.28   0.002311   11.68  0.000226  (-0.001647 -0.010278 -0.010857)
155:   3188.69   0.002380   12.03  0.000233  ( 0.012932 -0.001545 -0.007956)
156:   3191.86   0.000568    2.87  0.000055  (-0.001291  0.006358  0.003661)
157:   3205.49   0.001902    9.61  0.000185  ( 0.004625  0.012774 -0.000789)
158:   3207.18   0.003036   15.34  0.000295  (-0.003439 -0.002866 -0.016594)
159:   3219.87   0.001156    5.84  0.000112  (-0.009592  0.000731  0.004414)
160:   3220.18   0.000868    4.39  0.000084  ( 0.002214  0.002328  0.008593)
161:   3225.74   0.002077   10.50  0.000201  ( 0.006520 -0.007737  0.009928)
162:   3226.83   0.008778   44.36  0.000849  ( 0.010964 -0.000484  0.026990)
163:   3230.49   0.000602    3.04  0.000058  ( 0.001081 -0.006548 -0.003754)
164:   3234.86   0.001568    7.93  0.000151  ( 0.000389 -0.010212 -0.006844)
165:   3238.33   0.000749    3.79  0.000072  (-0.001833  0.004453  0.007001)
166:   3243.81   0.001464    7.40  0.000141  ( 0.005068 -0.007731  0.007444)
167:   3247.59   0.000523    2.65  0.000050  ( 0.000325 -0.006194  0.003439)

* The epsilon (eps) is given for a Dirac delta lineshape.
** The dipole moment derivative (T) already includes vibrational overlap.

The first frequency considered to be a vibration is 6
The total number of vibrations considered is 162


--------------------------
THERMOCHEMISTRY AT 298.15K
--------------------------

Temperature         ... 298.15 K
Pressure            ... 1.00 atm
Total Mass          ... 436.46 AMU

Throughout the following assumptions are being made:
  (1) The electronic state is orbitally nondegenerate
  (2) There are no thermally accessible electronically excited states
  (3) Hindered rotations indicated by low frequency modes are not
      treated as such but are treated as vibrations and this may
      cause some error
  (4) All equations used are the standard statistical mechanics
      equations for an ideal gas
  (5) All vibrations are strictly harmonic

freq.      14.07  E(vib)   ...       0.57 
freq.      24.53  E(vib)   ...       0.56 
freq.      33.26  E(vib)   ...       0.55 
freq.      44.55  E(vib)   ...       0.53 
freq.      45.88  E(vib)   ...       0.53 
freq.      57.07  E(vib)   ...       0.51 
freq.      65.50  E(vib)   ...       0.50 
freq.      71.94  E(vib)   ...       0.50 
freq.      84.77  E(vib)   ...       0.48 
freq.      94.94  E(vib)   ...       0.47 
freq.     101.37  E(vib)   ...       0.46 
freq.     103.75  E(vib)   ...       0.46 
freq.     106.64  E(vib)   ...       0.45 
freq.     133.08  E(vib)   ...       0.42 
freq.     141.16  E(vib)   ...       0.41 
freq.     146.46  E(vib)   ...       0.41 
freq.     165.35  E(vib)   ...       0.39 
freq.     169.91  E(vib)   ...       0.38 
freq.     178.91  E(vib)   ...       0.37 
freq.     191.23  E(vib)   ...       0.36 
freq.     204.58  E(vib)   ...       0.35 
freq.     228.26  E(vib)   ...       0.32 
freq.     245.74  E(vib)   ...       0.31 
freq.     255.38  E(vib)   ...       0.30 
freq.     264.98  E(vib)   ...       0.29 
freq.     272.00  E(vib)   ...       0.29 
freq.     291.78  E(vib)   ...       0.27 
freq.     299.14  E(vib)   ...       0.26 
freq.     309.22  E(vib)   ...       0.26 
freq.     319.22  E(vib)   ...       0.25 
freq.     354.33  E(vib)   ...       0.22 
freq.     374.15  E(vib)   ...       0.21 
freq.     393.17  E(vib)   ...       0.20 
freq.     424.38  E(vib)   ...       0.18 
freq.     426.31  E(vib)   ...       0.18 
freq.     454.73  E(vib)   ...       0.16 
freq.     466.95  E(vib)   ...       0.16 
freq.     483.29  E(vib)   ...       0.15 
freq.     502.58  E(vib)   ...       0.14 
freq.     511.17  E(vib)   ...       0.14 
freq.     542.34  E(vib)   ...       0.12 
freq.     552.12  E(vib)   ...       0.12 
freq.     574.58  E(vib)   ...       0.11 
freq.     591.03  E(vib)   ...       0.10 
freq.     602.62  E(vib)   ...       0.10 
freq.     616.36  E(vib)   ...       0.09 
freq.     647.86  E(vib)   ...       0.09 
freq.     650.73  E(vib)   ...       0.08 
freq.     659.68  E(vib)   ...       0.08 
freq.     679.07  E(vib)   ...       0.08 
freq.     688.78  E(vib)   ...       0.07 
freq.     714.66  E(vib)   ...       0.07 
freq.     748.73  E(vib)   ...       0.06 
freq.     756.91  E(vib)   ...       0.06 
freq.     767.39  E(vib)   ...       0.06 
freq.     772.74  E(vib)   ...       0.05 
freq.     779.99  E(vib)   ...       0.05 
freq.     789.84  E(vib)   ...       0.05 
freq.     810.39  E(vib)   ...       0.05 
freq.     824.51  E(vib)   ...       0.04 
freq.     826.58  E(vib)   ...       0.04 
freq.     833.96  E(vib)   ...       0.04 
freq.     853.63  E(vib)   ...       0.04 
freq.     861.20  E(vib)   ...       0.04 
freq.     872.79  E(vib)   ...       0.04 
freq.     888.32  E(vib)   ...       0.04 
freq.     922.31  E(vib)   ...       0.03 
freq.     927.74  E(vib)   ...       0.03 
freq.     955.30  E(vib)   ...       0.03 
freq.     968.72  E(vib)   ...       0.03 
freq.     977.10  E(vib)   ...       0.03 
freq.     984.36  E(vib)   ...       0.02 
freq.     991.22  E(vib)   ...       0.02 
freq.    1005.05  E(vib)   ...       0.02 
freq.    1027.35  E(vib)   ...       0.02 
freq.    1032.06  E(vib)   ...       0.02 
freq.    1043.98  E(vib)   ...       0.02 
freq.    1047.97  E(vib)   ...       0.02 
freq.    1060.28  E(vib)   ...       0.02 
freq.    1071.99  E(vib)   ...       0.02 
freq.    1077.61  E(vib)   ...       0.02 
freq.    1084.41  E(vib)   ...       0.02 
freq.    1085.18  E(vib)   ...       0.02 
freq.    1087.59  E(vib)   ...       0.02 
freq.    1126.61  E(vib)   ...       0.01 
freq.    1133.81  E(vib)   ...       0.01 
freq.    1140.88  E(vib)   ...       0.01 
freq.    1169.33  E(vib)   ...       0.01 
freq.    1171.05  E(vib)   ...       0.01 
freq.    1171.34  E(vib)   ...       0.01 
freq.    1172.77  E(vib)   ...       0.01 
freq.    1174.52  E(vib)   ...       0.01 
freq.    1191.12  E(vib)   ...       0.01 
freq.    1197.99  E(vib)   ...       0.01 
freq.    1204.38  E(vib)   ...       0.01 
freq.    1206.46  E(vib)   ...       0.01 
freq.    1210.19  E(vib)   ...       0.01 
freq.    1219.93  E(vib)   ...       0.01 
freq.    1227.49  E(vib)   ...       0.01 
freq.    1230.56  E(vib)   ...       0.01 
freq.    1266.54  E(vib)   ...       0.01 
freq.    1273.98  E(vib)   ...       0.01 
freq.    1290.00  E(vib)   ...       0.01 
freq.    1292.70  E(vib)   ...       0.01 
freq.    1294.67  E(vib)   ...       0.01 
freq.    1305.76  E(vib)   ...       0.01 
freq.    1318.09  E(vib)   ...       0.01 
freq.    1331.83  E(vib)   ...       0.01 
freq.    1344.74  E(vib)   ...       0.01 
freq.    1349.71  E(vib)   ...       0.01 
freq.    1368.69  E(vib)   ...       0.01 
freq.    1379.02  E(vib)   ...       0.01 
freq.    1385.86  E(vib)   ...       0.00 
freq.    1418.50  E(vib)   ...       0.00 
freq.    1424.83  E(vib)   ...       0.00 
freq.    1454.82  E(vib)   ...       0.00 
freq.    1464.93  E(vib)   ...       0.00 
freq.    1464.97  E(vib)   ...       0.00 
freq.    1468.73  E(vib)   ...       0.00 
freq.    1471.14  E(vib)   ...       0.00 
freq.    1472.69  E(vib)   ...       0.00 
freq.    1473.73  E(vib)   ...       0.00 
freq.    1474.08  E(vib)   ...       0.00 
freq.    1485.00  E(vib)   ...       0.00 
freq.    1486.61  E(vib)   ...       0.00 
freq.    1497.54  E(vib)   ...       0.00 
freq.    1524.19  E(vib)   ...       0.00 
freq.    1528.15  E(vib)   ...       0.00 
freq.    1532.93  E(vib)   ...       0.00 
freq.    1534.45  E(vib)   ...       0.00 
freq.    1554.00  E(vib)   ...       0.00 
freq.    1625.50  E(vib)   ...       0.00 
freq.    1642.42  E(vib)   ...       0.00 
freq.    1647.41  E(vib)   ...       0.00 
freq.    1663.66  E(vib)   ...       0.00 
freq.    1670.11  E(vib)   ...       0.00 
freq.    1695.74  E(vib)   ...       0.00 
freq.    1780.95  E(vib)   ...       0.00 
freq.    3031.03  E(vib)   ...       0.00 
freq.    3037.89  E(vib)   ...       0.00 
freq.    3061.33  E(vib)   ...       0.00 
freq.    3071.41  E(vib)   ...       0.00 
freq.    3099.00  E(vib)   ...       0.00 
freq.    3107.76  E(vib)   ...       0.00 
freq.    3109.63  E(vib)   ...       0.00 
freq.    3154.79  E(vib)   ...       0.00 
freq.    3161.93  E(vib)   ...       0.00 
freq.    3165.62  E(vib)   ...       0.00 
freq.    3188.28  E(vib)   ...       0.00 
freq.    3188.69  E(vib)   ...       0.00 
freq.    3191.86  E(vib)   ...       0.00 
freq.    3205.49  E(vib)   ...       0.00 
freq.    3207.18  E(vib)   ...       0.00 
freq.    3219.87  E(vib)   ...       0.00 
freq.    3220.18  E(vib)   ...       0.00 
freq.    3225.74  E(vib)   ...       0.00 
freq.    3226.83  E(vib)   ...       0.00 
freq.    3230.49  E(vib)   ...       0.00 
freq.    3234.86  E(vib)   ...       0.00 
freq.    3238.33  E(vib)   ...       0.00 
freq.    3243.81  E(vib)   ...       0.00 
freq.    3247.59  E(vib)   ...       0.00 

------------
INNER ENERGY
------------

The inner energy is: U= E(el) + E(ZPE) + E(vib) + E(rot) + E(trans)
    E(el)   - is the total energy from the electronic structure calculation
              = E(kin-el) + E(nuc-el) + E(el-el) + E(nuc-nuc)
    E(ZPE)  - the the zero temperature vibrational energy from the frequency calculation
    E(vib)  - the the finite temperature correction to E(ZPE) due to population
              of excited vibrational states
    E(rot)  - is the rotational thermal energy
    E(trans)- is the translational thermal energy

Summary of contributions to the inner energy U:
Electronic energy                ...  -1488.67266214 Eh
Zero point energy                ...      0.44877488 Eh     281.61 kcal/mol
Thermal vibrational correction   ...      0.02622491 Eh      16.46 kcal/mol
Thermal rotational correction    ...      0.00141627 Eh       0.89 kcal/mol
Thermal translational correction ...      0.00141627 Eh       0.89 kcal/mol
-----------------------------------------------------------------------
Total thermal energy                  -1488.19482981 Eh


Summary of corrections to the electronic energy:
(perhaps to be used in another calculation)
Total thermal correction                  0.02905746 Eh      18.23 kcal/mol
Non-thermal (ZPE) correction              0.44877488 Eh     281.61 kcal/mol
-----------------------------------------------------------------------
Total correction                          0.47783233 Eh     299.84 kcal/mol


--------
ENTHALPY
--------

The enthalpy is H = U + kB*T
                kB is Boltzmann's constant
Total free energy                 ...  -1488.19482981 Eh 
Thermal Enthalpy correction       ...      0.00094421 Eh       0.59 kcal/mol
-----------------------------------------------------------------------
Total Enthalpy                    ...  -1488.19388560 Eh


Note: Only C1 symmetry has been detected, increase convergence thresholds 
      if your molecule has a higher symmetry. Symmetry factor of 1.0 is   
      used for the rotational entropy correction. 
 

Note: Rotational entropy computed according to Herzberg 
Infrared and Raman Spectra, Chapter V,1, Van Nostrand Reinhold, 1945 
Point Group:  C1, Symmetry Number:   1  
Rotational constants in cm-1:     0.006146     0.003847     0.003197 

Vibrational entropy computed according to the QRRHO of S. Grimme
Chem.Eur.J. 2012 18 9955


-------
ENTROPY
-------

The entropy contributions are T*S = T*(S(el)+S(vib)+S(rot)+S(trans))
     S(el)   - electronic entropy
     S(vib)  - vibrational entropy
     S(rot)  - rotational entropy
     S(trans)- translational entropy
The entropies will be listed as multiplied by the temperature to get
units of energy

Electronic entropy                ...      0.00000000 Eh      0.00 kcal/mol
Vibrational entropy               ...      0.04736062 Eh     29.72 kcal/mol
Rotational entropy                ...      0.01725212 Eh     10.83 kcal/mol
Translational entropy             ...      0.02095817 Eh     13.15 kcal/mol
-----------------------------------------------------------------------
Final entropy term                ...      0.08557091 Eh     53.70 kcal/mol

In case the symmetry of your molecule has not been determined correctly
or in case you have a reason to use a different symmetry number we print 
out the resulting rotational entropy values for sn=1,12 :
 --------------------------------------------------------
|  sn= 1 | S(rot)=       0.01725212 Eh     10.83 kcal/mol|
|  sn= 2 | S(rot)=       0.01659767 Eh     10.42 kcal/mol|
|  sn= 3 | S(rot)=       0.01621483 Eh     10.17 kcal/mol|
|  sn= 4 | S(rot)=       0.01594321 Eh     10.00 kcal/mol|
|  sn= 5 | S(rot)=       0.01573252 Eh      9.87 kcal/mol|
|  sn= 6 | S(rot)=       0.01556038 Eh      9.76 kcal/mol|
|  sn= 7 | S(rot)=       0.01541483 Eh      9.67 kcal/mol|
|  sn= 8 | S(rot)=       0.01528875 Eh      9.59 kcal/mol|
|  sn= 9 | S(rot)=       0.01517754 Eh      9.52 kcal/mol|
|  sn=10 | S(rot)=       0.01507806 Eh      9.46 kcal/mol|
|  sn=11 | S(rot)=       0.01498807 Eh      9.41 kcal/mol|
|  sn=12 | S(rot)=       0.01490592 Eh      9.35 kcal/mol|
 --------------------------------------------------------


-------------------
GIBBS FREE ENERGY
-------------------

The Gibbs free energy is G = H - T*S

Total enthalpy                    ...  -1488.19388560 Eh 
Total entropy correction          ...     -0.08557091 Eh    -53.70 kcal/mol
-----------------------------------------------------------------------
Final Gibbs free energy         ...  -1488.27945651 Eh

For completeness - the Gibbs free energy minus the electronic energy
G-E(el)                           ...      0.39320563 Eh    246.74 kcal/mol


Timings for individual modules:

Sum of individual times         ...     5974.984 sec (=  99.583 min)
GTO integral calculation        ...        6.317 sec (=   0.105 min)   0.1 %
SCF iterations                  ...      368.672 sec (=   6.145 min)   6.2 %
SCF Gradient evaluation         ...       62.269 sec (=   1.038 min)   1.0 %
Geometry relaxation             ...        0.367 sec (=   0.006 min)   0.0 %
Analytical frequency calculation...     5537.359 sec (=  92.289 min)  92.7 %
                             ****ORCA TERMINATED NORMALLY****
TOTAL RUN TIME: 0 days 1 hours 39 minutes 40 seconds 608 msec
