
                                 *****************
                                 * O   R   C   A *
                                 *****************

                                            #,                                       
                                            ###                                      
                                            ####                                     
                                            #####                                    
                                            ######                                   
                                           ########,                                 
                                     ,,################,,,,,                         
                               ,,#################################,,                 
                          ,,##########################################,,             
                       ,#########################################, ''#####,          
                    ,#############################################,,   '####,        
                  ,##################################################,,,,####,       
                ,###########''''           ''''###############################       
              ,#####''   ,,,,##########,,,,          '''####'''          '####       
            ,##' ,,,,###########################,,,                        '##       
           ' ,,###''''                  '''############,,,                           
         ,,##''                                '''############,,,,        ,,,,,,###''
      ,#''                                            '''#######################'''  
     '                                                          ''''####''''         
             ,#######,   #######,   ,#######,      ##                                
            ,#'     '#,  ##    ##  ,#'     '#,    #''#        ######   ,####,        
            ##       ##  ##   ,#'  ##            #'  '#       #        #'  '#        
            ##       ##  #######   ##           ,######,      #####,   #    #        
            '#,     ,#'  ##    ##  '#,     ,#' ,#      #,         ##   #,  ,#        
             '#######'   ##     ##  '#######'  #'      '#     #####' # '####'        



                  #######################################################
                  #                        -***-                        #
                  #          Department of theory and spectroscopy      #
                  #    Directorship and core code : Frank Neese         #
                  #        Max Planck Institute fuer Kohlenforschung    #
                  #                Kaiser Wilhelm Platz 1               #
                  #                 D-45470 Muelheim/Ruhr               #
                  #                      Germany                        #
                  #                                                     #
                  #                  All rights reserved                #
                  #                        -***-                        #
                  #######################################################


                         Program Version 5.0.4 -  RELEASE  -


 With contributions from (in alphabetic order):
   Daniel Aravena         : Magnetic Suceptibility
   Michael Atanasov       : Ab Initio Ligand Field Theory (pilot matlab implementation)
   Alexander A. Auer      : GIAO ZORA, VPT2 properties, NMR spectrum
   Ute Becker             : Parallelization
   Giovanni Bistoni       : ED, misc. LED, open-shell LED, HFLD
   Martin Brehm           : Molecular dynamics
   Dmytro Bykov           : SCF Hessian
   Vijay G. Chilkuri      : MRCI spin determinant printing, contributions to CSF-ICE
   Dipayan Datta          : RHF DLPNO-CCSD density
   Achintya Kumar Dutta   : EOM-CC, STEOM-CC
   Dmitry Ganyushin       : Spin-Orbit,Spin-Spin,Magnetic field MRCI
   Miquel Garcia          : C-PCM and meta-GGA Hessian, CC/C-PCM, Gaussian charge scheme
   Yang Guo               : DLPNO-NEVPT2, F12-NEVPT2, CIM, IAO-localization
   Andreas Hansen         : Spin unrestricted coupled pair/coupled cluster methods
   Benjamin Helmich-Paris : MC-RPA, TRAH-SCF, COSX integrals
   Lee Huntington         : MR-EOM, pCC
   Robert Izsak           : Overlap fitted RIJCOSX, COSX-SCS-MP3, EOM
   Marcus Kettner         : VPT2
   Christian Kollmar      : KDIIS, OOCD, Brueckner-CCSD(T), CCSD density, CASPT2, CASPT2-K
   Simone Kossmann        : Meta GGA functionals, TD-DFT gradient, OOMP2, MP2 Hessian
   Martin Krupicka        : Initial AUTO-CI
   Lucas Lang             : DCDCAS
   Marvin Lechner         : AUTO-CI (C++ implementation), FIC-MRCC
   Dagmar Lenk            : GEPOL surface, SMD
   Dimitrios Liakos       : Extrapolation schemes; Compound Job, initial MDCI parallelization
   Dimitrios Manganas     : Further ROCIS development; embedding schemes
   Dimitrios Pantazis     : SARC Basis sets
   Anastasios Papadopoulos: AUTO-CI, single reference methods and gradients
   Taras Petrenko         : DFT Hessian,TD-DFT gradient, ASA, ECA, R-Raman, ABS, FL, XAS/XES, NRVS
   Peter Pinski           : DLPNO-MP2, DLPNO-MP2 Gradient
   Christoph Reimann      : Effective Core Potentials
   Marius Retegan         : Local ZFS, SOC
   Christoph Riplinger    : Optimizer, TS searches, QM/MM, DLPNO-CCSD(T), (RO)-DLPNO pert. Triples
   Tobias Risthaus        : Range-separated hybrids, TD-DFT gradient, RPA, STAB
   Michael Roemelt        : Original ROCIS implementation
   Masaaki Saitow         : Open-shell DLPNO-CCSD energy and density
   Barbara Sandhoefer     : DKH picture change effects
   Avijit Sen             : IP-ROCIS
   Kantharuban Sivalingam : CASSCF convergence, NEVPT2, FIC-MRCI
   Bernardo de Souza      : ESD, SOC TD-DFT
   Georgi Stoychev        : AutoAux, RI-MP2 NMR, DLPNO-MP2 response
   Willem Van den Heuvel  : Paramagnetic NMR
   Boris Wezisla          : Elementary symmetry handling
   Frank Wennmohs         : Technical directorship


 We gratefully acknowledge several colleagues who have allowed us to
 interface, adapt or use parts of their codes:
   Stefan Grimme, W. Hujo, H. Kruse, P. Pracht,  : VdW corrections, initial TS optimization,
                  C. Bannwarth, S. Ehlert          DFT functionals, gCP, sTDA/sTD-DF
   Ed Valeev, F. Pavosevic, A. Kumar             : LibInt (2-el integral package), F12 methods
   Garnet Chan, S. Sharma, J. Yang, R. Olivares  : DMRG
   Ulf Ekstrom                                   : XCFun DFT Library
   Mihaly Kallay                                 : mrcc  (arbitrary order and MRCC methods)
   Jiri Pittner, Ondrej Demel                    : Mk-CCSD
   Frank Weinhold                                : gennbo (NPA and NBO analysis)
   Christopher J. Cramer and Donald G. Truhlar   : smd solvation model
   Lars Goerigk                                  : TD-DFT with DH, B97 family of functionals
   V. Asgeirsson, H. Jonsson                     : NEB implementation
   FAccTs GmbH                                   : IRC, NEB, NEB-TS, DLPNO-Multilevel, CI-OPT
                                                   MM, QMMM, 2- and 3-layer-ONIOM, Crystal-QMMM,
                                                   LR-CPCM, SF, NACMEs, symmetry and pop. for TD-DFT,
                                                   nearIR, NL-DFT gradient (VV10), updates on ESD,
                                                   ML-optimized integration grids
   S Lehtola, MJT Oliveira, MAL Marques          : LibXC Library
   Liviu Ungur et al                             : ANISO software


 Your calculation uses the libint2 library for the computation of 2-el integrals
 For citations please refer to: http://libint.valeyev.net

 Your ORCA version has been built with support for libXC version: 5.1.0
 For citations please refer to: https://tddft.org/programs/libxc/

 This ORCA versions uses:
   CBLAS   interface :  Fast vector & matrix operations
   LAPACKE interface :  Fast linear algebra routines
   SCALAPACK package :  Parallel linear algebra routines
   Shared memory     :  Shared parallel matrices
   BLAS/LAPACK       :  OpenBLAS 0.3.15  USE64BITINT DYNAMIC_ARCH NO_AFFINITY Haswell SINGLE_THREADED
        Core in use  :  Haswell
   Copyright (c) 2011-2014, The OpenBLAS Project


Your calculation utilizes the atom-pairwise dispersion correction
with the Becke-Johnson damping scheme (D3BJ)
Cite in your paper:
S.Grimme, S.Ehrlich, L.Goerigk, J Comput Chem, (2011), 32, 1456–1465 
S.Grimme, J.Antony, S.Ehrlich and H.Krieg, J.Chem.Phys., 132, (2010), 154104 
   

================================================================================

----- Orbital basis set information -----
Your calculation utilizes the basis: def2-TZVP
   F. Weigend and R. Ahlrichs, Phys. Chem. Chem. Phys. 7, 3297 (2005).

----- AuxJ basis set information -----
Your calculation utilizes the auxiliary basis: def2/J
   F. Weigend, Phys. Chem. Chem. Phys. 8, 1057 (2006).

================================================================================
                                        WARNINGS
                       Please study these warnings very carefully!
================================================================================


WARNING: Geometry Optimization
  ===> : Switching off AutoStart
         For restart on a previous wavefunction, please use MOREAD

INFO   : the flag for use of the SHARK integral package has been found!

================================================================================
                                       INPUT FILE
================================================================================
NAME = IM_4-NO2Ph/IM_4-NO2Ph.inp
|  1> %pal nprocs 24 end
|  2> %maxcore 3500
|  3> ! PBE0 D3BJ def2-TZVP TightSCF OPT FREQ TightOpt
|  4> ! CPCM(dmso)
|  5> %scf
|  6> MaxIter 800
|  7> end
|  8> 
|  9> %geom
| 10> MaxIter 800
| 11> MaxStep 0.2
| 12> end
| 13> 
| 14> *xyz 0 1
| 15> C       1.70780100      1.85769000      3.75612100
| 16> C       1.98899200      0.50003000      3.69169300
| 17> C       2.13217900     -0.09464500      2.46253300
| 18> N       2.00942400      0.62549500      1.33490100
| 19> C       1.73842200      1.94080900      1.37391700
| 20> C       1.58516100      2.58187100      2.58206900
| 21> C       2.05822300     -0.06924800      0.04613700
| 22> C       3.04440600      0.60849400     -0.88840700
| 23> O       3.76185300      1.52591800     -0.57685400
| 24> O       3.12871600     -0.06251000     -2.02036300
| 25> C       4.05095500      0.44638700     -2.98712600
| 26> H       1.58708400      2.34554700      4.71559100
| 27> H       2.34021100     -1.14912600      2.33883200
| 28> H       1.68444600      2.44647300      0.42117900
| 29> H       1.37007300      3.64167200      2.58852300
| 30> H       2.50177600     -1.04639800      0.24644300
| 31> H       5.06457400      0.44018400     -2.58640800
| 32> H       3.77232200      1.46141200     -3.27110800
| 33> H       2.09612800     -0.10197300      4.58351700
| 34> C      -4.01021700      0.22064000      1.69724300
| 35> C      -3.55231200      1.51416600      1.47224000
| 36> C      -2.38642900      1.71346800      0.76973700
| 37> C      -1.62434400      0.62929000      0.28268100
| 38> C      -2.12478400     -0.66745000      0.53759400
| 39> C      -3.29603800     -0.87477700      1.22800600
| 40> C      -0.36515300      0.77348700     -0.40917500
| 41> C       0.60000200     -0.37628300     -0.41372100
| 42> C       0.54972500     -1.26188600     -1.63974800
| 43> C       0.00829000     -0.83752400     -2.84180500
| 44> C      -0.05159500     -1.67618600     -3.94718100
| 45> C       0.43122300     -2.97004400     -3.84610600
| 46> C       0.95989500     -3.43078200     -2.64726200
| 47> C       1.01449300     -2.58265000     -1.54715900
| 48> O       1.50009000     -2.95537200     -0.33922300
| 49> C       1.99392700     -4.27327900     -0.18873800
| 50> N      -0.06480000      1.88483400     -1.11515400
| 51> O      -0.85894000      2.84578300     -1.23425100
| 52> H      -4.11009000      2.35640000      1.85867400
| 53> H      -2.03803100      2.71987900      0.60266000
| 54> H      -1.60348600     -1.53633500      0.15706900
| 55> H      -3.66911100     -1.87628200      1.39308400
| 56> H       0.26993000     -1.01393700      0.41143000
| 57> H      -0.37041900      0.17369400     -2.91850700
| 58> H      -0.47516200     -1.31709100     -4.87753200
| 59> H       0.39344600     -3.63792500     -4.69932000
| 60> H       1.32139700     -4.44782100     -2.57675100
| 61> H       2.33478400     -4.34990200      0.84166200
| 62> H       2.83189000     -4.45852800     -0.86630500
| 63> H       1.20793700     -5.01140700     -0.37043900
| 64> O       1.06845200      1.95689300     -1.67478700
| 65> H       3.97524500     -0.22070000     -3.84167100
| 66> N      -5.23558000      0.01428200      2.41771400
| 67> O      -5.87166100      0.99312700      2.77851200
| 68> O      -5.59520100     -1.13188700      2.64142000
| 69> *
| 70> 
| 71>                          ****END OF INPUT****
================================================================================

                       *****************************
                       * Geometry Optimization Run *
                       *****************************

Geometry optimization settings:
Update method            Update   .... BFGS
Choice of coordinates    CoordSys .... Z-matrix Internals
Initial Hessian          InHess   .... Almoef's Model

Convergence Tolerances:
Energy Change            TolE     ....  1.0000e-06 Eh
Max. Gradient            TolMAXG  ....  1.0000e-04 Eh/bohr
RMS Gradient             TolRMSG  ....  3.0000e-05 Eh/bohr
Max. Displacement        TolMAXD  ....  1.0000e-03 bohr
RMS Displacement         TolRMSD  ....  6.0000e-04 bohr
Strict Convergence                ....  False
------------------------------------------------------------------------------
                        ORCA OPTIMIZATION COORDINATE SETUP
------------------------------------------------------------------------------

The optimization will be done in new redundant internal coordinates
Making redundant internal coordinates   ...  (new redundants) done
Evaluating the initial hessian          ...  (Almloef) done
Evaluating the coordinates              ...  done
Calculating the B-matrix                .... done
Calculating the G-matrix                .... done
Diagonalizing the G-matrix              .... done
Small eigenvalue found = 2.420e-03
Small eigenvalue found = 2.717e-03
Small eigenvalue found = 4.098e-03
Small eigenvalue found = 6.083e-03
Small eigenvalue found = 8.861e-03
Small eigenvalue found = 9.371e-03
Small eigenvalue found = 1.301e-02
Small eigenvalue found = 1.822e-02
Small eigenvalue found = 2.638e-02
Small eigenvalue found = 2.970e-02
The first mode is                       ....  119
The number of degrees of freedom        ....  156

    -----------------------------------------------------------------
                    Redundant Internal Coordinates


    -----------------------------------------------------------------
         Definition                    Initial Value    Approx d2E/dq
    -----------------------------------------------------------------
      1. B(C   1,C   0)                  1.3880         0.629474   
      2. B(C   2,C   1)                  1.3729         0.665197   
      3. B(N   3,C   2)                  1.3436         0.663629   
      4. B(C   4,N   3)                  1.3435         0.663819   
      5. B(C   5,C   4)                  1.3763         0.657153   
      6. B(C   5,C   0)                  1.3849         0.636673   
      7. B(C   6,N   3)                  1.4649         0.424973   
      8. B(C   7,C   6)                  1.5183         0.389968   
      9. B(O   8,C   7)                  1.2056         1.101742   
     10. B(O   9,C   7)                  1.3186         0.727455   
     11. B(C  10,O   9)                  1.4297         0.483600   
     12. B(H  11,C   0)                  1.0831         0.369311   
     13. B(H  12,C   2)                  1.0819         0.370975   
     14. B(H  13,C   4)                  1.0800         0.373626   
     15. B(H  14,C   5)                  1.0814         0.371623   
     16. B(H  15,C   6)                  1.0916         0.357933   
     17. B(H  16,C  10)                  1.0900         0.360138   
     18. B(H  17,C  10)                  1.0902         0.359822   
     19. B(H  18,C   1)                  1.0813         0.371778   
     20. B(C  20,C  19)                  1.3905         0.623631   
     21. B(C  21,C  20)                  1.3757         0.658527   
     22. B(C  22,C  21)                  1.4119         0.576516   
     23. B(C  23,C  22)                  1.4131         0.573886   
     24. B(C  24,C  23)                  1.3753         0.659430   
     25. B(C  24,C  19)                  1.3893         0.626390   
     26. B(C  25,C  22)                  1.4440         0.512447   
     27. B(C  26,C  25)                  1.5012         0.415309   
     28. B(C  26,C   6)                  1.5595         0.335164   
     29. B(C  27,C  26)                  1.5133         0.397266   
     30. B(C  28,C  27)                  1.3850         0.636420   
     31. B(C  29,C  28)                  1.3888         0.627531   
     32. B(C  30,C  29)                  1.3847         0.637077   
     33. B(C  31,C  30)                  1.3889         0.627362   
     34. B(C  32,C  31)                  1.3902         0.624437   
     35. B(C  32,C  27)                  1.4032         0.595199   
     36. B(O  33,C  32)                  1.3542         0.638271   
     37. B(C  34,O  33)                  1.4154         0.509715   
     38. B(N  35,C  25)                  1.3504         0.647110   
     39. B(O  36,N  35)                  1.2523         0.831185   
     40. B(H  37,C  20)                  1.0816         0.371419   
     41. B(H  38,C  21)                  1.0780         0.376281   
     42. B(H  39,C  23)                  1.0824         0.370344   
     43. B(H  40,C  24)                  1.0814         0.371645   
     44. B(H  41,C  26)                  1.0938         0.355093   
     45. B(H  42,C  28)                  1.0825         0.370122   
     46. B(H  43,C  29)                  1.0835         0.368840   
     47. B(H  44,C  30)                  1.0842         0.367870   
     48. B(H  45,C  31)                  1.0817         0.371281   
     49. B(H  46,C  34)                  1.0880         0.362734   
     50. B(H  47,C  34)                  1.0934         0.355587   
     51. B(H  48,C  34)                  1.0934         0.355568   
     52. B(O  49,N  35)                  1.2660         0.790530   
     53. B(H  50,C  10)                  1.0867         0.364451   
     54. B(N  51,C  19)                  1.4364         0.471938   
     55. B(O  52,N  51)                  1.2218         0.929584   
     56. B(O  53,N  51)                  1.2219         0.929356   
     57. A(C   1,C   0,H  11)          120.2835         0.355334   
     58. A(C   1,C   0,C   5)          119.3466         0.437338   
     59. A(C   5,C   0,H  11)          120.3699         0.356021   
     60. A(C   0,C   1,H  18)          121.7601         0.355736   
     61. A(C   2,C   1,H  18)          119.1377         0.359090   
     62. A(C   0,C   1,C   2)          119.1020         0.440811   
     63. A(C   1,C   2,N   3)          120.6434         0.442114   
     64. A(C   1,C   2,H  12)          122.9958         0.358957   
     65. A(N   3,C   2,H  12)          116.3599         0.356593   
     66. A(C   2,N   3,C   4)          121.2512         0.439044   
     67. A(C   2,N   3,C   6)          118.7583         0.405434   
     68. A(C   4,N   3,C   6)          119.7734         0.405455   
     69. A(N   3,C   4,C   5)          120.2638         0.441166   
     70. A(N   3,C   4,H  13)          116.2865         0.357042   
     71. A(C   5,C   4,H  13)          123.4201         0.358649   
     72. A(C   0,C   5,H  14)          121.6695         0.356398   
     73. A(C   4,C   5,H  14)          118.9388         0.358321   
     74. A(C   0,C   5,C   4)          119.3917         0.440748   
     75. A(N   3,C   6,H  15)          106.0588         0.328964   
     76. A(N   3,C   6,C   7)          110.5756         0.371886   
     77. A(C   7,C   6,H  15)          104.3941         0.326293   
     78. A(C   7,C   6,C  26)          120.9117         0.359311   
     79. A(H  15,C   6,C  26)          104.9395         0.318297   
     80. A(N   3,C   6,C  26)          108.7618         0.362354   
     81. A(C   6,C   7,O   9)          110.0459         0.408484   
     82. A(C   6,C   7,O   8)          124.5518         0.439955   
     83. A(O   8,C   7,O   9)          124.8226         0.489821   
     84. A(C   7,O   9,C  10)          116.1416         0.421670   
     85. A(H  16,C  10,H  17)          109.8000         0.290809   
     86. A(O   9,C  10,H  17)          110.0395         0.336381   
     87. A(O   9,C  10,H  16)          110.4408         0.336430   
     88. A(O   9,C  10,H  50)          105.5622         0.337098   
     89. A(H  16,C  10,H  50)          110.5110         0.291394   
     90. A(H  17,C  10,H  50)          110.4187         0.291353   
     91. A(C  20,C  19,C  24)          120.6330         0.435325   
     92. A(C  20,C  19,N  51)          119.7185         0.411155   
     93. A(C  24,C  19,N  51)          119.6482         0.411477   
     94. A(C  19,C  20,H  37)          119.7857         0.355116   
     95. A(C  19,C  20,C  21)          119.7678         0.439269   
     96. A(C  21,C  20,H  37)          120.4439         0.358415   
     97. A(C  20,C  21,C  22)          121.4904         0.433097   
     98. A(C  20,C  21,H  38)          119.2278         0.359210   
     99. A(C  22,C  21,H  38)          119.2728         0.351197   
    100. A(C  23,C  22,C  25)          119.1362         0.413771   
    101. A(C  21,C  22,C  25)          124.0072         0.414107   
    102. A(C  21,C  22,C  23)          116.8249         0.422547   
    103. A(C  24,C  23,H  39)          117.7517         0.358322   
    104. A(C  22,C  23,H  39)          120.1764         0.349984   
    105. A(C  22,C  23,C  24)          122.0377         0.432847   
    106. A(C  19,C  24,C  23)          119.2403         0.439728   
    107. A(C  23,C  24,H  40)          120.6666         0.358536   
    108. A(C  19,C  24,H  40)          120.0863         0.355418   
    109. A(C  26,C  25,N  35)          119.0603         0.404597   
    110. A(C  22,C  25,N  35)          121.7769         0.419973   
    111. A(C  22,C  25,C  26)          119.0537         0.390847   
    112. A(C  25,C  26,C  27)          115.4249         0.373945   
    113. A(C   6,C  26,C  27)          112.6551         0.360448   
    114. A(C   6,C  26,C  25)          116.7106         0.363190   
    115. A(C  27,C  26,H  41)          105.0699         0.326862   
    116. A(C  25,C  26,H  41)          104.4895         0.329265   
    117. A(C   6,C  26,H  41)          100.0488         0.317884   
    118. A(C  28,C  27,C  32)          118.3693         0.432921   
    119. A(C  26,C  27,C  32)          119.1028         0.398126   
    120. A(C  26,C  27,C  28)          122.4697         0.402847   
    121. A(C  27,C  28,C  29)          121.5083         0.437063   
    122. A(C  29,C  28,H  42)          119.5124         0.355280   
    123. A(C  27,C  28,H  42)          118.9783         0.356130   
    124. A(C  28,C  29,C  30)          119.4143         0.437145   
    125. A(C  30,C  29,H  43)          120.5757         0.355982   
    126. A(C  28,C  29,H  43)          120.0099         0.355071   
    127. A(C  29,C  30,C  31)          120.3777         0.437124   
    128. A(C  31,C  30,H  44)          119.2217         0.354897   
    129. A(C  29,C  30,H  44)          120.3986         0.355823   
    130. A(C  30,C  31,C  32)          119.7114         0.435548   
    131. A(C  32,C  31,H  45)          120.5925         0.355171   
    132. A(C  30,C  31,H  45)          119.6955         0.355453   
    133. A(C  31,C  32,O  33)          123.5075         0.434040   
    134. A(C  27,C  32,O  33)          115.8930         0.430315   
    135. A(C  27,C  32,C  31)          120.5990         0.431445   
    136. A(C  32,O  33,C  34)          118.4389         0.415834   
    137. A(H  47,C  34,H  48)          109.4835         0.289688   
    138. A(H  46,C  34,H  48)          109.5742         0.290594   
    139. A(O  33,C  34,H  48)          111.1051         0.338671   
    140. A(H  46,C  34,H  47)          109.5626         0.290596   
    141. A(O  33,C  34,H  47)          111.0540         0.338674   
    142. A(O  33,C  34,H  46)          105.9957         0.339801   
    143. A(C  25,N  35,O  36)          122.6946         0.452150   
    144. A(O  36,N  35,O  49)          118.8129         0.465793   
    145. A(C  25,N  35,O  49)          118.4921         0.448051   
    146. A(O  52,N  51,O  53)          122.9688         0.489871   
    147. A(C  19,N  51,O  53)          118.5329         0.435761   
    148. A(C  19,N  51,O  52)          118.4982         0.435780   
    149. D(C   2,C   1,C   0,H  11)    179.7561         0.027470   
    150. D(H  18,C   1,C   0,H  11)     -0.1094         0.027470   
    151. D(H  18,C   1,C   0,C   5)    179.7997         0.027470   
    152. D(C   2,C   1,C   0,C   5)     -0.3348         0.027470   
    153. D(H  12,C   2,C   1,C   0)   -179.2831         0.030912   
    154. D(N   3,C   2,C   1,C   0)      0.3411         0.030912   
    155. D(N   3,C   2,C   1,H  18)   -179.7898         0.030912   
    156. D(H  12,C   2,C   1,H  18)      0.5860         0.030912   
    157. D(C   6,N   3,C   2,C   1)   -174.9363         0.036074   
    158. D(C   4,N   3,C   2,C   1)     -0.3017         0.036074   
    159. D(C   6,N   3,C   2,H  12)      4.7119         0.036074   
    160. D(C   4,N   3,C   2,H  12)    179.3465         0.036074   
    161. D(C   5,C   4,N   3,C   6)    174.8328         0.036097   
    162. D(H  13,C   4,N   3,C   2)    178.3406         0.036097   
    163. D(C   5,C   4,N   3,C   2)      0.2519         0.036097   
    164. D(H  13,C   4,N   3,C   6)     -7.0785         0.036097   
    165. D(C   0,C   5,C   4,H  13)   -178.1922         0.030115   
    166. D(H  14,C   5,C   4,H  13)      1.8856         0.030115   
    167. D(H  14,C   5,C   0,H  11)      0.1175         0.028144   
    168. D(C   4,C   5,C   0,H  11)   -179.8025         0.028144   
    169. D(H  14,C   5,C   4,N   3)    179.8325         0.030115   
    170. D(C   0,C   5,C   4,N   3)     -0.2453         0.030115   
    171. D(C   4,C   5,C   0,C   1)      0.2885         0.028144   
    172. D(H  14,C   5,C   0,C   1)   -179.7915         0.028144   
    173. D(C  26,C   6,N   3,C   4)    -79.6956         0.015398   
    174. D(H  15,C   6,N   3,C   2)    -17.3818         0.015398   
    175. D(H  15,C   6,N   3,C   4)    167.9024         0.015398   
    176. D(C  26,C   6,N   3,C   2)     95.0202         0.015398   
    177. D(C   7,C   6,N   3,C   4)     55.2979         0.015398   
    178. D(C   7,C   6,N   3,C   2)   -129.9864         0.015398   
    179. D(O   8,C   7,C   6,N   3)      5.3300         0.011314   
    180. D(O   9,C   7,C   6,C  26)    -54.3616         0.011314   
    181. D(O   9,C   7,C   6,H  15)     63.2767         0.011314   
    182. D(O   9,C   7,C   6,N   3)    176.9419         0.011314   
    183. D(O   8,C   7,C   6,C  26)    134.0265         0.011314   
    184. D(O   8,C   7,C   6,H  15)   -108.3352         0.011314   
    185. D(C  10,O   9,C   7,O   8)     -6.9235         0.039933   
    186. D(C  10,O   9,C   7,C   6)   -178.5077         0.039933   
    187. D(H  17,C  10,O   9,C   7)    -60.3281         0.018455   
    188. D(H  50,C  10,O   9,C   7)   -179.4767         0.018455   
    189. D(H  16,C  10,O   9,C   7)     61.0540         0.018455   
    190. D(H  37,C  20,C  19,C  24)   -178.9289         0.026931   
    191. D(C  21,C  20,C  19,N  51)   -179.2945         0.026931   
    192. D(C  21,C  20,C  19,C  24)      0.4946         0.026931   
    193. D(H  37,C  20,C  19,N  51)      1.2820         0.026931   
    194. D(H  38,C  21,C  20,H  37)     -0.4148         0.030251   
    195. D(H  38,C  21,C  20,C  19)   -179.8344         0.030251   
    196. D(C  22,C  21,C  20,H  37)    178.4851         0.030251   
    197. D(C  22,C  21,C  20,C  19)     -0.9345         0.030251   
    198. D(C  25,C  22,C  21,H  38)      1.7036         0.022822   
    199. D(C  25,C  22,C  21,C  20)   -177.1959         0.022822   
    200. D(C  23,C  22,C  21,H  38)    179.6312         0.022822   
    201. D(C  23,C  22,C  21,C  20)      0.7318         0.022822   
    202. D(H  39,C  23,C  22,C  25)     -4.2440         0.022605   
    203. D(H  39,C  23,C  22,C  21)    177.7227         0.022605   
    204. D(C  24,C  23,C  22,C  25)    177.9315         0.022605   
    205. D(C  24,C  23,C  22,C  21)     -0.1018         0.022605   
    206. D(C  19,C  24,C  23,C  22)     -0.3135         0.030340   
    207. D(H  40,C  24,C  19,N  51)      0.8516         0.027185   
    208. D(H  40,C  24,C  19,C  20)   -178.9376         0.027185   
    209. D(C  23,C  24,C  19,N  51)    179.9112         0.027185   
    210. D(C  19,C  24,C  23,H  39)   -178.1884         0.030340   
    211. D(C  23,C  24,C  19,C  20)      0.1220         0.027185   
    212. D(H  40,C  24,C  23,H  39)      0.8657         0.030340   
    213. D(H  40,C  24,C  23,C  22)    178.7406         0.030340   
    214. D(N  35,C  25,C  22,C  23)    154.7926         0.017899   
    215. D(N  35,C  25,C  22,C  21)    -27.3247         0.017899   
    216. D(C  26,C  25,C  22,C  23)    -21.3724         0.017899   
    217. D(C  26,C  25,C  22,C  21)    156.5104         0.017899   
    218. D(H  41,C  26,C  25,N  35)    165.5960         0.012763   
    219. D(H  41,C  26,C  25,C  22)    -18.1336         0.012763   
    220. D(C  27,C  26,C  25,N  35)    -79.5579         0.012763   
    221. D(C  27,C  26,C  25,C  22)     96.7125         0.012763   
    222. D(C   6,C  26,C  25,N  35)     56.2191         0.012763   
    223. D(C   6,C  26,C  25,C  22)   -127.5105         0.012763   
    224. D(H  41,C  26,C   6,H  15)     52.2373         0.009120   
    225. D(H  41,C  26,C   6,C   7)    169.6014         0.009120   
    226. D(H  41,C  26,C   6,N   3)    -60.9041         0.009120   
    227. D(C  27,C  26,C   6,H  15)    -58.8684         0.009120   
    228. D(C  27,C  26,C   6,C   7)     58.4957         0.009120   
    229. D(C  27,C  26,C   6,N   3)   -172.0098         0.009120   
    230. D(C  25,C  26,C   6,H  15)    164.1765         0.009120   
    231. D(C  25,C  26,C   6,C   7)    -78.4594         0.009120   
    232. D(C  25,C  26,C   6,N   3)     51.0351         0.009120   
    233. D(C  32,C  27,C  26,H  41)    -42.2019         0.011720   
    234. D(C  32,C  27,C  26,C  25)   -156.7148         0.011720   
    235. D(C  32,C  27,C  26,C   6)     65.7486         0.011720   
    236. D(C  28,C  27,C  26,H  41)    134.9766         0.011720   
    237. D(C  28,C  27,C  26,C  25)     20.4637         0.011720   
    238. D(C  28,C  27,C  26,C   6)   -117.0729         0.011720   
    239. D(H  42,C  28,C  27,C  32)    178.8537         0.028120   
    240. D(H  42,C  28,C  27,C  26)      1.6554         0.028120   
    241. D(C  29,C  28,C  27,C  32)     -1.5064         0.028120   
    242. D(C  29,C  28,C  27,C  26)   -178.7046         0.028120   
    243. D(H  43,C  29,C  28,H  42)     -0.0093         0.027290   
    244. D(H  43,C  29,C  28,C  27)   -179.6473         0.027290   
    245. D(C  30,C  29,C  28,H  42)   -179.8850         0.027290   
    246. D(C  30,C  29,C  28,C  27)      0.4770         0.027290   
    247. D(H  44,C  30,C  29,H  43)      0.1968         0.028182   
    248. D(H  44,C  30,C  29,C  28)   -179.9283         0.028182   
    249. D(C  31,C  30,C  29,H  43)   -179.2894         0.028182   
    250. D(C  31,C  30,C  29,C  28)      0.5855         0.028182   
    251. D(H  45,C  31,C  30,H  44)     -0.3369         0.027275   
    252. D(H  45,C  31,C  30,C  29)    179.1553         0.027275   
    253. D(C  32,C  31,C  30,H  44)    179.9367         0.027275   
    254. D(C  32,C  31,C  30,C  29)     -0.5711         0.027275   
    255. D(O  33,C  32,C  31,H  45)     -0.4655         0.027005   
    256. D(O  33,C  32,C  31,C  30)    179.2584         0.027005   
    257. D(C  27,C  32,C  31,H  45)    179.7838         0.027005   
    258. D(C  27,C  32,C  31,C  30)     -0.4924         0.027005   
    259. D(O  33,C  32,C  27,C  28)   -178.2604         0.024401   
    260. D(O  33,C  32,C  27,C  26)     -0.9657         0.024401   
    261. D(C  31,C  32,C  27,C  28)      1.5086         0.024401   
    262. D(C  31,C  32,C  27,C  26)    178.8033         0.024401   
    263. D(C  34,O  33,C  32,C  31)      0.7702         0.030020   
    264. D(C  34,O  33,C  32,C  27)   -179.4682         0.030020   
    265. D(H  48,C  34,O  33,C  32)    -61.4815         0.020567   
    266. D(H  47,C  34,O  33,C  32)     60.6368         0.020567   
    267. D(H  46,C  34,O  33,C  32)    179.5569         0.020567   
    268. D(O  49,N  35,C  25,C  26)     -5.2692         0.034148   
    269. D(O  49,N  35,C  25,C  22)    178.5660         0.034148   
    270. D(O  36,N  35,C  25,C  26)    174.9607         0.034148   
    271. D(O  36,N  35,C  25,C  22)     -1.2040         0.034148   
    272. D(O  53,N  51,C  19,C  24)      2.5822         0.017559   
    273. D(O  53,N  51,C  19,C  20)   -177.6266         0.017559   
    274. D(O  52,N  51,C  19,C  24)   -177.3749         0.017559   
    275. D(O  52,N  51,C  19,C  20)      2.4162         0.017559   
    -----------------------------------------------------------------

Number of atoms                         .... 54
Number of degrees of freedom            .... 275

         *************************************************************
         *                GEOMETRY OPTIMIZATION CYCLE   1            *
         *************************************************************
---------------------------------
CARTESIAN COORDINATES (ANGSTROEM)
---------------------------------
  C      1.707801    1.857690    3.756121
  C      1.988992    0.500030    3.691693
  C      2.132179   -0.094645    2.462533
  N      2.009424    0.625495    1.334901
  C      1.738422    1.940809    1.373917
  C      1.585161    2.581871    2.582069
  C      2.058223   -0.069248    0.046137
  C      3.044406    0.608494   -0.888407
  O      3.761853    1.525918   -0.576854
  O      3.128716   -0.062510   -2.020363
  C      4.050955    0.446387   -2.987126
  H      1.587084    2.345547    4.715591
  H      2.340211   -1.149126    2.338832
  H      1.684446    2.446473    0.421179
  H      1.370073    3.641672    2.588523
  H      2.501776   -1.046398    0.246443
  H      5.064574    0.440184   -2.586408
  H      3.772322    1.461412   -3.271108
  H      2.096128   -0.101973    4.583517
  C     -4.010217    0.220640    1.697243
  C     -3.552312    1.514166    1.472240
  C     -2.386429    1.713468    0.769737
  C     -1.624344    0.629290    0.282681
  C     -2.124784   -0.667450    0.537594
  C     -3.296038   -0.874777    1.228006
  C     -0.365153    0.773487   -0.409175
  C      0.600002   -0.376283   -0.413721
  C      0.549725   -1.261886   -1.639748
  C      0.008290   -0.837524   -2.841805
  C     -0.051595   -1.676186   -3.947181
  C      0.431223   -2.970044   -3.846106
  C      0.959895   -3.430782   -2.647262
  C      1.014493   -2.582650   -1.547159
  O      1.500090   -2.955372   -0.339223
  C      1.993927   -4.273279   -0.188738
  N     -0.064800    1.884834   -1.115154
  O     -0.858940    2.845783   -1.234251
  H     -4.110090    2.356400    1.858674
  H     -2.038031    2.719879    0.602660
  H     -1.603486   -1.536335    0.157069
  H     -3.669111   -1.876282    1.393084
  H      0.269930   -1.013937    0.411430
  H     -0.370419    0.173694   -2.918507
  H     -0.475162   -1.317091   -4.877532
  H      0.393446   -3.637925   -4.699320
  H      1.321397   -4.447821   -2.576751
  H      2.334784   -4.349902    0.841662
  H      2.831890   -4.458528   -0.866305
  H      1.207937   -5.011407   -0.370439
  O      1.068452    1.956893   -1.674787
  H      3.975245   -0.220700   -3.841671
  N     -5.235580    0.014282    2.417714
  O     -5.871661    0.993127    2.778512
  O     -5.595201   -1.131887    2.641420

----------------------------
CARTESIAN COORDINATES (A.U.)
----------------------------
  NO LB      ZA    FRAG     MASS         X           Y           Z
   0 C     6.0000    0    12.011    3.227276    3.510525    7.098040
   1 C     6.0000    0    12.011    3.758650    0.944920    6.976289
   2 C     6.0000    0    12.011    4.029234   -0.178853    4.653513
   3 N     7.0000    0    14.007    3.797261    1.182014    2.522597
   4 C     6.0000    0    12.011    3.285141    3.667597    2.596327
   5 C     6.0000    0    12.011    2.995520    4.879029    4.879403
   6 C     6.0000    0    12.011    3.889478   -0.130860    0.087186
   7 C     6.0000    0    12.011    5.753094    1.149887   -1.678846
   8 O     8.0000    0    15.999    7.108872    2.883567   -1.090096
   9 O     8.0000    0    15.999    5.912416   -0.118127   -3.817933
  10 C     6.0000    0    12.011    7.655196    0.843549   -5.644850
  11 H     1.0000    0     1.008    2.999154    4.432441    8.911176
  12 H     1.0000    0     1.008    4.422358   -2.171533    4.419752
  13 H     1.0000    0     1.008    3.183142    4.623164    0.795913
  14 H     1.0000    0     1.008    2.589063    6.881763    4.891600
  15 H     1.0000    0     1.008    4.727671   -1.977406    0.465710
  16 H     1.0000    0     1.008    9.570658    0.831827   -4.887603
  17 H     1.0000    0     1.008    7.128655    2.761668   -6.181498
  18 H     1.0000    0     1.008    3.961108   -0.192701    8.661592
  19 C     6.0000    0    12.011   -7.578212    0.416949    3.207324
  20 C     6.0000    0    12.011   -6.712897    2.861359    2.782130
  21 C     6.0000    0    12.011   -4.509697    3.237985    1.454592
  22 C     6.0000    0    12.011   -3.069565    1.189186    0.534190
  23 C     6.0000    0    12.011   -4.015260   -1.261298    1.015905
  24 C     6.0000    0    12.011   -6.228609   -1.653089    2.320595
  25 C     6.0000    0    12.011   -0.690039    1.461679   -0.773229
  26 C     6.0000    0    12.011    1.133839   -0.711072   -0.781819
  27 C     6.0000    0    12.011    1.038830   -2.384619   -3.098675
  28 C     6.0000    0    12.011    0.015666   -1.582691   -5.370233
  29 C     6.0000    0    12.011   -0.097500   -3.167532   -7.459091
  30 C     6.0000    0    12.011    0.814893   -5.612570   -7.268087
  31 C     6.0000    0    12.011    1.813939   -6.483238   -5.002600
  32 C     6.0000    0    12.011    1.917114   -4.880501   -2.923707
  33 O     8.0000    0    15.999    2.834759   -5.584844   -0.641039
  34 C     6.0000    0    12.011    3.767976   -8.075327   -0.356663
  35 N     7.0000    0    14.007   -0.122454    3.561820   -2.107336
  36 O     8.0000    0    15.999   -1.623161    5.377751   -2.332396
  37 H     1.0000    0     1.008   -7.766944    4.452951    3.512385
  38 H     1.0000    0     1.008   -3.851320    5.139826    1.138862
  39 H     1.0000    0     1.008   -3.030149   -2.903252    0.296817
  40 H     1.0000    0     1.008   -6.933615   -3.545659    2.632547
  41 H     1.0000    0     1.008    0.510094   -1.916063    0.777490
  42 H     1.0000    0     1.008   -0.699990    0.328234   -5.515179
  43 H     1.0000    0     1.008   -0.897926   -2.488941   -9.217200
  44 H     1.0000    0     1.008    0.743505   -6.874682   -8.880428
  45 H     1.0000    0     1.008    2.497078   -8.405164   -4.869354
  46 H     1.0000    0     1.008    4.412102   -8.220123    1.590511
  47 H     1.0000    0     1.008    5.351497   -8.425397   -1.637079
  48 H     1.0000    0     1.008    2.282670   -9.470187   -0.700028
  49 O     8.0000    0    15.999    2.019082    3.697992   -3.164889
  50 H     1.0000    0     1.008    7.512124   -0.417063   -7.259706
  51 N     7.0000    0    14.007   -9.893812    0.026989    4.568817
  52 O     8.0000    0    15.999  -11.095831    1.876738    5.250627
  53 O     8.0000    0    15.999  -10.573398   -2.138956    4.991560

--------------------------------
INTERNAL COORDINATES (ANGSTROEM)
--------------------------------
 C      0   0   0     0.000000000000     0.00000000     0.00000000
 C      1   0   0     1.387969747965     0.00000000     0.00000000
 C      2   1   0     1.372943982176   119.10201936     0.00000000
 N      3   2   1     1.343586371265   120.64335348     0.34109609
 C      4   3   2     1.343508560023   121.25124411   359.69829191
 C      5   4   3     1.376256036161   120.26381548     0.25186556
 C      4   3   2     1.464910176818   118.75832927   185.06370271
 C      7   4   3     1.518309459889   110.57559957   230.01363341
 O      8   7   4     1.205596228177   124.55175548     5.32997558
 O      8   7   4     1.318589750473   110.04588871   176.94187288
 C     10   8   7     1.429731313184   116.14160452   181.49232212
 H      1   2   3     1.083124982372   120.28350403   179.75614818
 H      3   2   1     1.081900841014   122.99578350   180.71691418
 H      5   4   3     1.079962585517   116.28648921   178.34064602
 H      6   5   4     1.081426216374   118.93877565   179.83254695
 H      7   4   3     1.091642743733   106.05882723   342.61819409
 H     11  10   8     1.089971040851   110.44080980    61.05396627
 H     11  10   8     1.090210014464   110.03954980   299.67189088
 H      2   1   3     1.081312064800   121.76013845   180.13446270
 C      5   4   3     6.009190581364    85.08254930   274.49221782
 C     20   5   4     1.390508127164    53.84108547   191.22258667
 C     21  20   5     1.375687072667   119.76782718    33.15368142
 C     22  21  20     1.411892003676   121.49035377   359.06548836
 C     23  22  21     1.413136744540   116.82487151     0.73179726
 C     24  23  22     1.375314199443   122.03771662   359.89820434
 C     23  22  21     1.443959651107   124.00721974   182.80412489
 C     26  23  22     1.501171506871   119.05374440   156.51037171
 C     27  26  23     1.513262255879   115.42487297    96.71250604
 C     28  27  26     1.384982309460   122.46969825    20.46371101
 C     29  28  27     1.388811097610   121.50830098   181.29535642
 C     30  29  28     1.384701376078   119.41431868     0.47701834
 C     31  30  29     1.388884633281   120.37774963     0.58549645
 C     32  31  30     1.390156624858   119.71142274   359.42894518
 O     33  32  31     1.354191831237   123.50753456   179.25839917
 C     34  33  32     1.415414984534   118.43892948     0.77024361
 N     26  23  22     1.350448232054   121.77685757   332.67532961
 O     36  26  23     1.252304042799   122.69461549   358.79599721
 H     21  20   5     1.081575537998   119.78571620   213.73016871
 H     22  21  20     1.078034782024   119.22781837   180.16555418
 H     24  23  22     1.082364090154   120.17640143   177.72269966
 H     25  24  23     1.081409485088   120.66662509   178.74059295
 H     27  26  23     1.093811831030   104.48954473   341.86643925
 H     29  28  27     1.082527388572   118.97828587     1.65544444
 H     30  29  28     1.083471829682   120.00988417   180.35265211
 H     31  30  29     1.084189218580   120.39856830   180.07169820
 H     32  31  30     1.081676395530   119.69547241   179.15529896
 H     35  34  33     1.088015964303   105.99572818   179.55689974
 H     35  34  33     1.093433226520   111.05402115    60.63681439
 H     35  34  33     1.093447976762   111.10511991   298.51853031
 O     36  26  23     1.265954852937   118.49213001   178.56604114
 H     11  10   8     1.086730981749   105.56215782   180.52334200
 N     20   5   4     1.436376192985   152.15538984   105.17180805
 O     52  20   5     1.221847686657   118.49824607    70.45748110
 O     52  20   5     1.221914487449   118.53291580   250.41465950

---------------------------
INTERNAL COORDINATES (A.U.)
---------------------------
 C      0   0   0     0.000000000000     0.00000000     0.00000000
 C      1   0   0     2.622882705821     0.00000000     0.00000000
 C      2   1   0     2.594488123528   119.10201936     0.00000000
 N      3   2   1     2.539010278960   120.64335348     0.34109609
 C      4   3   2     2.538863237023   121.25124411   359.69829191
 C      5   4   3     2.600746998500   120.26381548     0.25186556
 C      4   3   2     2.768279044981   118.75832927   185.06370271
 C      7   4   3     2.869189065732   110.57559957   230.01363341
 O      8   7   4     2.278246699342   124.55175548     5.32997558
 O      8   7   4     2.491773511389   110.04588871   176.94187288
 C     10   8   7     2.701800627009   116.14160452   181.49232212
 H      1   2   3     2.046809585491   120.28350403   179.75614818
 H      3   2   1     2.044496293575   122.99578350   180.71691418
 H      5   4   3     2.040833521508   116.28648921   178.34064602
 H      6   5   4     2.043599382990   118.93877565   179.83254695
 H      7   4   3     2.062905821738   106.05882723   342.61819409
 H     11  10   8     2.059746761114   110.44080980    61.05396627
 H     11  10   8     2.060198355796   110.03954980   299.67189088
 H      2   1   3     2.043383667776   121.76013845   180.13446270
 C      5   4   3    11.355724485318    85.08254930   274.49221782
 C     20   5   4     2.627679547332    53.84108547   191.22258667
 C     21  20   5     2.599671813316   119.76782718    33.15368142
 C     22  21  20     2.668089217621   121.49035377   359.06548836
 C     23  22  21     2.670441436962   116.82487151     0.73179726
 C     24  23  22     2.598967185040   122.03771662   359.89820434
 C     23  22  21     2.728688289025   124.00721974   182.80412489
 C     26  23  22     2.836803028032   119.05374440   156.51037171
 C     27  26  23     2.859651232411   115.42487297    96.71250604
 C     28  27  26     2.617237265206   122.46969825    20.46371101
 C     29  28  27     2.624472626234   121.50830098   181.29535642
 C     30  29  28     2.616706378052   119.41431868     0.47701834
 C     31  30  29     2.624611588513   120.37774963     0.58549645
 C     32  31  30     2.627015304238   119.71142274   359.42894518
 O     33  32  31     2.559051693831   123.50753456   179.25839917
 C     34  33  32     2.674746686617   118.43892948     0.77024361
 N     26  23  22     2.551977316621   121.77685757   332.67532961
 O     36  26  23     2.366511677292   122.69461549   358.79599721
 H     21  20   5     2.043881559965   119.78571620   213.73016871
 H     22  21  20     2.037190500867   119.22781837   180.16555418
 H     24  23  22     2.045371707581   120.17640143   177.72269966
 H     25  24  23     2.043567765441   120.66662509   178.74059295
 H     27  26  23     2.067004802689   104.48954473   341.86643925
 H     29  28  27     2.045680296870   118.97828587     1.65544444
 H     30  29  28     2.047465031918   120.00988417   180.35265211
 H     31  30  29     2.048820700467   120.39856830   180.07169820
 H     32  31  30     2.044072153078   119.69547241   179.15529896
 H     35  34  33     2.056052201867   105.99572818   179.55689974
 H     35  34  33     2.066289343854   111.05402115    60.63681439
 H     35  34  33     2.066317217771   111.10511991   298.51853031
 O     36  26  23     2.392307969959   118.49213001   178.56604114
 H     11  10   8     2.053623936754   105.56215782   180.52334200
 N     20   5   4     2.714357630026   152.15538984   105.17180805
 O     52  20   5     2.308957505148   118.49824607    70.45748110
 O     52  20   5     2.309083740350   118.53291580   250.41465950

---------------------
BASIS SET INFORMATION
---------------------
There are 4 groups of distinct atoms

 Group   1 Type C   : 11s6p2d1f contracted to 5s3p2d1f pattern {62111/411/11/1}
 Group   2 Type N   : 11s6p2d1f contracted to 5s3p2d1f pattern {62111/411/11/1}
 Group   3 Type O   : 11s6p2d1f contracted to 5s3p2d1f pattern {62111/411/11/1}
 Group   4 Type H   : 5s1p contracted to 3s1p pattern {311/1}

Atom   0C    basis set group =>   1
Atom   1C    basis set group =>   1
Atom   2C    basis set group =>   1
Atom   3N    basis set group =>   2
Atom   4C    basis set group =>   1
Atom   5C    basis set group =>   1
Atom   6C    basis set group =>   1
Atom   7C    basis set group =>   1
Atom   8O    basis set group =>   3
Atom   9O    basis set group =>   3
Atom  10C    basis set group =>   1
Atom  11H    basis set group =>   4
Atom  12H    basis set group =>   4
Atom  13H    basis set group =>   4
Atom  14H    basis set group =>   4
Atom  15H    basis set group =>   4
Atom  16H    basis set group =>   4
Atom  17H    basis set group =>   4
Atom  18H    basis set group =>   4
Atom  19C    basis set group =>   1
Atom  20C    basis set group =>   1
Atom  21C    basis set group =>   1
Atom  22C    basis set group =>   1
Atom  23C    basis set group =>   1
Atom  24C    basis set group =>   1
Atom  25C    basis set group =>   1
Atom  26C    basis set group =>   1
Atom  27C    basis set group =>   1
Atom  28C    basis set group =>   1
Atom  29C    basis set group =>   1
Atom  30C    basis set group =>   1
Atom  31C    basis set group =>   1
Atom  32C    basis set group =>   1
Atom  33O    basis set group =>   3
Atom  34C    basis set group =>   1
Atom  35N    basis set group =>   2
Atom  36O    basis set group =>   3
Atom  37H    basis set group =>   4
Atom  38H    basis set group =>   4
Atom  39H    basis set group =>   4
Atom  40H    basis set group =>   4
Atom  41H    basis set group =>   4
Atom  42H    basis set group =>   4
Atom  43H    basis set group =>   4
Atom  44H    basis set group =>   4
Atom  45H    basis set group =>   4
Atom  46H    basis set group =>   4
Atom  47H    basis set group =>   4
Atom  48H    basis set group =>   4
Atom  49O    basis set group =>   3
Atom  50H    basis set group =>   4
Atom  51N    basis set group =>   2
Atom  52O    basis set group =>   3
Atom  53O    basis set group =>   3
---------------------------------
AUXILIARY/J BASIS SET INFORMATION
---------------------------------
There are 4 groups of distinct atoms

 Group   1 Type C   : 12s5p4d2f1g contracted to 6s4p3d1f1g pattern {711111/2111/211/2/1}
 Group   2 Type N   : 12s5p4d2f1g contracted to 6s4p3d1f1g pattern {711111/2111/211/2/1}
 Group   3 Type O   : 12s5p4d2f1g contracted to 6s4p3d1f1g pattern {711111/2111/211/2/1}
 Group   4 Type H   : 5s2p1d contracted to 3s1p1d pattern {311/2/1}

Atom   0C    basis set group =>   1
Atom   1C    basis set group =>   1
Atom   2C    basis set group =>   1
Atom   3N    basis set group =>   2
Atom   4C    basis set group =>   1
Atom   5C    basis set group =>   1
Atom   6C    basis set group =>   1
Atom   7C    basis set group =>   1
Atom   8O    basis set group =>   3
Atom   9O    basis set group =>   3
Atom  10C    basis set group =>   1
Atom  11H    basis set group =>   4
Atom  12H    basis set group =>   4
Atom  13H    basis set group =>   4
Atom  14H    basis set group =>   4
Atom  15H    basis set group =>   4
Atom  16H    basis set group =>   4
Atom  17H    basis set group =>   4
Atom  18H    basis set group =>   4
Atom  19C    basis set group =>   1
Atom  20C    basis set group =>   1
Atom  21C    basis set group =>   1
Atom  22C    basis set group =>   1
Atom  23C    basis set group =>   1
Atom  24C    basis set group =>   1
Atom  25C    basis set group =>   1
Atom  26C    basis set group =>   1
Atom  27C    basis set group =>   1
Atom  28C    basis set group =>   1
Atom  29C    basis set group =>   1
Atom  30C    basis set group =>   1
Atom  31C    basis set group =>   1
Atom  32C    basis set group =>   1
Atom  33O    basis set group =>   3
Atom  34C    basis set group =>   1
Atom  35N    basis set group =>   2
Atom  36O    basis set group =>   3
Atom  37H    basis set group =>   4
Atom  38H    basis set group =>   4
Atom  39H    basis set group =>   4
Atom  40H    basis set group =>   4
Atom  41H    basis set group =>   4
Atom  42H    basis set group =>   4
Atom  43H    basis set group =>   4
Atom  44H    basis set group =>   4
Atom  45H    basis set group =>   4
Atom  46H    basis set group =>   4
Atom  47H    basis set group =>   4
Atom  48H    basis set group =>   4
Atom  49O    basis set group =>   3
Atom  50H    basis set group =>   4
Atom  51N    basis set group =>   2
Atom  52O    basis set group =>   3
Atom  53O    basis set group =>   3


           ************************************************************
           *        Program running with 24 parallel MPI-processes    *
           *              working on a common directory               *
           ************************************************************
------------------------------------------------------------------------------
                           ORCA GTO INTEGRAL CALCULATION
                           -- RI-GTO INTEGRALS CHOSEN --
------------------------------------------------------------------------------
------------------------------------------------------------------------------
                   ___                                                        
                  /   \      - P O W E R E D   B Y -                         
                 /     \                                                     
                 |  |  |   _    _      __       _____    __    __             
                 |  |  |  | |  | |    /  \     |  _  \  |  |  /  |          
                  \  \/   | |  | |   /    \    | | | |  |  | /  /          
                 / \  \   | |__| |  /  /\  \   | |_| |  |  |/  /          
                |  |  |   |  __  | /  /__\  \  |    /   |      \           
                |  |  |   | |  | | |   __   |  |    \   |  |\   \          
                \     /   | |  | | |  |  |  |  | |\  \  |  | \   \       
                 \___/    |_|  |_| |__|  |__|  |_| \__\ |__|  \__/        
                                                                              
                      - O R C A' S   B I G   F R I E N D -                    
                                      &                                       
                       - I N T E G R A L  F E E D E R -                       
                                                                              
 v1 FN, 2020, v2 2021                                                         
------------------------------------------------------------------------------


Reading SHARK input file IM_4-NO2Ph/IM_4-NO2Ph.SHARKINP.tmp ... ok
----------------------
SHARK INTEGRAL PACKAGE
----------------------

Number of atoms                             ...     54
Number of basis functions                   ...   1149
Number of shells                            ...    447
Maximum angular momentum                    ...      3
Integral batch strategy                     ... SHARK/LIBINT Hybrid
RI-J (if used) integral strategy            ... SPLIT-RIJ (Revised 2003 algorithm where possible)
Printlevel                                  ...      1
Contraction scheme used                     ... SEGMENTED contraction
Coulomb Range Separation                    ... NOT USED
Exchange Range Separation                   ... NOT USED
Finite Nucleus Model                        ... NOT USED
Auxiliary Coulomb fitting basis             ... AVAILABLE
   # of basis functions in Aux-J            ...   1848
   # of shells in Aux-J                     ...    600
   Maximum angular momentum in Aux-J        ...      4
Auxiliary J/K fitting basis                 ... NOT available
Auxiliary Correlation fitting basis         ... NOT available
Auxiliary 'external' fitting basis          ... NOT available
Integral threshold                          ...     2.500000e-11
Primitive cut-off                           ...     2.500000e-12
Primitive pair pre-selection threshold      ...     2.500000e-12

Calculating pre-screening integrals         ... done (  0.1 sec) Dimension = 447
Organizing shell pair data                  ... done (  0.7 sec)
Shell pair information
Total number of shell pairs                 ...    100128
Shell pairs after pre-screening             ...     64660
Total number of primitive shell pairs       ...    310080
Primitive shell pairs kept                  ...    127287
          la=0 lb=0:  16300 shell pairs
          la=1 lb=0:  18740 shell pairs
          la=1 lb=1:   5400 shell pairs
          la=2 lb=0:   9179 shell pairs
          la=2 lb=1:   5412 shell pairs
          la=2 lb=2:   1361 shell pairs
          la=3 lb=0:   4223 shell pairs
          la=3 lb=1:   2542 shell pairs
          la=3 lb=2:   1205 shell pairs
          la=3 lb=3:    298 shell pairs

Calculating one electron integrals          ... done (  0.1 sec)
Calculating RI/J V-Matrix + Cholesky decomp.... done (  0.3 sec)
Calculating Nuclear repulsion               ... done (  0.0 sec) ENN=   3556.708728986436 Eh

SHARK setup successfully completed in   2.2 seconds

Maximum memory used throughout the entire GTOINT-calculation: 97.7 MB


           ************************************************************
           *        Program running with 24 parallel MPI-processes    *
           *              working on a common directory               *
           ************************************************************
-------------------------------------------------------------------------------
                                 ORCA SCF
-------------------------------------------------------------------------------

------------
SCF SETTINGS
------------
Hamiltonian:
 Density Functional     Method          .... DFT(GTOs)
 Exchange Functional    Exchange        .... PBE
   PBE kappa parameter   XKappa         ....  0.804000
   PBE mue parameter    XMuePBE         ....  0.219520
 Correlation Functional Correlation     .... PBE
   PBE beta parameter  CBetaPBE         ....  0.066725
 LDA part of GGA corr.  LDAOpt          .... PW91-LDA
 Gradients option       PostSCFGGA      .... off
 Hybrid DFT is turned on
   Fraction HF Exchange ScalHFX         ....  0.250000
   Scaling of DF-GGA-X  ScalDFX         ....  0.750000
   Scaling of DF-GGA-C  ScalDFC         ....  1.000000
   Scaling of DF-LDA-C  ScalLDAC        ....  1.000000
   Perturbative correction              ....  0.000000
   Density functional embedding theory  .... OFF
   NL short-range parameter             ....  6.900000
 RI-approximation to the Coulomb term is turned on
   Number of AuxJ basis functions       .... 1848
   RIJ-COSX (HFX calculated with COS-X)).... on


General Settings:
 Integral files         IntName         .... IM_4-NO2Ph/IM_4-NO2Ph
 Hartree-Fock type      HFTyp           .... RHF
 Total Charge           Charge          ....    0
 Multiplicity           Mult            ....    1
 Number of Electrons    NEL             ....  236
 Basis Dimension        Dim             .... 1149
 Nuclear Repulsion      ENuc            ....   3556.7087289864 Eh

Convergence Acceleration:
 DIIS                   CNVDIIS         .... on
   Start iteration      DIISMaxIt       ....    12
   Startup error        DIISStart       ....  0.200000
   # of expansion vecs  DIISMaxEq       ....     5
   Bias factor          DIISBfac        ....   1.050
   Max. coefficient     DIISMaxC        ....  10.000
 Trust-Rad. Augm. Hess. CNVTRAH         .... auto
   Auto Start mean grad. ratio tolernc. ....  1.125000
   Auto Start start iteration           ....    20
   Auto Start num. interpolation iter.  ....    10
   Max. Number of Micro iterations      ....    16
   Max. Number of Macro iterations      .... Maxiter - #DIIS iter
   Number of Davidson start vectors     ....     2
   Converg. threshold I  (grad. norm)   ....   1.000e-05
   Converg. threshold II (energy diff.) ....   1.000e-08
   Grad. Scal. Fac. for Micro threshold ....   0.100
   Minimum threshold for Micro iter.    ....   0.010
   NR start threshold (gradient norm)   ....   0.001
   Initial trust radius                 ....   0.400
   Minimum AH scaling param. (alpha)    ....   1.000
   Maximum AH scaling param. (alpha)    .... 1000.000
   Orbital update algorithm             .... Taylor
   White noise on init. David. guess    .... on
   Maximum white noise                  ....   0.010
   Quad. conv. algorithm                .... NR
 SOSCF                  CNVSOSCF        .... on
   Start iteration      SOSCFMaxIt      ....   150
   Startup grad/error   SOSCFStart      ....  0.003300
 Level Shifting         CNVShift        .... on
   Level shift para.    LevelShift      ....    0.2500
   Turn off err/grad.   ShiftErr        ....    0.0010
 Zerner damping         CNVZerner       .... off
 Static damping         CNVDamp         .... on
   Fraction old density DampFac         ....    0.7000
   Max. Damping (<1)    DampMax         ....    0.9800
   Min. Damping (>=0)   DampMin         ....    0.0000
   Turn off err/grad.   DampErr         ....    0.1000
 Fernandez-Rico         CNVRico         .... off

SCF Procedure:
 Maximum # iterations   MaxIter         ....   800
 SCF integral mode      SCFMode         .... Direct
   Integral package                     .... SHARK and LIBINT hybrid scheme
 Reset frequency        DirectResetFreq ....    20
 Integral Threshold     Thresh          ....  2.500e-11 Eh
 Primitive CutOff       TCut            ....  2.500e-12 Eh

Convergence Tolerance:
 Convergence Check Mode ConvCheckMode   .... Total+1el-Energy
 Convergence forced     ConvForced      .... 0
 Energy Change          TolE            ....  1.000e-08 Eh
 1-El. energy change                    ....  1.000e-05 Eh
 Orbital Gradient       TolG            ....  1.000e-05
 Orbital Rotation angle TolX            ....  1.000e-05
 DIIS Error             TolErr          ....  5.000e-07


Diagonalization of the overlap matrix:
Smallest eigenvalue                        ... 5.388e-06
Time for diagonalization                   ...    0.234 sec
Threshold for overlap eigenvalues          ... 1.000e-08
Number of eigenvalues below threshold      ... 0
Time for construction of square roots      ...    0.200 sec
Total time needed                          ...    0.442 sec

Time for model grid setup =    0.458 sec

------------------------------
INITIAL GUESS: MODEL POTENTIAL
------------------------------
Loading Hartree-Fock densities                     ... done
Calculating cut-offs                               ... done
Initializing the effective Hamiltonian             ... done
Setting up the integral package (SHARK)            ... done
Starting the Coulomb interaction                   ... done (   0.7 sec)
Reading the grid                                   ... done
Mapping shells                                     ... done
Starting the XC term evaluation                    ... done (   0.3 sec)
  promolecular density results
     # of electrons  =    235.995156679
     EX              =   -200.687431194
     EC              =     -8.027933759
     EX+EC           =   -208.715364954
Transforming the Hamiltonian                       ... done (   0.1 sec)
Diagonalizing the Hamiltonian                      ... done (   0.3 sec)
Back transforming the eigenvectors                 ... done (   0.1 sec)
Now organizing SCF variables                       ... done
                      ------------------
                      INITIAL GUESS DONE (   2.1 sec)
                      ------------------
-------------------
DFT GRID GENERATION
-------------------

General Integration Accuracy     IntAcc      ... 4.388
Radial Grid Type                 RadialGrid  ... OptM3 with GC (2021)
Angular Grid (max. ang.)         AngularGrid ... 4 (Lebedev-302)
Angular grid pruning method      GridPruning ... 4 (adaptive)
Weight generation scheme         WeightScheme... Becke
Basis function cutoff            BFCut       ... 1.0000e-11
Integration weight cutoff        WCut        ... 1.0000e-14
Angular grids for H and He will be reduced by one unit
Partially contracted basis set               ... off
Rotationally invariant grid construction     ... off

Total number of grid points                  ...   262998
Total number of batches                      ...     4138
Average number of points per batch           ...       63
Average number of grid points per atom       ...     4870
Time for grid setup =    1.822 sec

--------------------
COSX GRID GENERATION
--------------------

GRIDX 1
-------
General Integration Accuracy     IntAcc      ... 3.816
Radial Grid Type                 RadialGrid  ... OptM3 with GC (2021)
Angular Grid (max. ang.)         AngularGrid ... 1 (Lebedev-50)
Angular grid pruning method      GridPruning ... 4 (adaptive)
Weight generation scheme         WeightScheme... Becke
Basis function cutoff            BFCut       ... 1.0000e-11
Integration weight cutoff        WCut        ... 1.0000e-14
Angular grids for H and He will be reduced by one unit
Partially contracted basis set               ... on
Rotationally invariant grid construction     ... off

Total number of grid points                  ...    33303
Total number of batches                      ...      546
Average number of points per batch           ...       60
Average number of grid points per atom       ...      617
UseSFitting                                  ... on

GRIDX 2
-------
General Integration Accuracy     IntAcc      ... 4.020
Radial Grid Type                 RadialGrid  ... OptM3 with GC (2021)
Angular Grid (max. ang.)         AngularGrid ... 2 (Lebedev-110)
Angular grid pruning method      GridPruning ... 4 (adaptive)
Weight generation scheme         WeightScheme... Becke
Basis function cutoff            BFCut       ... 1.0000e-11
Integration weight cutoff        WCut        ... 1.0000e-14
Angular grids for H and He will be reduced by one unit
Partially contracted basis set               ... on
Rotationally invariant grid construction     ... off

Total number of grid points                  ...    72559
Total number of batches                      ...     1166
Average number of points per batch           ...       62
Average number of grid points per atom       ...     1344
UseSFitting                                  ... on

GRIDX 3
-------
General Integration Accuracy     IntAcc      ... 4.338
Radial Grid Type                 RadialGrid  ... OptM3 with GC (2021)
Angular Grid (max. ang.)         AngularGrid ... 3 (Lebedev-194)
Angular grid pruning method      GridPruning ... 4 (adaptive)
Weight generation scheme         WeightScheme... Becke
Basis function cutoff            BFCut       ... 1.0000e-11
Integration weight cutoff        WCut        ... 1.0000e-14
Angular grids for H and He will be reduced by one unit
Partially contracted basis set               ... on
Rotationally invariant grid construction     ... off

Total number of grid points                  ...   158368
Total number of batches                      ...     2502
Average number of points per batch           ...       63
Average number of grid points per atom       ...     2933
UseSFitting                                  ... on

Time for X-Grid setup             =    3.735 sec


--------------------
CPCM SOLVATION MODEL
--------------------
CPCM parameters:
  Epsilon                                         ...      47.2000
  Refrac                                          ...       1.4790
  Rsolv                                           ...       1.3000
  Surface type                                    ... GAUSSIAN VDW
  Epsilon function type                           ...         CPCM
Radii:
 Radius for C  used is    3.8550 Bohr (=   2.0400 Ang.)
 Radius for N  used is    3.5149 Bohr (=   1.8600 Ang.)
 Radius for O  used is    3.4469 Bohr (=   1.8240 Ang.)
 Radius for H  used is    2.4944 Bohr (=   1.3200 Ang.)
Calculating surface                               ...        done! (  0.0s)
GEPOL surface points                              ...         2684
GEPOL Volume                                      ...    3346.3218
GEPOL Surface-area                                ...    1622.9012
Calculating surface distance matrix               ...        done! (  0.1s)
Performing Cholesky decomposition & store         ...        done! (  0.9s)
Overall time for CPCM initialization              ...                 1.0s
--------------
SCF ITERATIONS
--------------
ITER       Energy         Delta-E        Max-DP      RMS-DP      [F,P]     Damp
               ***  Starting incremental Fock matrix formation  ***
  0  -1577.8285924384   0.000000000000 0.20739291  0.00081912  0.2634816 0.7000
  1  -1578.1591612650  -0.330568826590 0.15323304  0.00072451  0.1048218 0.7000
                               ***Turning on DIIS***
  2  -1578.2889698828  -0.129808617831 0.20424458  0.00132857  0.0353674 0.0000
  3  -1578.5095058117  -0.220535928905 0.13612729  0.00055758  0.0527062 0.0000
  4  -1578.5459614812  -0.036455669472 0.03670516  0.00022261  0.0173218 0.0000
  5  -1578.5488234054  -0.002861924230 0.02830270  0.00008703  0.0041769 0.0000
                      *** Initiating the SOSCF procedure ***
                           *** Shutting down DIIS ***
                      *** Re-Reading the Fockian *** 
                      *** Removing any level shift *** 
ITER      Energy       Delta-E        Grad      Rot      Max-DP    RMS-DP
  6  -1578.54896817  -0.0001447648  0.000357  0.000357  0.004903  0.000022
               *** Restarting incremental Fock matrix formation ***
  7  -1578.54894298   0.0000251931  0.000199  0.001663  0.003124  0.000033
  8  -1578.54894195   0.0000010305  0.000331  0.000441  0.001300  0.000010
  9  -1578.54894713  -0.0000051873  0.000066  0.000198  0.000697  0.000007
 10  -1578.54894691   0.0000002239  0.000081  0.000106  0.000905  0.000002
 11  -1578.54894727  -0.0000003638  0.000011  0.000037  0.000222  0.000002
 12  -1578.54894728  -0.0000000037  0.000015  0.000023  0.000215  0.000001
                  ***Gradient check signals convergence***
              ***Rediagonalizing the Fockian in SOSCF/NRSCF***

               *****************************************************
               *                     SUCCESS                       *
               *           SCF CONVERGED AFTER  13 CYCLES          *
               *****************************************************

Old exchange energy                            =    -51.045634477 Eh
New exchange energy                            =    -51.045644624 Eh
Exchange energy change after final integration =     -0.000010147 Eh
Total energy after final integration           =  -1578.548957412 Eh
Final COS-X integration done in                =    27.303 sec

----------------
TOTAL SCF ENERGY
----------------

Total Energy       :        -1578.54895741 Eh          -42954.50090 eV

Components:
Nuclear Repulsion  :         3556.70872899 Eh           96782.96487 eV
Electronic Energy  :        -5135.25768640 Eh         -139737.46576 eV
One Electron Energy:        -9229.70591258 Eh         -251153.06626 eV
Two Electron Energy:         4094.44822618 Eh          111415.60049 eV
Max COSX asymmetry :            0.00000535 Eh               0.00015 eV
CPCM Dielectric    :           -0.06612643 Eh              -1.79939 eV

Virial components:
Potential Energy   :        -3150.32139189 Eh          -85724.60323 eV
Kinetic Energy     :         1571.77243448 Eh           42770.10233 eV
Virial Ratio       :            2.00431139


DFT components:
N(Alpha)           :      118.000063205365 electrons
N(Beta)            :      118.000063205365 electrons
N(Total)           :      236.000126410729 electrons
E(X)               :     -152.946392757133 Eh       
E(C)               :       -8.013453235049 Eh       
E(XC)              :     -160.959845992182 Eh       
DFET-embed. en.    :        0.000000000000 Eh       
CPCM Solvation Model Properties:
Surface-charge          :           -0.03044944
Charge-correction       :           -0.00012467 Eh              -0.00339 eV
Free-energy (cav+disp)  :  This term is not implemented in the current solvation scheme

---------------
SCF CONVERGENCE
---------------

  Last Energy change         ...    1.2415e-08  Tolerance :   1.0000e-08
  Last MAX-Density change    ...    2.3315e-15  Tolerance :   1.0000e-07
  Last RMS-Density change    ...    1.2809e-17  Tolerance :   5.0000e-09
  Last Orbital Gradient      ...    1.9273e-06  Tolerance :   1.0000e-05
  Last Orbital Rotation      ...    6.7251e-06  Tolerance :   1.0000e-05

             **** THE GBW FILE WAS UPDATED (IM_4-NO2Ph/IM_4-NO2Ph.gbw) ****
             **** DENSITY IM_4-NO2Ph/IM_4-NO2Ph.scfp WAS UPDATED ****
             **** ENERGY FILE WAS UPDATED (IM_4-NO2Ph/IM_4-NO2Ph.en.tmp) ****
             **** THE GBW FILE WAS UPDATED (IM_4-NO2Ph/IM_4-NO2Ph.gbw) ****
             **** DENSITY IM_4-NO2Ph/IM_4-NO2Ph.scfp WAS UPDATED ****
----------------
ORBITAL ENERGIES
----------------

  NO   OCC          E(Eh)            E(eV) 
   0   2.0000     -19.262940      -524.1712 
   1   2.0000     -19.248217      -523.7706 
   2   2.0000     -19.236335      -523.4473 
   3   2.0000     -19.236299      -523.4463 
   4   2.0000     -19.203734      -522.5602 
   5   2.0000     -19.190303      -522.1947 
   6   2.0000     -19.187943      -522.1305 
   7   2.0000     -14.621243      -397.8643 
   8   2.0000     -14.573598      -396.5678 
   9   2.0000     -14.512503      -394.9053 
  10   2.0000     -10.368343      -282.1370 
  11   2.0000     -10.313046      -280.6322 
  12   2.0000     -10.309510      -280.5360 
  13   2.0000     -10.305954      -280.4393 
  14   2.0000     -10.289597      -279.9942 
  15   2.0000     -10.278549      -279.6935 
  16   2.0000     -10.276765      -279.6450 
  17   2.0000     -10.270790      -279.4824 
  18   2.0000     -10.267903      -279.4039 
  19   2.0000     -10.267279      -279.3869 
  20   2.0000     -10.266276      -279.3596 
  21   2.0000     -10.266072      -279.3540 
  22   2.0000     -10.261056      -279.2175 
  23   2.0000     -10.256989      -279.1069 
  24   2.0000     -10.244908      -278.7781 
  25   2.0000     -10.243371      -278.7363 
  26   2.0000     -10.239589      -278.6334 
  27   2.0000     -10.236562      -278.5510 
  28   2.0000     -10.231854      -278.4229 
  29   2.0000     -10.227927      -278.3160 
  30   2.0000     -10.226352      -278.2732 
  31   2.0000     -10.224910      -278.2339 
  32   2.0000     -10.219689      -278.0919 
  33   2.0000      -1.269023       -34.5319 
  34   2.0000      -1.209333       -32.9076 
  35   2.0000      -1.157197       -31.4889 
  36   2.0000      -1.109816       -30.1996 
  37   2.0000      -1.086877       -29.5754 
  38   2.0000      -1.084109       -29.5001 
  39   2.0000      -1.060980       -28.8707 
  40   2.0000      -1.024392       -27.8751 
  41   2.0000      -0.919510       -25.0211 
  42   2.0000      -0.905518       -24.6404 
  43   2.0000      -0.889841       -24.2138 
  44   2.0000      -0.871418       -23.7125 
  45   2.0000      -0.844577       -22.9821 
  46   2.0000      -0.834564       -22.7096 
  47   2.0000      -0.813185       -22.1279 
  48   2.0000      -0.792991       -21.5784 
  49   2.0000      -0.787555       -21.4305 
  50   2.0000      -0.776288       -21.1239 
  51   2.0000      -0.755307       -20.5529 
  52   2.0000      -0.731695       -19.9104 
  53   2.0000      -0.724803       -19.7229 
  54   2.0000      -0.714851       -19.4521 
  55   2.0000      -0.708877       -19.2895 
  56   2.0000      -0.681301       -18.5391 
  57   2.0000      -0.643915       -17.5218 
  58   2.0000      -0.632041       -17.1987 
  59   2.0000      -0.620685       -16.8897 
  60   2.0000      -0.618535       -16.8312 
  61   2.0000      -0.610180       -16.6039 
  62   2.0000      -0.587981       -15.9998 
  63   2.0000      -0.581671       -15.8281 
  64   2.0000      -0.571863       -15.5612 
  65   2.0000      -0.562266       -15.3000 
  66   2.0000      -0.560451       -15.2507 
  67   2.0000      -0.557839       -15.1796 
  68   2.0000      -0.552932       -15.0461 
  69   2.0000      -0.542817       -14.7708 
  70   2.0000      -0.539377       -14.6772 
  71   2.0000      -0.533924       -14.5288 
  72   2.0000      -0.526356       -14.3229 
  73   2.0000      -0.518823       -14.1179 
  74   2.0000      -0.511379       -13.9153 
  75   2.0000      -0.507612       -13.8128 
  76   2.0000      -0.502004       -13.6602 
  77   2.0000      -0.496195       -13.5021 
  78   2.0000      -0.491103       -13.3636 
  79   2.0000      -0.485368       -13.2075 
  80   2.0000      -0.484906       -13.1950 
  81   2.0000      -0.479341       -13.0435 
  82   2.0000      -0.474880       -12.9221 
  83   2.0000      -0.468333       -12.7440 
  84   2.0000      -0.457649       -12.4533 
  85   2.0000      -0.448424       -12.2022 
  86   2.0000      -0.444533       -12.0964 
  87   2.0000      -0.443012       -12.0550 
  88   2.0000      -0.439438       -11.9577 
  89   2.0000      -0.429736       -11.6937 
  90   2.0000      -0.420437       -11.4407 
  91   2.0000      -0.416213       -11.3257 
  92   2.0000      -0.412760       -11.2318 
  93   2.0000      -0.405697       -11.0396 
  94   2.0000      -0.403590       -10.9822 
  95   2.0000      -0.395375       -10.7587 
  96   2.0000      -0.387180       -10.5357 
  97   2.0000      -0.383654       -10.4398 
  98   2.0000      -0.374960       -10.2032 
  99   2.0000      -0.369040       -10.0421 
 100   2.0000      -0.363897        -9.9021 
 101   2.0000      -0.348839        -9.4924 
 102   2.0000      -0.342836        -9.3290 
 103   2.0000      -0.342071        -9.3082 
 104   2.0000      -0.335579        -9.1316 
 105   2.0000      -0.334961        -9.1147 
 106   2.0000      -0.331996        -9.0341 
 107   2.0000      -0.323389        -8.7999 
 108   2.0000      -0.313829        -8.5397 
 109   2.0000      -0.311271        -8.4701 
 110   2.0000      -0.307801        -8.3757 
 111   2.0000      -0.302729        -8.2377 
 112   2.0000      -0.294546        -8.0150 
 113   2.0000      -0.285004        -7.7554 
 114   2.0000      -0.268915        -7.3175 
 115   2.0000      -0.266236        -7.2446 
 116   2.0000      -0.239794        -6.5251 
 117   2.0000      -0.212071        -5.7708 
 118   0.0000      -0.092434        -2.5153 
 119   0.0000      -0.084978        -2.3124 
 120   0.0000      -0.047133        -1.2826 
 121   0.0000      -0.023243        -0.6325 
 122   0.0000      -0.018190        -0.4950 
 123   0.0000      -0.010853        -0.2953 
 124   0.0000       0.002803         0.0763 
 125   0.0000       0.010325         0.2810 
 126   0.0000       0.035103         0.9552 
 127   0.0000       0.047499         1.2925 
 128   0.0000       0.058395         1.5890 
 129   0.0000       0.064310         1.7500 
 130   0.0000       0.066740         1.8161 
 131   0.0000       0.068492         1.8637 
 132   0.0000       0.079712         2.1691 
 133   0.0000       0.086330         2.3491 
 134   0.0000       0.087510         2.3813 
 135   0.0000       0.089385         2.4323 
 136   0.0000       0.094376         2.5681 
 137   0.0000       0.100691         2.7400 
 138   0.0000       0.106745         2.9047 
 139   0.0000       0.109602         2.9824 
 140   0.0000       0.110035         2.9942 
 141   0.0000       0.111940         3.0460 
 142   0.0000       0.119034         3.2391 
 143   0.0000       0.121288         3.3004 
 144   0.0000       0.128416         3.4944 
 145   0.0000       0.132346         3.6013 
 146   0.0000       0.135136         3.6772 
[...]
 71:    885.48   0.016368   82.72  0.005768  ( 0.053018  0.013393 -0.052708)
 72:    887.40   0.000320    1.62  0.000113  (-0.009078 -0.004510 -0.003132)
 73:    923.37   0.009503   48.02  0.003212  (-0.047034  0.020170  0.024344)
 74:    930.33   0.008040   40.63  0.002697  (-0.028171  0.043009  0.007316)
 75:    955.74   0.000531    2.68  0.000173  (-0.000624 -0.009443  0.009159)
 76:    985.52   0.000414    2.09  0.000131  (-0.006809 -0.006787  0.006225)
 77:    991.23   0.000189    0.95  0.000059  (-0.003099 -0.004421  0.005500)
 78:    995.34   0.000048    0.24  0.000015  ( 0.001727 -0.002245 -0.002629)
 79:    999.83   0.000940    4.75  0.000293  ( 0.006394  0.012055 -0.010356)
 80:   1007.86   0.026435  133.59  0.008185  ( 0.071529  0.024982 -0.049441)
 81:   1024.37   0.018003   90.98  0.005484  (-0.050745 -0.034871  0.041150)
 82:   1025.87   0.007354   37.17  0.002237  (-0.032098 -0.017229  0.030166)
 83:   1044.49   0.005808   29.35  0.001735  ( 0.024637  0.028996 -0.016956)
 84:   1050.10   0.000330    1.67  0.000098  (-0.003438 -0.002491  0.008945)
 85:   1060.77   0.004110   20.77  0.001209  (-0.032675 -0.006057  0.010241)
 86:   1071.58   0.016435   83.06  0.004786  (-0.045216  0.044942  0.026871)
 87:   1081.47   0.092552  467.72  0.026706  ( 0.095198  0.079482 -0.106424)
 88:   1085.59   0.004076   20.60  0.001172  ( 0.002401 -0.014841  0.030752)
 89:   1087.38   0.048795  246.59  0.014003  ( 0.088709  0.060189 -0.050114)
 90:   1127.63   0.002951   14.91  0.000817  (-0.014061  0.020943  0.013426)
 91:   1132.92   0.080820  408.43  0.022262  (-0.127148 -0.044325  0.064270)
 92:   1136.68   0.111251  562.21  0.030543  ( 0.125286  0.070628 -0.099286)
 93:   1144.68   0.039569  199.97  0.010787  ( 0.090947 -0.018636 -0.046568)
 94:   1169.49   0.000386    1.95  0.000103  (-0.009233  0.003899  0.001618)
 95:   1171.23   0.000101    0.51  0.000027  ( 0.003944  0.002004 -0.002701)
 96:   1173.88   0.001842    9.31  0.000490  ( 0.009719 -0.019723 -0.002472)
 97:   1175.32   0.001296    6.55  0.000344  ( 0.011076 -0.010098  0.010927)
 98:   1195.00   0.004420   22.34  0.001154  (-0.026502  0.001384  0.021215)
 99:   1207.52   0.011204   56.62  0.002895  (-0.033219 -0.038598  0.017385)
100:   1211.08   0.010002   50.55  0.002577  ( 0.021230  0.024581 -0.039017)
101:   1221.65   0.028688  144.98  0.007328  (-0.046443 -0.042878  0.057730)
102:   1225.31   0.019095   96.50  0.004863  ( 0.052510  0.020559 -0.041026)
103:   1227.55   0.013332   67.38  0.003389  (-0.051968 -0.026120 -0.002514)
104:   1232.69   0.032298  163.22  0.008176  ( 0.049197  0.075679  0.005355)
105:   1269.00   0.064028  323.57  0.015745  (-0.083630 -0.074699  0.056315)
106:   1275.40   0.211590  1069.29  0.051772  (-0.118806 -0.032920  0.191241)
107:   1291.21   0.104868  529.96  0.025345  ( 0.154379 -0.030014 -0.024722)
108:   1302.03   0.050033  252.84  0.011992  ( 0.006975  0.042705 -0.100594)
109:   1314.36   0.063285  319.82  0.015026  (-0.058675 -0.093165  0.053880)
110:   1323.34   0.018702   94.51  0.004410  (-0.036834 -0.031064  0.045700)
111:   1335.05   0.356529  1801.75  0.083337  (-0.229739 -0.046153  0.168604)
112:   1344.84   0.385397  1947.64  0.089429  ( 0.242227  0.094074 -0.148005)
113:   1355.95   0.001407    7.11  0.000324  (-0.004100  0.015098  0.008890)
114:   1374.08   0.030919  156.25  0.007022  (-0.081842  0.007205  0.016487)
115:   1379.83   0.028012  141.56  0.006335  ( 0.069865  0.018632 -0.033271)
116:   1388.00   0.017583   88.86  0.003953  (-0.051830  0.034807 -0.007432)
117:   1396.62   0.008008   40.47  0.001789  (-0.014584  0.032656 -0.022586)
118:   1426.97   0.017499   88.43  0.003827  ( 0.008620  0.026065 -0.055435)
119:   1439.17   0.071245  360.04  0.015449  ( 0.058204 -0.105544  0.030353)
120:   1454.64   0.044350  224.13  0.009514  ( 0.046746  0.061740 -0.059307)
121:   1465.14   0.004292   21.69  0.000914  (-0.023956  0.016910 -0.007365)
122:   1465.97   0.005480   27.69  0.001167  (-0.033282 -0.001397 -0.007546)
123:   1472.77   0.008212   41.50  0.001740  (-0.008896  0.012013  0.038944)
124:   1473.69   0.002792   14.11  0.000591  ( 0.021376  0.005922 -0.009959)
125:   1474.06   0.001671    8.44  0.000354  (-0.010712 -0.015390 -0.001439)
126:   1480.20   0.066650  336.82  0.014051  ( 0.009379  0.102455 -0.058876)
127:   1485.17   0.004622   23.36  0.000971  (-0.011217  0.006296 -0.028385)
128:   1498.32   0.011976   60.52  0.002494  (-0.028797  0.024887 -0.032336)
129:   1527.50   0.016139   81.56  0.003297  (-0.022712  0.052051 -0.008490)
130:   1532.64   0.002611   13.20  0.000532  ( 0.004366 -0.020728  0.009106)
131:   1534.64   0.032975  166.64  0.006705  ( 0.038608 -0.026315  0.067248)
132:   1540.08   0.017792   89.92  0.003605  ( 0.051699  0.011288 -0.028372)
133:   1566.25   0.089709  453.35  0.017874  ( 0.019115 -0.131596 -0.013813)
134:   1636.38   0.031108  157.21  0.005932  (-0.002202  0.076990  0.000410)
135:   1643.91   0.004104   20.74  0.000779  (-0.022232  0.014580 -0.008494)
136:   1647.32   0.009758   49.31  0.001849  (-0.033662  0.026029  0.006156)
137:   1656.09   0.048172  243.44  0.009077  ( 0.090586  0.002800 -0.029387)
138:   1664.89   0.012546   63.40  0.002352  ( 0.005045 -0.019793  0.043981)
139:   1696.32   0.018810   95.06  0.003460  (-0.004873  0.024111  0.053434)
140:   1784.82   0.112105  566.53  0.019601  ( 0.076082  0.097307  0.065908)
141:   3039.17   0.012793   64.65  0.001314  ( 0.013091 -0.033366  0.005385)
142:   3070.53   0.001306    6.60  0.000133  (-0.001262  0.001997 -0.011278)
143:   3072.43   0.006796   34.35  0.000690  ( 0.018060  0.006953 -0.017771)
144:   3108.60   0.004375   22.11  0.000439  (-0.009722 -0.018506  0.001483)
145:   3111.61   0.006698   33.85  0.000672  (-0.023882 -0.007002  0.007236)
146:   3156.45   0.003776   19.08  0.000373  ( 0.014550 -0.010934  0.006488)
147:   3166.62   0.003678   18.59  0.000362  (-0.005643  0.000590 -0.018174)
148:   3189.75   0.002148   10.85  0.000210  ( 0.001880  0.009826  0.010489)
149:   3193.00   0.000508    2.56  0.000050  (-0.000761  0.005951  0.003688)
150:   3207.91   0.002706   13.68  0.000263  (-0.002348 -0.004330 -0.015460)
151:   3214.88   0.000765    3.87  0.000074  (-0.006853  0.004527  0.002607)
152:   3221.84   0.000152    0.77  0.000015  ( 0.000656  0.002259  0.003036)
153:   3223.76   0.002435   12.31  0.000236  (-0.006150  0.008274 -0.011379)
154:   3230.58   0.000498    2.52  0.000048  ( 0.001865 -0.006094 -0.002742)
155:   3234.46   0.000302    1.53  0.000029  (-0.003833  0.002068  0.003195)
156:   3234.81   0.001245    6.29  0.000120  ( 0.002502 -0.010534 -0.001695)
157:   3240.09   0.000311    1.57  0.000030  (-0.004341 -0.002281  0.002429)
158:   3241.60   0.002138   10.80  0.000206  ( 0.004383  0.007188  0.011617)
159:   3247.26   0.002391   12.09  0.000230  ( 0.004775 -0.008505  0.011606)
160:   3252.94   0.005238   26.47  0.000503  (-0.012517  0.001856 -0.018504)
161:   3266.19   0.000385    1.94  0.000037  (-0.001909 -0.001593  0.005529)

* The epsilon (eps) is given for a Dirac delta lineshape.
** The dipole moment derivative (T) already includes vibrational overlap.

The first frequency considered to be a vibration is 6
The total number of vibrations considered is 156


--------------------------
THERMOCHEMISTRY AT 298.15K
--------------------------

Temperature         ... 298.15 K
Pressure            ... 1.00 atm
Total Mass          ... 451.44 AMU

Throughout the following assumptions are being made:
  (1) The electronic state is orbitally nondegenerate
  (2) There are no thermally accessible electronically excited states
  (3) Hindered rotations indicated by low frequency modes are not
      treated as such but are treated as vibrations and this may
      cause some error
  (4) All equations used are the standard statistical mechanics
      equations for an ideal gas
  (5) All vibrations are strictly harmonic

freq.      12.19  E(vib)   ...       0.58 
freq.      24.70  E(vib)   ...       0.56 
freq.      32.88  E(vib)   ...       0.55 
freq.      40.01  E(vib)   ...       0.54 
freq.      44.36  E(vib)   ...       0.53 
freq.      56.27  E(vib)   ...       0.52 
freq.      61.79  E(vib)   ...       0.51 
freq.      71.83  E(vib)   ...       0.50 
freq.      74.46  E(vib)   ...       0.49 
freq.      85.97  E(vib)   ...       0.48 
freq.      92.64  E(vib)   ...       0.47 
freq.      97.24  E(vib)   ...       0.46 
freq.     103.58  E(vib)   ...       0.46 
freq.     123.76  E(vib)   ...       0.43 
freq.     135.29  E(vib)   ...       0.42 
freq.     145.62  E(vib)   ...       0.41 
freq.     156.55  E(vib)   ...       0.40 
freq.     169.69  E(vib)   ...       0.38 
freq.     179.35  E(vib)   ...       0.37 
freq.     190.45  E(vib)   ...       0.36 
freq.     205.82  E(vib)   ...       0.35 
freq.     224.61  E(vib)   ...       0.33 
freq.     245.60  E(vib)   ...       0.31 
freq.     254.15  E(vib)   ...       0.30 
freq.     263.90  E(vib)   ...       0.29 
freq.     279.47  E(vib)   ...       0.28 
freq.     295.92  E(vib)   ...       0.27 
freq.     304.25  E(vib)   ...       0.26 
freq.     312.00  E(vib)   ...       0.25 
freq.     345.77  E(vib)   ...       0.23 
freq.     361.58  E(vib)   ...       0.22 
freq.     374.00  E(vib)   ...       0.21 
freq.     419.94  E(vib)   ...       0.18 
freq.     424.56  E(vib)   ...       0.18 
freq.     432.59  E(vib)   ...       0.18 
freq.     466.58  E(vib)   ...       0.16 
freq.     476.02  E(vib)   ...       0.15 
freq.     499.86  E(vib)   ...       0.14 
freq.     515.36  E(vib)   ...       0.13 
freq.     531.56  E(vib)   ...       0.13 
freq.     546.92  E(vib)   ...       0.12 
freq.     553.54  E(vib)   ...       0.12 
freq.     576.58  E(vib)   ...       0.11 
freq.     591.88  E(vib)   ...       0.10 
freq.     609.28  E(vib)   ...       0.10 
freq.     637.93  E(vib)   ...       0.09 
freq.     652.20  E(vib)   ...       0.08 
freq.     659.28  E(vib)   ...       0.08 
freq.     677.29  E(vib)   ...       0.08 
freq.     693.03  E(vib)   ...       0.07 
freq.     712.50  E(vib)   ...       0.07 
freq.     723.63  E(vib)   ...       0.06 
freq.     728.64  E(vib)   ...       0.06 
freq.     757.43  E(vib)   ...       0.06 
freq.     767.82  E(vib)   ...       0.06 
freq.     784.78  E(vib)   ...       0.05 
freq.     785.97  E(vib)   ...       0.05 
freq.     798.58  E(vib)   ...       0.05 
freq.     801.53  E(vib)   ...       0.05 
freq.     814.25  E(vib)   ...       0.05 
freq.     832.28  E(vib)   ...       0.04 
freq.     838.36  E(vib)   ...       0.04 
freq.     858.68  E(vib)   ...       0.04 
freq.     874.22  E(vib)   ...       0.04 
freq.     879.29  E(vib)   ...       0.04 
freq.     885.48  E(vib)   ...       0.04 
freq.     887.40  E(vib)   ...       0.04 
freq.     923.37  E(vib)   ...       0.03 
freq.     930.33  E(vib)   ...       0.03 
freq.     955.74  E(vib)   ...       0.03 
freq.     985.52  E(vib)   ...       0.02 
freq.     991.23  E(vib)   ...       0.02 
freq.     995.34  E(vib)   ...       0.02 
freq.     999.83  E(vib)   ...       0.02 
freq.    1007.86  E(vib)   ...       0.02 
freq.    1024.37  E(vib)   ...       0.02 
freq.    1025.87  E(vib)   ...       0.02 
freq.    1044.49  E(vib)   ...       0.02 
freq.    1050.10  E(vib)   ...       0.02 
freq.    1060.77  E(vib)   ...       0.02 
freq.    1071.58  E(vib)   ...       0.02 
freq.    1081.47  E(vib)   ...       0.02 
freq.    1085.59  E(vib)   ...       0.02 
freq.    1087.38  E(vib)   ...       0.02 
freq.    1127.63  E(vib)   ...       0.01 
freq.    1132.92  E(vib)   ...       0.01 
freq.    1136.68  E(vib)   ...       0.01 
freq.    1144.68  E(vib)   ...       0.01 
freq.    1169.49  E(vib)   ...       0.01 
freq.    1171.23  E(vib)   ...       0.01 
freq.    1173.88  E(vib)   ...       0.01 
freq.    1175.32  E(vib)   ...       0.01 
freq.    1195.00  E(vib)   ...       0.01 
freq.    1207.52  E(vib)   ...       0.01 
freq.    1211.08  E(vib)   ...       0.01 
freq.    1221.65  E(vib)   ...       0.01 
freq.    1225.31  E(vib)   ...       0.01 
freq.    1227.55  E(vib)   ...       0.01 
freq.    1232.69  E(vib)   ...       0.01 
freq.    1269.00  E(vib)   ...       0.01 
freq.    1275.40  E(vib)   ...       0.01 
freq.    1291.21  E(vib)   ...       0.01 
freq.    1302.03  E(vib)   ...       0.01 
freq.    1314.36  E(vib)   ...       0.01 
freq.    1323.34  E(vib)   ...       0.01 
freq.    1335.05  E(vib)   ...       0.01 
freq.    1344.84  E(vib)   ...       0.01 
freq.    1355.95  E(vib)   ...       0.01 
freq.    1374.08  E(vib)   ...       0.01 
freq.    1379.83  E(vib)   ...       0.01 
freq.    1388.00  E(vib)   ...       0.00 
freq.    1396.62  E(vib)   ...       0.00 
freq.    1426.97  E(vib)   ...       0.00 
freq.    1439.17  E(vib)   ...       0.00 
freq.    1454.64  E(vib)   ...       0.00 
freq.    1465.14  E(vib)   ...       0.00 
freq.    1465.97  E(vib)   ...       0.00 
freq.    1472.77  E(vib)   ...       0.00 
freq.    1473.69  E(vib)   ...       0.00 
freq.    1474.06  E(vib)   ...       0.00 
freq.    1480.20  E(vib)   ...       0.00 
freq.    1485.17  E(vib)   ...       0.00 
freq.    1498.32  E(vib)   ...       0.00 
freq.    1527.50  E(vib)   ...       0.00 
freq.    1532.64  E(vib)   ...       0.00 
freq.    1534.64  E(vib)   ...       0.00 
freq.    1540.08  E(vib)   ...       0.00 
freq.    1566.25  E(vib)   ...       0.00 
freq.    1636.38  E(vib)   ...       0.00 
freq.    1643.91  E(vib)   ...       0.00 
freq.    1647.32  E(vib)   ...       0.00 
freq.    1656.09  E(vib)   ...       0.00 
freq.    1664.89  E(vib)   ...       0.00 
freq.    1696.32  E(vib)   ...       0.00 
freq.    1784.82  E(vib)   ...       0.00 
freq.    3039.17  E(vib)   ...       0.00 
freq.    3070.53  E(vib)   ...       0.00 
freq.    3072.43  E(vib)   ...       0.00 
freq.    3108.60  E(vib)   ...       0.00 
freq.    3111.61  E(vib)   ...       0.00 
freq.    3156.45  E(vib)   ...       0.00 
freq.    3166.62  E(vib)   ...       0.00 
freq.    3189.75  E(vib)   ...       0.00 
freq.    3193.00  E(vib)   ...       0.00 
freq.    3207.91  E(vib)   ...       0.00 
freq.    3214.88  E(vib)   ...       0.00 
freq.    3221.84  E(vib)   ...       0.00 
freq.    3223.76  E(vib)   ...       0.00 
freq.    3230.58  E(vib)   ...       0.00 
freq.    3234.46  E(vib)   ...       0.00 
freq.    3234.81  E(vib)   ...       0.00 
freq.    3240.09  E(vib)   ...       0.00 
freq.    3241.60  E(vib)   ...       0.00 
freq.    3247.26  E(vib)   ...       0.00 
freq.    3252.94  E(vib)   ...       0.00 
freq.    3266.19  E(vib)   ...       0.00 

------------
INNER ENERGY
------------

The inner energy is: U= E(el) + E(ZPE) + E(vib) + E(rot) + E(trans)
    E(el)   - is the total energy from the electronic structure calculation
              = E(kin-el) + E(nuc-el) + E(el-el) + E(nuc-nuc)
    E(ZPE)  - the the zero temperature vibrational energy from the frequency calculation
    E(vib)  - the the finite temperature correction to E(ZPE) due to population
              of excited vibrational states
    E(rot)  - is the rotational thermal energy
    E(trans)- is the translational thermal energy

Summary of contributions to the inner energy U:
Electronic energy                ...  -1578.62254651 Eh
Zero point energy                ...      0.41912717 Eh     263.01 kcal/mol
Thermal vibrational correction   ...      0.02615950 Eh      16.42 kcal/mol
Thermal rotational correction    ...      0.00141627 Eh       0.89 kcal/mol
Thermal translational correction ...      0.00141627 Eh       0.89 kcal/mol
-----------------------------------------------------------------------
Total thermal energy                  -1578.17442729 Eh


Summary of corrections to the electronic energy:
(perhaps to be used in another calculation)
Total thermal correction                  0.02899204 Eh      18.19 kcal/mol
Non-thermal (ZPE) correction              0.41912717 Eh     263.01 kcal/mol
-----------------------------------------------------------------------
Total correction                          0.44811922 Eh     281.20 kcal/mol


--------
ENTHALPY
--------

The enthalpy is H = U + kB*T
                kB is Boltzmann's constant
Total free energy                 ...  -1578.17442729 Eh 
Thermal Enthalpy correction       ...      0.00094421 Eh       0.59 kcal/mol
-----------------------------------------------------------------------
Total Enthalpy                    ...  -1578.17348309 Eh


Note: Only C1 symmetry has been detected, increase convergence thresholds 
      if your molecule has a higher symmetry. Symmetry factor of 1.0 is   
      used for the rotational entropy correction. 
 

Note: Rotational entropy computed according to Herzberg 
Infrared and Raman Spectra, Chapter V,1, Van Nostrand Reinhold, 1945 
Point Group:  C1, Symmetry Number:   1  
Rotational constants in cm-1:     0.005857     0.003428     0.002882 

Vibrational entropy computed according to the QRRHO of S. Grimme
Chem.Eur.J. 2012 18 9955


-------
ENTROPY
-------

The entropy contributions are T*S = T*(S(el)+S(vib)+S(rot)+S(trans))
     S(el)   - electronic entropy
     S(vib)  - vibrational entropy
     S(rot)  - rotational entropy
     S(trans)- translational entropy
The entropies will be listed as multiplied by the temperature to get
units of energy

Electronic entropy                ...      0.00000000 Eh      0.00 kcal/mol
Vibrational entropy               ...      0.04743587 Eh     29.77 kcal/mol
Rotational entropy                ...      0.01737838 Eh     10.91 kcal/mol
Translational entropy             ...      0.02100593 Eh     13.18 kcal/mol
-----------------------------------------------------------------------
Final entropy term                ...      0.08582018 Eh     53.85 kcal/mol

In case the symmetry of your molecule has not been determined correctly
or in case you have a reason to use a different symmetry number we print 
out the resulting rotational entropy values for sn=1,12 :
 --------------------------------------------------------
|  sn= 1 | S(rot)=       0.01737838 Eh     10.91 kcal/mol|
|  sn= 2 | S(rot)=       0.01672392 Eh     10.49 kcal/mol|
|  sn= 3 | S(rot)=       0.01634109 Eh     10.25 kcal/mol|
|  sn= 4 | S(rot)=       0.01606947 Eh     10.08 kcal/mol|
|  sn= 5 | S(rot)=       0.01585878 Eh      9.95 kcal/mol|
|  sn= 6 | S(rot)=       0.01568663 Eh      9.84 kcal/mol|
|  sn= 7 | S(rot)=       0.01554109 Eh      9.75 kcal/mol|
|  sn= 8 | S(rot)=       0.01541501 Eh      9.67 kcal/mol|
|  sn= 9 | S(rot)=       0.01530380 Eh      9.60 kcal/mol|
|  sn=10 | S(rot)=       0.01520432 Eh      9.54 kcal/mol|
|  sn=11 | S(rot)=       0.01511433 Eh      9.48 kcal/mol|
|  sn=12 | S(rot)=       0.01503218 Eh      9.43 kcal/mol|
 --------------------------------------------------------


-------------------
GIBBS FREE ENERGY
-------------------

The Gibbs free energy is G = H - T*S

Total enthalpy                    ...  -1578.17348309 Eh 
Total entropy correction          ...     -0.08582018 Eh    -53.85 kcal/mol
-----------------------------------------------------------------------
Final Gibbs free energy         ...  -1578.25930327 Eh

For completeness - the Gibbs free energy minus the electronic energy
G-E(el)                           ...      0.36324324 Eh    227.94 kcal/mol


Timings for individual modules:

Sum of individual times         ...     5712.824 sec (=  95.214 min)
GTO integral calculation        ...        6.504 sec (=   0.108 min)   0.1 %
SCF iterations                  ...      385.133 sec (=   6.419 min)   6.7 %
SCF Gradient evaluation         ...       57.458 sec (=   0.958 min)   1.0 %
Geometry relaxation             ...        0.365 sec (=   0.006 min)   0.0 %
Analytical frequency calculation...     5263.364 sec (=  87.723 min)  92.1 %
                             ****ORCA TERMINATED NORMALLY****
TOTAL RUN TIME: 0 days 1 hours 35 minutes 20 seconds 797 msec
