
                                 *****************
                                 * O   R   C   A *
                                 *****************

                                            #,                                       
                                            ###                                      
                                            ####                                     
                                            #####                                    
                                            ######                                   
                                           ########,                                 
                                     ,,################,,,,,                         
                               ,,#################################,,                 
                          ,,##########################################,,             
                       ,#########################################, ''#####,          
                    ,#############################################,,   '####,        
                  ,##################################################,,,,####,       
                ,###########''''           ''''###############################       
              ,#####''   ,,,,##########,,,,          '''####'''          '####       
            ,##' ,,,,###########################,,,                        '##       
           ' ,,###''''                  '''############,,,                           
         ,,##''                                '''############,,,,        ,,,,,,###''
      ,#''                                            '''#######################'''  
     '                                                          ''''####''''         
             ,#######,   #######,   ,#######,      ##                                
            ,#'     '#,  ##    ##  ,#'     '#,    #''#        ######   ,####,        
            ##       ##  ##   ,#'  ##            #'  '#       #        #'  '#        
            ##       ##  #######   ##           ,######,      #####,   #    #        
            '#,     ,#'  ##    ##  '#,     ,#' ,#      #,         ##   #,  ,#        
             '#######'   ##     ##  '#######'  #'      '#     #####' # '####'        



                  #######################################################
                  #                        -***-                        #
                  #          Department of theory and spectroscopy      #
                  #    Directorship and core code : Frank Neese         #
                  #        Max Planck Institute fuer Kohlenforschung    #
                  #                Kaiser Wilhelm Platz 1               #
                  #                 D-45470 Muelheim/Ruhr               #
                  #                      Germany                        #
                  #                                                     #
                  #                  All rights reserved                #
                  #                        -***-                        #
                  #######################################################


                         Program Version 5.0.4 -  RELEASE  -


 With contributions from (in alphabetic order):
   Daniel Aravena         : Magnetic Suceptibility
   Michael Atanasov       : Ab Initio Ligand Field Theory (pilot matlab implementation)
   Alexander A. Auer      : GIAO ZORA, VPT2 properties, NMR spectrum
   Ute Becker             : Parallelization
   Giovanni Bistoni       : ED, misc. LED, open-shell LED, HFLD
   Martin Brehm           : Molecular dynamics
   Dmytro Bykov           : SCF Hessian
   Vijay G. Chilkuri      : MRCI spin determinant printing, contributions to CSF-ICE
   Dipayan Datta          : RHF DLPNO-CCSD density
   Achintya Kumar Dutta   : EOM-CC, STEOM-CC
   Dmitry Ganyushin       : Spin-Orbit,Spin-Spin,Magnetic field MRCI
   Miquel Garcia          : C-PCM and meta-GGA Hessian, CC/C-PCM, Gaussian charge scheme
   Yang Guo               : DLPNO-NEVPT2, F12-NEVPT2, CIM, IAO-localization
   Andreas Hansen         : Spin unrestricted coupled pair/coupled cluster methods
   Benjamin Helmich-Paris : MC-RPA, TRAH-SCF, COSX integrals
   Lee Huntington         : MR-EOM, pCC
   Robert Izsak           : Overlap fitted RIJCOSX, COSX-SCS-MP3, EOM
   Marcus Kettner         : VPT2
   Christian Kollmar      : KDIIS, OOCD, Brueckner-CCSD(T), CCSD density, CASPT2, CASPT2-K
   Simone Kossmann        : Meta GGA functionals, TD-DFT gradient, OOMP2, MP2 Hessian
   Martin Krupicka        : Initial AUTO-CI
   Lucas Lang             : DCDCAS
   Marvin Lechner         : AUTO-CI (C++ implementation), FIC-MRCC
   Dagmar Lenk            : GEPOL surface, SMD
   Dimitrios Liakos       : Extrapolation schemes; Compound Job, initial MDCI parallelization
   Dimitrios Manganas     : Further ROCIS development; embedding schemes
   Dimitrios Pantazis     : SARC Basis sets
   Anastasios Papadopoulos: AUTO-CI, single reference methods and gradients
   Taras Petrenko         : DFT Hessian,TD-DFT gradient, ASA, ECA, R-Raman, ABS, FL, XAS/XES, NRVS
   Peter Pinski           : DLPNO-MP2, DLPNO-MP2 Gradient
   Christoph Reimann      : Effective Core Potentials
   Marius Retegan         : Local ZFS, SOC
   Christoph Riplinger    : Optimizer, TS searches, QM/MM, DLPNO-CCSD(T), (RO)-DLPNO pert. Triples
   Tobias Risthaus        : Range-separated hybrids, TD-DFT gradient, RPA, STAB
   Michael Roemelt        : Original ROCIS implementation
   Masaaki Saitow         : Open-shell DLPNO-CCSD energy and density
   Barbara Sandhoefer     : DKH picture change effects
   Avijit Sen             : IP-ROCIS
   Kantharuban Sivalingam : CASSCF convergence, NEVPT2, FIC-MRCI
   Bernardo de Souza      : ESD, SOC TD-DFT
   Georgi Stoychev        : AutoAux, RI-MP2 NMR, DLPNO-MP2 response
   Willem Van den Heuvel  : Paramagnetic NMR
   Boris Wezisla          : Elementary symmetry handling
   Frank Wennmohs         : Technical directorship


 We gratefully acknowledge several colleagues who have allowed us to
 interface, adapt or use parts of their codes:
   Stefan Grimme, W. Hujo, H. Kruse, P. Pracht,  : VdW corrections, initial TS optimization,
                  C. Bannwarth, S. Ehlert          DFT functionals, gCP, sTDA/sTD-DF
   Ed Valeev, F. Pavosevic, A. Kumar             : LibInt (2-el integral package), F12 methods
   Garnet Chan, S. Sharma, J. Yang, R. Olivares  : DMRG
   Ulf Ekstrom                                   : XCFun DFT Library
   Mihaly Kallay                                 : mrcc  (arbitrary order and MRCC methods)
   Jiri Pittner, Ondrej Demel                    : Mk-CCSD
   Frank Weinhold                                : gennbo (NPA and NBO analysis)
   Christopher J. Cramer and Donald G. Truhlar   : smd solvation model
   Lars Goerigk                                  : TD-DFT with DH, B97 family of functionals
   V. Asgeirsson, H. Jonsson                     : NEB implementation
   FAccTs GmbH                                   : IRC, NEB, NEB-TS, DLPNO-Multilevel, CI-OPT
                                                   MM, QMMM, 2- and 3-layer-ONIOM, Crystal-QMMM,
                                                   LR-CPCM, SF, NACMEs, symmetry and pop. for TD-DFT,
                                                   nearIR, NL-DFT gradient (VV10), updates on ESD,
                                                   ML-optimized integration grids
   S Lehtola, MJT Oliveira, MAL Marques          : LibXC Library
   Liviu Ungur et al                             : ANISO software


 Your calculation uses the libint2 library for the computation of 2-el integrals
 For citations please refer to: http://libint.valeyev.net

 Your ORCA version has been built with support for libXC version: 5.1.0
 For citations please refer to: https://tddft.org/programs/libxc/

 This ORCA versions uses:
   CBLAS   interface :  Fast vector & matrix operations
   LAPACKE interface :  Fast linear algebra routines
   SCALAPACK package :  Parallel linear algebra routines
   Shared memory     :  Shared parallel matrices
   BLAS/LAPACK       :  OpenBLAS 0.3.15  USE64BITINT DYNAMIC_ARCH NO_AFFINITY Haswell SINGLE_THREADED
        Core in use  :  Haswell
   Copyright (c) 2011-2014, The OpenBLAS Project


Your calculation utilizes the atom-pairwise dispersion correction
with the Becke-Johnson damping scheme (D3BJ)
Cite in your paper:
S.Grimme, S.Ehrlich, L.Goerigk, J Comput Chem, (2011), 32, 1456–1465 
S.Grimme, J.Antony, S.Ehrlich and H.Krieg, J.Chem.Phys., 132, (2010), 154104 
   

================================================================================

----- Orbital basis set information -----
Your calculation utilizes the basis: def2-TZVP
   F. Weigend and R. Ahlrichs, Phys. Chem. Chem. Phys. 7, 3297 (2005).

----- AuxJ basis set information -----
Your calculation utilizes the auxiliary basis: def2/J
   F. Weigend, Phys. Chem. Chem. Phys. 8, 1057 (2006).

================================================================================
                                        WARNINGS
                       Please study these warnings very carefully!
================================================================================


WARNING: Geometry Optimization
  ===> : Switching off AutoStart
         For restart on a previous wavefunction, please use MOREAD

INFO   : the flag for use of the SHARK integral package has been found!

================================================================================
                                       INPUT FILE
================================================================================
NAME = IM_CO2Me/IM_CO2Me.inp
|  1> %pal nprocs 24 end
|  2> ! PBE0 D3BJ def2-TZVP TightSCF OPT FREQ TightOpt
|  3> ! CPCM(dmso)
|  4> %scf
|  5> MaxIter 800
|  6> end
|  7> 
|  8> %geom
|  9> MaxIter 800
| 10> MaxStep 0.15
| 11> end
| 12> 
| 13> *xyz 0 1
| 14> C      -4.09313100      1.99397000     -0.44471000
| 15> C      -3.14144600      2.44376100     -1.36113000
| 16> C      -1.80550400      2.20132900     -1.11343200
| 17> N      -1.42052300      1.54701200      0.00084700
| 18> C      -2.32256200      1.09399600      0.89610400
| 19> C      -3.67430300      1.31531100      0.69550900
| 20> C      -0.00915600      1.19761500      0.16511300
| 21> C       0.47942400      1.58729000      1.55033300
| 22> O      -0.18069800      2.16216800      2.38110400
| 23> O       1.77338500      1.35089500      1.65519000
| 24> C       2.37724000      1.64083200      2.90921700
| 25> H      -5.15595900      2.17315800     -0.62127000
| 26> H      -1.00939200      2.51095600     -1.79237100
| 27> H      -1.91955400      0.59643200      1.77694100
| 28> H      -4.38535200      0.94744500      1.43587300
| 29> H       0.55809500      1.83795100     -0.52523900
| 30> H       2.28211900      2.70904700      3.15007300
| 31> H       3.43292000      1.36635100      2.80796200
| 32> C      -0.76345400     -1.28489000      0.16835000
| 33> C       0.20175400     -0.26345800     -0.35260900
| 34> C       1.66428800     -0.66786900     -0.36065700
| 35> C       2.16690000     -1.72598700      0.39251200
| 36> C       3.51305300     -2.09174400      0.32963100
| 37> C       4.37620300     -1.38937000     -0.50575500
| 38> C       3.89840000     -0.33540000     -1.28646900
| 39> C       2.54824200      0.02009600     -1.21896600
| 40> O       2.00114500      1.01792400     -1.95164800
| 41> C       2.81148200      1.74300300     -2.84700000
| 42> N      -0.80578800     -1.53447000      1.51537900
| 43> O      -1.48156500     -2.43747400      2.01172700
| 44> H      -0.05894200     -0.16027500     -1.41449600
| 45> H       1.49289400     -2.27850000      1.04739900
| 46> H       3.88130100     -2.92384300      0.93396100
| 47> H       5.43325300     -1.66126500     -0.56375300
| 48> H       4.58051800      0.19927200     -1.94805200
| 49> H       2.15874500      2.48122000     -3.32870500
| 50> H       3.24641300      1.08566900     -3.61790800
| 51> H       3.62517000      2.26802700     -2.31988600
| 52> O      -0.13783300     -0.77272000      2.26260900
| 53> H       1.90527600      1.04530700      3.70356500
| 54> H      -3.42623500      2.97850000     -2.26783700
| 55> C      -1.64064300     -2.01063800     -0.72734200
| 56> O      -2.45118300     -2.87916000     -0.46437600
| 57> O      -1.48583100     -1.58199900     -2.00957200
| 58> C      -2.33656300     -2.17582700     -2.96963500
| 59> H      -2.07901300     -1.71911700     -3.93290700
| 60> H      -2.18404100     -3.26450700     -3.01961300
| 61> H      -3.39497600     -1.98342000     -2.73681400
| 62> *
| 63> 
| 64>                          ****END OF INPUT****
================================================================================

                       *****************************
                       * Geometry Optimization Run *
                       *****************************

Geometry optimization settings:
Update method            Update   .... BFGS
Choice of coordinates    CoordSys .... Z-matrix Internals
Initial Hessian          InHess   .... Almoef's Model

Convergence Tolerances:
Energy Change            TolE     ....  1.0000e-06 Eh
Max. Gradient            TolMAXG  ....  1.0000e-04 Eh/bohr
RMS Gradient             TolRMSG  ....  3.0000e-05 Eh/bohr
Max. Displacement        TolMAXD  ....  1.0000e-03 bohr
RMS Displacement         TolRMSD  ....  6.0000e-04 bohr
Strict Convergence                ....  False
------------------------------------------------------------------------------
                        ORCA OPTIMIZATION COORDINATE SETUP
------------------------------------------------------------------------------

The optimization will be done in new redundant internal coordinates
Making redundant internal coordinates   ...  (new redundants) done
Evaluating the initial hessian          ...  (Almloef) done
Evaluating the coordinates              ...  done
Calculating the B-matrix                .... done
Calculating the G-matrix                .... done
Diagonalizing the G-matrix              .... done
Small eigenvalue found = 3.323e-03
Small eigenvalue found = 4.401e-03
Small eigenvalue found = 5.778e-03
Small eigenvalue found = 9.498e-03
Small eigenvalue found = 1.224e-02
Small eigenvalue found = 1.483e-02
Small eigenvalue found = 2.115e-02
Small eigenvalue found = 2.551e-02
The first mode is                       ....   97
The number of degrees of freedom        ....  138

    -----------------------------------------------------------------
                    Redundant Internal Coordinates


    -----------------------------------------------------------------
         Definition                    Initial Value    Approx d2E/dq
    -----------------------------------------------------------------
      1. B(C   1,C   0)                  1.3957         0.611959   
      2. B(C   2,C   1)                  1.3802         0.647772   
      3. B(N   3,C   2)                  1.3483         0.652196   
      4. B(C   4,N   3)                  1.3492         0.650046   
      5. B(C   5,C   4)                  1.3843         0.637902   
      6. B(C   5,C   0)                  1.3914         0.621509   
      7. B(C   6,N   3)                  1.4632         0.427617   
      8. B(C   7,C   6)                  1.5197         0.388026   
      9. B(O   8,C   7)                  1.2068         1.096781   
     10. B(O   9,C   7)                  1.3196         0.724893   
     11. B(C  10,O   9)                  1.4217         0.498044   
     12. B(H  11,C   0)                  1.0922         0.357211   
     13. B(H  12,C   2)                  1.0912         0.358574   
     14. B(H  13,C   4)                  1.0890         0.361463   
     15. B(H  14,C   5)                  1.0904         0.359521   
     16. B(H  15,C   6)                  1.0993         0.348046   
     17. B(H  16,C  10)                  1.0992         0.348190   
     18. B(H  17,C  10)                  1.0955         0.352937   
     19. B(C  19,C  18)                  1.4988         0.418971   
     20. B(C  19,C   6)                  1.5644         0.329263   
     21. B(C  20,C  19)                  1.5174         0.391218   
     22. B(C  21,C  20)                  1.3927         0.618726   
     23. B(C  22,C  21)                  1.3964         0.610337   
     24. B(C  23,C  22)                  1.3915         0.621400   
     25. B(C  24,C  23)                  1.3959         0.611299   
     26. B(C  25,C  24)                  1.3978         0.607135   
     27. B(C  25,C  20)                  1.4112         0.578074   
     28. B(O  26,C  25)                  1.3534         0.640037   
     29. B(C  27,O  26)                  1.4086         0.522714   
     30. B(N  28,C  18)                  1.3706         0.600914   
     31. B(O  29,N  28)                  1.2323         0.894715   
     32. B(H  30,C  19)                  1.0983         0.349315   
     33. B(H  31,C  21)                  1.0902         0.359899   
     34. B(H  32,C  22)                  1.0923         0.357016   
     35. B(H  33,C  23)                  1.0930         0.356155   
     36. B(H  34,C  24)                  1.0903         0.359645   
     37. B(H  35,C  27)                  1.0968         0.351157   
     38. B(H  36,C  27)                  1.1025         0.343912   
     39. B(H  37,C  27)                  1.1025         0.343891   
     40. B(O  38,N  28)                  1.2589         0.811345   
     41. B(H  39,C  10)                  1.0993         0.348047   
     42. B(H  40,C   1)                  1.0905         0.359453   
     43. B(C  41,C  18)                  1.4486         0.503790   
     44. B(O  42,C  41)                  1.2167         1.057549   
     45. B(O  43,C  41)                  1.3608         0.622933   
     46. B(C  44,O  43)                  1.4135         0.513237   
     47. B(H  45,C  44)                  1.0967         0.351311   
     48. B(H  46,C  44)                  1.1004         0.346541   
     49. B(H  47,H  11)                  4.9854         0.000000   
     50. B(H  47,C  44)                  1.1007         0.346264   
     51. A(C   1,C   0,C   5)          119.3413         0.433237   
     52. A(C   5,C   0,H  11)          120.3580         0.352573   
     53. A(C   1,C   0,H  11)          120.3007         0.351651   
     54. A(C   0,C   1,C   2)          119.0510         0.436477   
     55. A(C   0,C   1,H  40)          121.7300         0.352023   
     56. A(C   2,C   1,H  40)          119.2188         0.355431   
     57. A(C   1,C   2,H  12)          123.0049         0.355283   
     58. A(N   3,C   2,H  12)          116.3337         0.353499   
     59. A(C   1,C   2,N   3)          120.6596         0.438621   
     60. A(C   4,N   3,C   6)          119.3541         0.404399   
     61. A(C   2,N   3,C   4)          121.3597         0.436019   
     62. A(C   2,N   3,C   6)          118.9512         0.404635   
     63. A(N   3,C   4,C   5)          120.1981         0.437148   
     64. A(C   5,C   4,H  13)          123.4780         0.354842   
     65. A(N   3,C   4,H  13)          116.2767         0.353782   
     66. A(C   0,C   5,C   4)          119.3820         0.436488   
     67. A(C   4,C   5,H  14)          118.9733         0.354518   
     68. A(C   0,C   5,H  14)          121.6441         0.352958   
     69. A(H  15,C   6,C  19)          105.4643         0.315934   
     70. A(C   7,C   6,C  19)          119.8552         0.357922   
     71. A(N   3,C   6,C  19)          108.4157         0.361639   
     72. A(C   7,C   6,H  15)          104.9026         0.324527   
     73. A(N   3,C   6,C   7)          110.5615         0.371964   
     74. A(N   3,C   6,H  15)          106.7467         0.327782   
     75. A(C   6,C   7,O   9)          109.9845         0.407868   
     76. A(C   6,C   7,O   8)          125.0141         0.439201   
     77. A(O   8,C   7,O   9)          124.5426         0.489092   
     78. A(C   7,O   9,C  10)          116.7473         0.423626   
     79. A(O   9,C  10,H  39)          110.1540         0.336166   
     80. A(H  16,C  10,H  17)          110.3136         0.288400   
     81. A(O   9,C  10,H  17)          106.0623         0.336948   
     82. A(O   9,C  10,H  16)          110.7762         0.336189   
     83. A(H  17,C  10,H  39)          110.1697         0.288381   
     84. A(H  16,C  10,H  39)          109.3293         0.287771   
     85. A(C  19,C  18,N  28)          119.0517         0.399968   
     86. A(N  28,C  18,C  41)          119.8510         0.413219   
     87. A(C  19,C  18,C  41)          121.0966         0.390283   
     88. A(C   6,C  19,C  20)          112.3714         0.358421   
     89. A(C   6,C  19,C  18)          115.7630         0.362633   
     90. A(C  20,C  19,H  30)          104.4000         0.325159   
     91. A(C  18,C  19,H  30)          104.3140         0.328850   
     92. A(C   6,C  19,H  30)          101.5505         0.316121   
     93. A(C  18,C  19,C  20)          116.1619         0.373522   
     94. A(C  21,C  20,C  25)          118.2473         0.428483   
     95. A(C  19,C  20,C  25)          118.4920         0.395026   
     96. A(C  19,C  20,C  21)          123.1932         0.399770   
     97. A(C  22,C  21,H  31)          119.3623         0.351939   
     98. A(C  20,C  21,H  31)          119.1321         0.352753   
     99. A(C  20,C  21,C  22)          121.5055         0.432681   
    100. A(C  23,C  22,H  32)          120.4998         0.352530   
    101. A(C  21,C  22,H  32)          119.9742         0.351461   
    102. A(C  21,C  22,C  23)          119.5261         0.433017   
    103. A(C  24,C  23,H  33)          119.2857         0.351411   
    104. A(C  22,C  23,H  33)          120.4109         0.352386   
    105. A(C  22,C  23,C  24)          120.3017         0.433140   
    106. A(C  25,C  24,H  34)          120.5881         0.351584   
    107. A(C  23,C  24,H  34)          119.7000         0.351991   
    108. A(C  23,C  24,C  25)          119.7109         0.431335   
    109. A(C  24,C  25,O  26)          123.4910         0.432067   
    110. A(C  20,C  25,O  26)          115.8158         0.428280   
    111. A(C  20,C  25,C  24)          120.6929         0.427033   
    112. A(C  25,O  26,C  27)          119.4110         0.417908   
    113. A(H  36,C  27,H  37)          109.0909         0.286678   
    114. A(H  35,C  27,H  37)          109.1876         0.287613   
    115. A(O  26,C  27,H  37)          111.4572         0.338207   
    116. A(H  35,C  27,H  36)          109.2052         0.287615   
    117. A(O  26,C  27,H  36)          111.3768         0.338211   
    118. A(O  26,C  27,H  35)          106.4547         0.339389   
    119. A(C  18,N  28,O  38)          117.1796         0.444166   
    120. A(C  18,N  28,O  29)          123.1098         0.452116   
    121. A(O  29,N  28,O  38)          119.6906         0.474388   
    122. A(O  42,C  41,O  43)          120.2829         0.472424   
    123. A(C  18,C  41,O  43)          110.8494         0.415870   
    124. A(C  18,C  41,O  42)          128.8566         0.457469   
    125. A(C  41,O  43,C  44)          116.0512         0.414546   
    126. A(H  46,C  44,H  47)          108.4107         0.287327   
    127. A(H  45,C  44,H  47)          109.8045         0.287942   
    128. A(O  43,C  44,H  47)          111.2007         0.337564   
    129. A(H  45,C  44,H  46)          109.8488         0.287978   
    130. A(O  43,C  44,H  46)          111.2869         0.337609   
    131. A(O  43,C  44,H  45)          106.2761         0.338379   
    132. D(C   2,C   1,C   0,H  11)   -179.8943         0.025874   
    133. D(H  40,C   1,C   0,C   5)    179.9277         0.025874   
    134. D(C   2,C   1,C   0,C   5)      0.1054         0.025874   
    135. D(H  40,C   1,C   0,H  11)     -0.0721         0.025874   
    136. D(N   3,C   2,C   1,H  40)    179.7632         0.029202   
    137. D(H  12,C   2,C   1,C   0)    179.0934         0.029202   
    138. D(H  12,C   2,C   1,H  40)     -0.7333         0.029202   
    139. D(N   3,C   2,C   1,C   0)     -0.4100         0.029202   
    140. D(C   4,N   3,C   2,H  12)   -178.6149         0.034734   
    141. D(C   6,N   3,C   2,H  12)     -5.3044         0.034734   
    142. D(C   4,N   3,C   2,C   1)      0.9205         0.034734   
    143. D(C   6,N   3,C   2,C   1)    174.2309         0.034734   
    144. D(C   5,C   4,N   3,C   6)   -174.3896         0.034485   
    145. D(C   5,C   4,N   3,C   2)     -1.1056         0.034485   
    146. D(H  13,C   4,N   3,C   2)   -178.6949         0.034485   
    147. D(H  13,C   4,N   3,C   6)      8.0211         0.034485   
    148. D(H  14,C   5,C   4,H  13)     -2.1018         0.028260   
    149. D(C   0,C   5,C   4,H  13)    178.1898         0.028260   
    150. D(H  14,C   5,C   0,H  11)      0.0101         0.026737   
    151. D(C   0,C   5,C   4,N   3)      0.7814         0.028260   
    152. D(H  14,C   5,C   0,C   1)   -179.9896         0.026737   
    153. D(H  14,C   5,C   4,N   3)   -179.5102         0.028260   
    154. D(C   4,C   5,C   0,H  11)    179.7105         0.026737   
    155. D(C   4,C   5,C   0,C   1)     -0.2893         0.026737   
    156. D(C  19,C   6,N   3,C   4)     78.9346         0.015590   
    157. D(C  19,C   6,N   3,C   2)    -94.5122         0.015590   
    158. D(H  15,C   6,N   3,C   4)   -167.8826         0.015590   
    159. D(C   7,C   6,N   3,C   2)    132.2307         0.015590   
    160. D(H  15,C   6,N   3,C   2)     18.6706         0.015590   
    161. D(C   7,C   6,N   3,C   4)    -54.3225         0.015590   
    162. D(O   8,C   7,C   6,N   3)     -3.2680         0.011208   
    163. D(O   9,C   7,C   6,C  19)     57.0463         0.011208   
    164. D(O   9,C   7,C   6,H  15)    -61.0461         0.011208   
    165. D(O   9,C   7,C   6,N   3)   -175.7723         0.011208   
    166. D(O   8,C   7,C   6,C  19)   -130.4493         0.011208   
    167. D(O   8,C   7,C   6,H  15)    111.4583         0.011208   
    168. D(C  10,O   9,C   7,O   8)      8.6478         0.039624   
    169. D(C  10,O   9,C   7,C   6)   -178.8049         0.039624   
    170. D(H  39,C  10,O   9,C   7)     59.8068         0.019605   
    171. D(H  17,C  10,O   9,C   7)    179.0083         0.019605   
    172. D(H  16,C  10,O   9,C   7)    -61.2809         0.019605   
    173. D(H  30,C  19,C  18,C  41)      7.7221         0.012982   
    174. D(C  20,C  19,C  18,C  41)   -106.5642         0.012982   
    175. D(C  20,C  19,C  18,N  28)     73.1335         0.012982   
    176. D(C   6,C  19,C  18,C  41)    118.3685         0.012982   
    177. D(C   6,C  19,C  18,N  28)    -61.9339         0.012982   
    178. D(H  30,C  19,C   6,H  15)    -51.1110         0.008833   
    179. D(H  30,C  19,C   6,C   7)   -168.9161         0.008833   
    180. D(H  30,C  19,C   6,N   3)     62.9190         0.008833   
    181. D(C  20,C  19,C   6,H  15)     59.9036         0.008833   
    182. D(C  20,C  19,C   6,C   7)    -57.9015         0.008833   
    183. D(C  20,C  19,C   6,N   3)    173.9336         0.008833   
    184. D(C  18,C  19,C   6,H  15)   -163.3723         0.008833   
    185. D(H  30,C  19,C  18,N  28)   -172.5803         0.012982   
    186. D(C  18,C  19,C   6,N   3)    -49.3423         0.008833   
    187. D(C  18,C  19,C   6,C   7)     78.8226         0.008833   
    188. D(C  25,C  20,C  19,H  30)     44.8202         0.011383   
    189. D(C  25,C  20,C  19,C  18)    159.0575         0.011383   
    190. D(C  25,C  20,C  19,C   6)    -64.4018         0.011383   
    191. D(C  21,C  20,C  19,H  30)   -132.1369         0.011383   
    192. D(C  21,C  20,C  19,C  18)    -17.8995         0.011383   
    193. D(C  21,C  20,C  19,C   6)    118.6411         0.011383   
    194. D(C  22,C  21,C  20,C  19)    178.1651         0.026484   
    195. D(H  31,C  21,C  20,C  25)   -178.9536         0.026484   
    196. D(H  31,C  21,C  20,C  19)     -1.9895         0.026484   
    197. D(C  22,C  21,C  20,C  25)      1.2010         0.026484   
    198. D(H  32,C  22,C  21,H  31)     -0.0533         0.025729   
    199. D(H  32,C  22,C  21,C  20)    179.7917         0.025729   
    200. D(C  23,C  22,C  21,H  31)    179.9605         0.025729   
    201. D(C  23,C  22,C  21,C  20)     -0.1944         0.025729   
    202. D(H  33,C  23,C  22,H  32)     -0.1843         0.026727   
    203. D(H  33,C  23,C  22,C  21)    179.8018         0.026727   
    204. D(C  24,C  23,C  22,H  32)    179.3477         0.026727   
    205. D(C  24,C  23,C  22,C  21)     -0.6662         0.026727   
    206. D(H  34,C  24,C  23,H  33)      0.3897         0.025815   
    207. D(H  34,C  24,C  23,C  22)   -179.1476         0.025815   
    208. D(C  25,C  24,C  23,H  33)   -179.9813         0.025815   
    209. D(C  25,C  24,C  23,C  22)      0.4814         0.025815   
    210. D(O  26,C  25,C  24,H  34)      0.3732         0.025444   
    211. D(O  26,C  25,C  24,C  23)   -179.2524         0.025444   
    212. D(C  20,C  25,C  24,H  34)   -179.8166         0.025444   
    213. D(C  20,C  25,C  24,C  23)      0.5577         0.025444   
    214. D(O  26,C  25,C  20,C  21)    178.4446         0.022952   
    215. D(O  26,C  25,C  20,C  19)      1.3351         0.022952   
    216. D(C  24,C  25,C  20,C  21)     -1.3795         0.022952   
    217. D(C  24,C  25,C  20,C  19)   -178.4890         0.022952   
    218. D(C  27,O  26,C  25,C  24)      0.6631         0.030200   
    219. D(C  27,O  26,C  25,C  20)   -179.1555         0.030200   
    220. D(H  37,C  27,O  26,C  25)    -61.5927         0.021672   
    221. D(H  36,C  27,O  26,C  25)     60.4964         0.021672   
    222. D(H  35,C  27,O  26,C  25)    179.4402         0.021672   
    223. D(O  38,N  28,C  18,C  41)   -172.0331         0.029103   
    224. D(O  38,N  28,C  18,C  19)      8.2653         0.029103   
    225. D(O  29,N  28,C  18,C  41)      6.3343         0.029103   
    226. D(O  29,N  28,C  18,C  19)   -173.3672         0.029103   
    227. D(O  43,C  41,C  18,N  28)    177.5017         0.017291   
    228. D(O  43,C  41,C  18,C  19)     -2.8030         0.017291   
    229. D(O  42,C  41,C  18,N  28)     -1.2680         0.017291   
    230. D(O  42,C  41,C  18,C  19)    178.4273         0.017291   
    231. D(C  44,O  43,C  41,O  42)      1.7063         0.028490   
    232. D(C  44,O  43,C  41,C  18)   -177.1843         0.028490   
    233. D(H  47,C  44,O  43,C  41)     60.4988         0.020862   
    234. D(H  46,C  44,O  43,C  41)    -60.4777         0.020862   
    235. D(H  45,C  44,O  43,C  41)    179.9599         0.020862   
    -----------------------------------------------------------------

Number of atoms                         .... 48
Number of degrees of freedom            .... 235

         *************************************************************
         *                GEOMETRY OPTIMIZATION CYCLE   1            *
         *************************************************************
---------------------------------
CARTESIAN COORDINATES (ANGSTROEM)
---------------------------------
  C     -4.093131    1.993970   -0.444710
  C     -3.141446    2.443761   -1.361130
  C     -1.805504    2.201329   -1.113432
  N     -1.420523    1.547012    0.000847
  C     -2.322562    1.093996    0.896104
  C     -3.674303    1.315311    0.695509
  C     -0.009156    1.197615    0.165113
  C      0.479424    1.587290    1.550333
  O     -0.180698    2.162168    2.381104
  O      1.773385    1.350895    1.655190
  C      2.377240    1.640832    2.909217
  H     -5.155959    2.173158   -0.621270
  H     -1.009392    2.510956   -1.792371
  H     -1.919554    0.596432    1.776941
  H     -4.385352    0.947445    1.435873
  H      0.558095    1.837951   -0.525239
  H      2.282119    2.709047    3.150073
  H      3.432920    1.366351    2.807962
  C     -0.763454   -1.284890    0.168350
  C      0.201754   -0.263458   -0.352609
  C      1.664288   -0.667869   -0.360657
  C      2.166900   -1.725987    0.392512
  C      3.513053   -2.091744    0.329631
  C      4.376203   -1.389370   -0.505755
  C      3.898400   -0.335400   -1.286469
  C      2.548242    0.020096   -1.218966
  O      2.001145    1.017924   -1.951648
  C      2.811482    1.743003   -2.847000
  N     -0.805788   -1.534470    1.515379
  O     -1.481565   -2.437474    2.011727
  H     -0.058942   -0.160275   -1.414496
  H      1.492894   -2.278500    1.047399
  H      3.881301   -2.923843    0.933961
  H      5.433253   -1.661265   -0.563753
  H      4.580518    0.199272   -1.948052
  H      2.158745    2.481220   -3.328705
  H      3.246413    1.085669   -3.617908
  H      3.625170    2.268027   -2.319886
  O     -0.137833   -0.772720    2.262609
  H      1.905276    1.045307    3.703565
  H     -3.426235    2.978500   -2.267837
  C     -1.640643   -2.010638   -0.727342
  O     -2.451183   -2.879160   -0.464376
  O     -1.485831   -1.581999   -2.009572
  C     -2.336563   -2.175827   -2.969635
  H     -2.079013   -1.719117   -3.932907
  H     -2.184041   -3.264507   -3.019613
  H     -3.394976   -1.983420   -2.736814

----------------------------
CARTESIAN COORDINATES (A.U.)
----------------------------
  NO LB      ZA    FRAG     MASS         X           Y           Z
   0 C     6.0000    0    12.011   -7.734897    3.768057   -0.840380
   1 C     6.0000    0    12.011   -5.936473    4.618039   -2.572163
   2 C     6.0000    0    12.011   -3.411908    4.159909   -2.104082
   3 N     7.0000    0    14.007   -2.684399    2.923429    0.001601
   4 C     6.0000    0    12.011   -4.389006    2.067353    1.693391
   5 C     6.0000    0    12.011   -6.943426    2.485578    1.314322
   6 C     6.0000    0    12.011   -0.017302    2.263164    0.312018
   7 C     6.0000    0    12.011    0.905980    2.999543    2.929705
   8 O     8.0000    0    15.999   -0.341470    4.085905    4.499634
   9 O     8.0000    0    15.999    3.351212    2.552822    3.127856
  10 C     6.0000    0    12.011    4.492333    3.100723    5.497623
  11 H     1.0000    0     1.008   -9.743350    4.106673   -1.174030
  12 H     1.0000    0     1.008   -1.907474    4.745019   -3.387090
  13 H     1.0000    0     1.008   -3.627431    1.127093    3.357932
  14 H     1.0000    0     1.008   -8.287114    1.790412    2.713407
  15 H     1.0000    0     1.008    1.054647    3.473224   -0.992558
  16 H     1.0000    0     1.008    4.312580    5.119357    5.952775
  17 H     1.0000    0     1.008    6.487279    2.582029    5.306279
  18 C     6.0000    0    12.011   -1.442719   -2.428090    0.318135
  19 C     6.0000    0    12.011    0.381260   -0.497863   -0.666334
  20 C     6.0000    0    12.011    3.145049   -1.262090   -0.681543
  21 C     6.0000    0    12.011    4.094848   -3.261643    0.741740
  22 C     6.0000    0    12.011    6.638708   -3.952823    0.622912
  23 C     6.0000    0    12.011    8.269825   -2.625529   -0.955738
  24 C     6.0000    0    12.011    7.366908   -0.633814   -2.431074
  25 C     6.0000    0    12.011    4.815480    0.037976   -2.303512
  26 O     8.0000    0    15.999    3.781616    1.923598   -3.688080
  27 C     6.0000    0    12.011    5.312931    3.293798   -5.380050
  28 N     7.0000    0    14.007   -1.522719   -2.899728    2.863651
  29 O     8.0000    0    15.999   -2.799752   -4.606158    3.801613
  30 H     1.0000    0     1.008   -0.111384   -0.302876   -2.673010
  31 H     1.0000    0     1.008    2.821161   -4.305741    1.979297
  32 H     1.0000    0     1.008    7.334596   -5.525263    1.764931
  33 H     1.0000    0     1.008   10.267360   -3.139336   -1.065339
  34 H     1.0000    0     1.008    8.655925    0.376570   -3.681285
  35 H     1.0000    0     1.008    4.079437    4.688826   -6.290341
  36 H     1.0000    0     1.008    6.134831    2.051617   -6.836855
  37 H     1.0000    0     1.008    6.850578    4.285950   -4.383949
  38 O     8.0000    0    15.999   -0.260467   -1.460229    4.275711
  39 H     1.0000    0     1.008    3.600450    1.975344    6.998724
  40 H     1.0000    0     1.008   -6.474646    5.628549   -4.285591
  41 C     6.0000    0    12.011   -3.100366   -3.799555   -1.374477
  42 O     8.0000    0    15.999   -4.632065   -5.440824   -0.877543
  43 O     8.0000    0    15.999   -2.807814   -2.989545   -3.797541
  44 C     6.0000    0    12.011   -4.415464   -4.111717   -5.611797
  45 H     1.0000    0     1.008   -3.928765   -3.248660   -7.432117
  46 H     1.0000    0     1.008   -4.127239   -6.169024   -5.706242
  47 H     1.0000    0     1.008   -6.415575   -3.748121   -5.171829

--------------------------------
INTERNAL COORDINATES (ANGSTROEM)
--------------------------------
 C      0   0   0     0.000000000000     0.00000000     0.00000000
 C      1   0   0     1.395651066458     0.00000000     0.00000000
 C      2   1   0     1.380169772598   119.05100466     0.00000000
 N      3   2   1     1.348317023808   120.65960905   359.58996628
 C      4   3   2     1.349215679506   121.35974882     0.92051728
 C      5   4   3     1.384349094098   120.19809835   358.89441996
 C      4   3   2     1.463221921328   118.95118118   174.23092476
 C      7   4   3     1.519668210638   110.56145888   132.23070981
 O      8   7   4     1.206824852333   125.01410778   356.73199561
 O      8   7   4     1.319550171837   109.98451291   184.22768128
 C     10   8   7     1.421720099641   116.74726539   181.19508646
 H      1   2   3     1.092192808312   120.30068017   180.10566847
 H      3   2   1     1.091155974824   123.00491621   179.09342451
 H      5   4   3     1.088971626228   116.27674327   181.30508249
 H      6   5   4     1.090437951858   118.97325805   180.48983435
 H      7   4   3     1.099267835335   106.74667612    18.67062232
 H     11  10   8     1.099155541132   110.77619658   298.71907127
 H     11  10   8     1.095469149171   106.06229170   179.00834269
 C      7   4   3     2.594572609506    87.03038075   242.20980451
 C     19   7   4     1.498782203514    32.88855896   133.88487126
 C     20  19   7     1.517438212377   116.16190399   135.06738641
 C     21  20  19     1.392657914575   123.19319534   342.10045381
 C     22  21  20     1.396373912181   121.50548737   178.16507502
 C     23  22  21     1.391483714375   119.52606213   359.80556510
 C     24  23  22     1.395945134131   120.30174019   359.33383736
 C     25  24  23     1.397805668177   119.71090022     0.48139822
 O     26  25  24     1.353439602685   123.49104763   180.74759855
 C     27  26  25     1.408559836753   119.41104791     0.66310704
 N     19   7   4     1.370609160482   100.62817349   262.17833666
 O     29  19   7     1.232254890373   123.10979539   157.45540688
 H     20  19   7     1.098277349613   104.31395074   249.35360273
 H     22  21  20     1.090152138912   119.13206478   358.01045901
 H     23  22  21     1.092341560230   119.97418182   179.79174321
 H     24  23  22     1.092998335556   120.41092291   179.80176833
 H     25  24  23     1.090344523257   119.69995448   180.85242248
 H     28  27  26     1.096845311465   106.45469044   179.44015614
 H     28  27  26     1.102520796530   111.37678847    60.49641152
 H     28  27  26     1.102536861477   111.45719571   298.40725483
 O     29  19   7     1.258880303057   117.17961370   339.08792069
 H     11  10   8     1.099267386956   110.15398225    59.80676086
 H      2   1   3     1.090489869963   121.72999216   179.82223538
 C     19   7   4     1.448597549387   130.89188863    48.52842206
 O     42  19   7     1.216740183129   128.85663400   217.62899687
 O     42  19   7     1.360812963109   110.84938361    36.39867958
 C     44  42  19     1.413540800040   116.05121214   182.81570087
 H     45  44  42     1.096726480297   106.27613061   179.95985016
 H     45  44  42     1.100447592286   111.28687704   299.52227718
 H     45  44  42     1.100665321639   111.20071221    60.49879426

---------------------------
INTERNAL COORDINATES (A.U.)
---------------------------
 C      0   0   0     0.000000000000     0.00000000     0.00000000
 C      1   0   0     2.637398294121     0.00000000     0.00000000
 C      2   1   0     2.608142888526   119.05100466     0.00000000
 N      3   2   1     2.547949916701   120.65960905   359.58996628
 C      4   3   2     2.549648129860   121.35974882     0.92051728
 C      5   4   3     2.616040661588   120.19809835   358.89441996
 C      4   3   2     2.765088704459   118.95118118   174.23092476
 C      7   4   3     2.871756732533   110.56145888   132.23070981
 O      8   7   4     2.280568462520   125.01410778   356.73199561
 O      8   7   4     2.493588444741   109.98451291   184.22768128
 C     10   8   7     2.686661627413   116.74726539   181.19508646
 H      1   2   3     2.063945293148   120.30068017   180.10566847
 H      3   2   1     2.061985961809   123.00491621   179.09342451
 H      5   4   3     2.057858141181   116.27674327   181.30508249
 H      6   5   4     2.060629095046   118.97325805   180.48983435
 H      7   4   3     2.077315156611   106.74667612    18.67062232
 H     11  10   8     2.077102951322   110.77619658   298.71907127
 H     11  10   8     2.070136680093   106.06229170   179.00834269
 C      7   4   3     4.903031666539    87.03038075   242.20980451
 C     19   7   4     2.832287899036    32.88855896   133.88487126
 C     20  19   7     2.867542646539   116.16190399   135.06738641
 C     21  20  19     2.631742056785   123.19319534   342.10045381
 C     22  21  20     2.638764274574   121.50548737   178.16507502
 C     23  22  21     2.629523139981   119.52606213   359.80556510
 C     24  23  22     2.637954001488   120.30174019   359.33383736
 C     25  24  23     2.641469901298   119.71090022     0.48139822
 O     26  25  24     2.557630187878   123.49104763   180.74759855
 C     27  26  25     2.661792334704   119.41104791     0.66310704
 N     19   7   4     2.590075949955   100.62817349   262.17833666
 O     29  19   7     2.328624269991   123.10979539   157.45540688
 H     20  19   7     2.075443409858   104.31395074   249.35360273
 H     22  21  20     2.060088986852   119.13206478   358.01045901
 H     23  22  21     2.064226393534   119.97418182   179.79174321
 H     24  23  22     2.065467519033   120.41092291   179.80176833
 H     25  24  23     2.060452540577   119.69995448   180.85242248
 H     28  27  26     2.072737249945   106.45469044   179.44015614
 H     28  27  26     2.083462362394   111.37678847    60.49641152
 H     28  27  26     2.083492720745   111.45719571   298.40725483
 O     29  19   7     2.378939008166   117.17961370   339.08792069
 H     11  10   8     2.077314309298   110.15398225    59.80676086
 H      2   1   3     2.060727206045   121.72999216   179.82223538
 C     19   7   4     2.737452646610   130.89188863    48.52842206
 O     42  19   7     2.299305722250   128.85663400   217.62899687
 O     42  19   7     2.571563819766   110.84938361    36.39867958
 C     44  42  19     2.671204991199   116.05121214   182.81570087
 H     45  44  42     2.072512691580   106.27613061   179.95985016
 H     45  44  42     2.079544574154   111.28687704   299.52227718
 H     45  44  42     2.079956023002   111.20071221    60.49879426

---------------------
BASIS SET INFORMATION
---------------------
There are 4 groups of distinct atoms

 Group   1 Type C   : 11s6p2d1f contracted to 5s3p2d1f pattern {62111/411/11/1}
 Group   2 Type N   : 11s6p2d1f contracted to 5s3p2d1f pattern {62111/411/11/1}
 Group   3 Type O   : 11s6p2d1f contracted to 5s3p2d1f pattern {62111/411/11/1}
 Group   4 Type H   : 5s1p contracted to 3s1p pattern {311/1}

Atom   0C    basis set group =>   1
Atom   1C    basis set group =>   1
Atom   2C    basis set group =>   1
Atom   3N    basis set group =>   2
Atom   4C    basis set group =>   1
Atom   5C    basis set group =>   1
Atom   6C    basis set group =>   1
Atom   7C    basis set group =>   1
Atom   8O    basis set group =>   3
Atom   9O    basis set group =>   3
Atom  10C    basis set group =>   1
Atom  11H    basis set group =>   4
Atom  12H    basis set group =>   4
Atom  13H    basis set group =>   4
Atom  14H    basis set group =>   4
Atom  15H    basis set group =>   4
Atom  16H    basis set group =>   4
Atom  17H    basis set group =>   4
Atom  18C    basis set group =>   1
Atom  19C    basis set group =>   1
Atom  20C    basis set group =>   1
Atom  21C    basis set group =>   1
Atom  22C    basis set group =>   1
Atom  23C    basis set group =>   1
Atom  24C    basis set group =>   1
Atom  25C    basis set group =>   1
Atom  26O    basis set group =>   3
Atom  27C    basis set group =>   1
Atom  28N    basis set group =>   2
Atom  29O    basis set group =>   3
Atom  30H    basis set group =>   4
Atom  31H    basis set group =>   4
Atom  32H    basis set group =>   4
Atom  33H    basis set group =>   4
Atom  34H    basis set group =>   4
Atom  35H    basis set group =>   4
Atom  36H    basis set group =>   4
Atom  37H    basis set group =>   4
Atom  38O    basis set group =>   3
Atom  39H    basis set group =>   4
Atom  40H    basis set group =>   4
Atom  41C    basis set group =>   1
Atom  42O    basis set group =>   3
Atom  43O    basis set group =>   3
Atom  44C    basis set group =>   1
Atom  45H    basis set group =>   4
Atom  46H    basis set group =>   4
Atom  47H    basis set group =>   4
---------------------------------
AUXILIARY/J BASIS SET INFORMATION
---------------------------------
There are 4 groups of distinct atoms

 Group   1 Type C   : 12s5p4d2f1g contracted to 6s4p3d1f1g pattern {711111/2111/211/2/1}
 Group   2 Type N   : 12s5p4d2f1g contracted to 6s4p3d1f1g pattern {711111/2111/211/2/1}
 Group   3 Type O   : 12s5p4d2f1g contracted to 6s4p3d1f1g pattern {711111/2111/211/2/1}
 Group   4 Type H   : 5s2p1d contracted to 3s1p1d pattern {311/2/1}

Atom   0C    basis set group =>   1
Atom   1C    basis set group =>   1
Atom   2C    basis set group =>   1
Atom   3N    basis set group =>   2
Atom   4C    basis set group =>   1
Atom   5C    basis set group =>   1
Atom   6C    basis set group =>   1
Atom   7C    basis set group =>   1
Atom   8O    basis set group =>   3
Atom   9O    basis set group =>   3
Atom  10C    basis set group =>   1
Atom  11H    basis set group =>   4
Atom  12H    basis set group =>   4
Atom  13H    basis set group =>   4
Atom  14H    basis set group =>   4
Atom  15H    basis set group =>   4
Atom  16H    basis set group =>   4
Atom  17H    basis set group =>   4
Atom  18C    basis set group =>   1
Atom  19C    basis set group =>   1
Atom  20C    basis set group =>   1
Atom  21C    basis set group =>   1
Atom  22C    basis set group =>   1
Atom  23C    basis set group =>   1
Atom  24C    basis set group =>   1
Atom  25C    basis set group =>   1
Atom  26O    basis set group =>   3
Atom  27C    basis set group =>   1
Atom  28N    basis set group =>   2
Atom  29O    basis set group =>   3
Atom  30H    basis set group =>   4
Atom  31H    basis set group =>   4
Atom  32H    basis set group =>   4
Atom  33H    basis set group =>   4
Atom  34H    basis set group =>   4
Atom  35H    basis set group =>   4
Atom  36H    basis set group =>   4
Atom  37H    basis set group =>   4
Atom  38O    basis set group =>   3
Atom  39H    basis set group =>   4
Atom  40H    basis set group =>   4
Atom  41C    basis set group =>   1
Atom  42O    basis set group =>   3
Atom  43O    basis set group =>   3
Atom  44C    basis set group =>   1
Atom  45H    basis set group =>   4
Atom  46H    basis set group =>   4
Atom  47H    basis set group =>   4


           ************************************************************
           *        Program running with 24 parallel MPI-processes    *
           *              working on a common directory               *
           ************************************************************
------------------------------------------------------------------------------
                           ORCA GTO INTEGRAL CALCULATION
                           -- RI-GTO INTEGRALS CHOSEN --
------------------------------------------------------------------------------
------------------------------------------------------------------------------
                   ___                                                        
                  /   \      - P O W E R E D   B Y -                         
                 /     \                                                     
                 |  |  |   _    _      __       _____    __    __             
                 |  |  |  | |  | |    /  \     |  _  \  |  |  /  |          
                  \  \/   | |  | |   /    \    | | | |  |  | /  /          
                 / \  \   | |__| |  /  /\  \   | |_| |  |  |/  /          
                |  |  |   |  __  | /  /__\  \  |    /   |      \           
                |  |  |   | |  | | |   __   |  |    \   |  |\   \          
                \     /   | |  | | |  |  |  |  | |\  \  |  | \   \       
                 \___/    |_|  |_| |__|  |__|  |_| \__\ |__|  \__/        
                                                                              
                      - O R C A' S   B I G   F R I E N D -                    
                                      &                                       
                       - I N T E G R A L  F E E D E R -                       
                                                                              
 v1 FN, 2020, v2 2021                                                         
------------------------------------------------------------------------------


Reading SHARK input file IM_CO2Me/IM_CO2Me.SHARKINP.tmp ... ok
----------------------
SHARK INTEGRAL PACKAGE
----------------------

Number of atoms                             ...     48
Number of basis functions                   ...    988
Number of shells                            ...    388
Maximum angular momentum                    ...      3
Integral batch strategy                     ... SHARK/LIBINT Hybrid
RI-J (if used) integral strategy            ... SPLIT-RIJ (Revised 2003 algorithm where possible)
Printlevel                                  ...      1
Contraction scheme used                     ... SEGMENTED contraction
Coulomb Range Separation                    ... NOT USED
Exchange Range Separation                   ... NOT USED
Finite Nucleus Model                        ... NOT USED
Auxiliary Coulomb fitting basis             ... AVAILABLE
   # of basis functions in Aux-J            ...   1592
   # of shells in Aux-J                     ...    520
   Maximum angular momentum in Aux-J        ...      4
Auxiliary J/K fitting basis                 ... NOT available
Auxiliary Correlation fitting basis         ... NOT available
Auxiliary 'external' fitting basis          ... NOT available
Integral threshold                          ...     2.500000e-11
Primitive cut-off                           ...     2.500000e-12
Primitive pair pre-selection threshold      ...     2.500000e-12

Calculating pre-screening integrals         ... done (  0.1 sec) Dimension = 388
Organizing shell pair data                  ... done (  0.7 sec)
Shell pair information
Total number of shell pairs                 ...     75466
Shell pairs after pre-screening             ...     53083
Total number of primitive shell pairs       ...    232216
Primitive shell pairs kept                  ...    105602
          la=0 lb=0:  13568 shell pairs
          la=1 lb=0:  15285 shell pairs
          la=1 lb=1:   4328 shell pairs
          la=2 lb=0:   7573 shell pairs
          la=2 lb=1:   4374 shell pairs
          la=2 lb=2:   1128 shell pairs
          la=3 lb=0:   3504 shell pairs
          la=3 lb=1:   2062 shell pairs
          la=3 lb=2:   1006 shell pairs
          la=3 lb=3:    255 shell pairs

Calculating one electron integrals          ... done (  0.1 sec)
Calculating RI/J V-Matrix + Cholesky decomp.... done (  0.3 sec)
Calculating Nuclear repulsion               ... done (  0.0 sec) ENN=   2904.994825134882 Eh

SHARK setup successfully completed in   2.0 seconds

Maximum memory used throughout the entire GTOINT-calculation: 79.4 MB


           ************************************************************
           *        Program running with 24 parallel MPI-processes    *
           *              working on a common directory               *
           ************************************************************
-------------------------------------------------------------------------------
                                 ORCA SCF
-------------------------------------------------------------------------------

------------
SCF SETTINGS
------------
Hamiltonian:
 Density Functional     Method          .... DFT(GTOs)
 Exchange Functional    Exchange        .... PBE
   PBE kappa parameter   XKappa         ....  0.804000
   PBE mue parameter    XMuePBE         ....  0.219520
 Correlation Functional Correlation     .... PBE
   PBE beta parameter  CBetaPBE         ....  0.066725
 LDA part of GGA corr.  LDAOpt          .... PW91-LDA
 Gradients option       PostSCFGGA      .... off
 Hybrid DFT is turned on
   Fraction HF Exchange ScalHFX         ....  0.250000
   Scaling of DF-GGA-X  ScalDFX         ....  0.750000
   Scaling of DF-GGA-C  ScalDFC         ....  1.000000
   Scaling of DF-LDA-C  ScalLDAC        ....  1.000000
   Perturbative correction              ....  0.000000
   Density functional embedding theory  .... OFF
   NL short-range parameter             ....  6.900000
 RI-approximation to the Coulomb term is turned on
   Number of AuxJ basis functions       .... 1592
   RIJ-COSX (HFX calculated with COS-X)).... on


General Settings:
 Integral files         IntName         .... IM_CO2Me/IM_CO2Me
 Hartree-Fock type      HFTyp           .... RHF
 Total Charge           Charge          ....    0
 Multiplicity           Mult            ....    1
 Number of Electrons    NEL             ....  204
 Basis Dimension        Dim             ....  988
 Nuclear Repulsion      ENuc            ....   2904.9948251349 Eh

Convergence Acceleration:
 DIIS                   CNVDIIS         .... on
   Start iteration      DIISMaxIt       ....    12
   Startup error        DIISStart       ....  0.200000
   # of expansion vecs  DIISMaxEq       ....     5
   Bias factor          DIISBfac        ....   1.050
   Max. coefficient     DIISMaxC        ....  10.000
 Trust-Rad. Augm. Hess. CNVTRAH         .... auto
   Auto Start mean grad. ratio tolernc. ....  1.125000
   Auto Start start iteration           ....    20
   Auto Start num. interpolation iter.  ....    10
   Max. Number of Micro iterations      ....    16
   Max. Number of Macro iterations      .... Maxiter - #DIIS iter
   Number of Davidson start vectors     ....     2
   Converg. threshold I  (grad. norm)   ....   1.000e-05
   Converg. threshold II (energy diff.) ....   1.000e-08
   Grad. Scal. Fac. for Micro threshold ....   0.100
   Minimum threshold for Micro iter.    ....   0.010
   NR start threshold (gradient norm)   ....   0.001
   Initial trust radius                 ....   0.400
   Minimum AH scaling param. (alpha)    ....   1.000
   Maximum AH scaling param. (alpha)    .... 1000.000
   Orbital update algorithm             .... Taylor
   White noise on init. David. guess    .... on
   Maximum white noise                  ....   0.010
   Quad. conv. algorithm                .... NR
 SOSCF                  CNVSOSCF        .... on
   Start iteration      SOSCFMaxIt      ....   150
   Startup grad/error   SOSCFStart      ....  0.003300
 Level Shifting         CNVShift        .... on
   Level shift para.    LevelShift      ....    0.2500
   Turn off err/grad.   ShiftErr        ....    0.0010
 Zerner damping         CNVZerner       .... off
 Static damping         CNVDamp         .... on
   Fraction old density DampFac         ....    0.7000
   Max. Damping (<1)    DampMax         ....    0.9800
   Min. Damping (>=0)   DampMin         ....    0.0000
   Turn off err/grad.   DampErr         ....    0.1000
 Fernandez-Rico         CNVRico         .... off

SCF Procedure:
 Maximum # iterations   MaxIter         ....   800
 SCF integral mode      SCFMode         .... Direct
   Integral package                     .... SHARK and LIBINT hybrid scheme
 Reset frequency        DirectResetFreq ....    20
 Integral Threshold     Thresh          ....  2.500e-11 Eh
 Primitive CutOff       TCut            ....  2.500e-12 Eh

Convergence Tolerance:
 Convergence Check Mode ConvCheckMode   .... Total+1el-Energy
 Convergence forced     ConvForced      .... 0
 Energy Change          TolE            ....  1.000e-08 Eh
 1-El. energy change                    ....  1.000e-05 Eh
 Orbital Gradient       TolG            ....  1.000e-05
 Orbital Rotation angle TolX            ....  1.000e-05
 DIIS Error             TolErr          ....  5.000e-07


Diagonalization of the overlap matrix:
Smallest eigenvalue                        ... 5.764e-06
Time for diagonalization                   ...    0.314 sec
Threshold for overlap eigenvalues          ... 1.000e-08
Number of eigenvalues below threshold      ... 0
Time for construction of square roots      ...    0.180 sec
Total time needed                          ...    0.500 sec

Time for model grid setup =    0.394 sec

------------------------------
INITIAL GUESS: MODEL POTENTIAL
------------------------------
Loading Hartree-Fock densities                     ... done
Calculating cut-offs                               ... done
Initializing the effective Hamiltonian             ... done
Setting up the integral package (SHARK)            ... done
Starting the Coulomb interaction                   ... done (   0.5 sec)
Reading the grid                                   ... done
Mapping shells                                     ... done
Starting the XC term evaluation                    ... done (   0.3 sec)
  promolecular density results
     # of electrons  =    203.982056404
     EX              =   -173.310804233
     EC              =     -6.916288898
     EX+EC           =   -180.227093131
Transforming the Hamiltonian                       ... done (   0.2 sec)
Diagonalizing the Hamiltonian                      ... done (   0.3 sec)
Back transforming the eigenvectors                 ... done (   0.1 sec)
Now organizing SCF variables                       ... done
                      ------------------
                      INITIAL GUESS DONE (   2.0 sec)
                      ------------------
-------------------
DFT GRID GENERATION
-------------------

General Integration Accuracy     IntAcc      ... 4.388
Radial Grid Type                 RadialGrid  ... OptM3 with GC (2021)
Angular Grid (max. ang.)         AngularGrid ... 4 (Lebedev-302)
Angular grid pruning method      GridPruning ... 4 (adaptive)
Weight generation scheme         WeightScheme... Becke
Basis function cutoff            BFCut       ... 1.0000e-11
Integration weight cutoff        WCut        ... 1.0000e-14
Angular grids for H and He will be reduced by one unit
Partially contracted basis set               ... off
Rotationally invariant grid construction     ... off

Total number of grid points                  ...   230454
Total number of batches                      ...     3628
Average number of points per batch           ...       63
Average number of grid points per atom       ...     4801
Time for grid setup =    1.641 sec

--------------------
COSX GRID GENERATION
--------------------

GRIDX 1
-------
General Integration Accuracy     IntAcc      ... 3.816
Radial Grid Type                 RadialGrid  ... OptM3 with GC (2021)
Angular Grid (max. ang.)         AngularGrid ... 1 (Lebedev-50)
Angular grid pruning method      GridPruning ... 4 (adaptive)
Weight generation scheme         WeightScheme... Becke
Basis function cutoff            BFCut       ... 1.0000e-11
Integration weight cutoff        WCut        ... 1.0000e-14
Angular grids for H and He will be reduced by one unit
Partially contracted basis set               ... on
Rotationally invariant grid construction     ... off

Total number of grid points                  ...    29228
Total number of batches                      ...      483
Average number of points per batch           ...       60
Average number of grid points per atom       ...      609
UseSFitting                                  ... on

GRIDX 2
-------
General Integration Accuracy     IntAcc      ... 4.020
Radial Grid Type                 RadialGrid  ... OptM3 with GC (2021)
Angular Grid (max. ang.)         AngularGrid ... 2 (Lebedev-110)
Angular grid pruning method      GridPruning ... 4 (adaptive)
Weight generation scheme         WeightScheme... Becke
Basis function cutoff            BFCut       ... 1.0000e-11
Integration weight cutoff        WCut        ... 1.0000e-14
Angular grids for H and He will be reduced by one unit
Partially contracted basis set               ... on
Rotationally invariant grid construction     ... off

Total number of grid points                  ...    63336
Total number of batches                      ...     1012
Average number of points per batch           ...       62
Average number of grid points per atom       ...     1320
UseSFitting                                  ... on

GRIDX 3
-------
General Integration Accuracy     IntAcc      ... 4.338
Radial Grid Type                 RadialGrid  ... OptM3 with GC (2021)
Angular Grid (max. ang.)         AngularGrid ... 3 (Lebedev-194)
Angular grid pruning method      GridPruning ... 4 (adaptive)
Weight generation scheme         WeightScheme... Becke
Basis function cutoff            BFCut       ... 1.0000e-11
Integration weight cutoff        WCut        ... 1.0000e-14
Angular grids for H and He will be reduced by one unit
Partially contracted basis set               ... on
Rotationally invariant grid construction     ... off

Total number of grid points                  ...   138328
Total number of batches                      ...     2187
Average number of points per batch           ...       63
Average number of grid points per atom       ...     2882
UseSFitting                                  ... on

Time for X-Grid setup             =    3.069 sec


--------------------
CPCM SOLVATION MODEL
--------------------
CPCM parameters:
  Epsilon                                         ...      47.2000
  Refrac                                          ...       1.4790
  Rsolv                                           ...       1.3000
  Surface type                                    ... GAUSSIAN VDW
  Epsilon function type                           ...         CPCM
Radii:
 Radius for C  used is    3.8550 Bohr (=   2.0400 Ang.)
 Radius for N  used is    3.5149 Bohr (=   1.8600 Ang.)
 Radius for O  used is    3.4469 Bohr (=   1.8240 Ang.)
 Radius for H  used is    2.4944 Bohr (=   1.3200 Ang.)
Calculating surface                               ...        done! (  0.0s)
GEPOL surface points                              ...         2423
GEPOL Volume                                      ...    2911.3119
GEPOL Surface-area                                ...    1435.0040
Calculating surface distance matrix               ...        done! (  0.1s)
Performing Cholesky decomposition & store         ...        done! (  0.4s)
Overall time for CPCM initialization              ...                 0.5s
--------------
SCF ITERATIONS
--------------
ITER       Energy         Delta-E        Max-DP      RMS-DP      [F,P]     Damp
               ***  Starting incremental Fock matrix formation  ***
  0  -1370.4023176267   0.000000000000 0.27003147  0.00085886  0.2731569 0.7000
  1  -1370.6879658003  -0.285648173624 0.21867950  0.00072668  0.1092312 0.7000
                               ***Turning on DIIS***
  2  -1370.7985255071  -0.110559706849 0.24403771  0.00126416  0.0318424 0.0000
  3  -1370.9880756417  -0.189550134598 0.19538205  0.00056799  0.0588473 0.0000
  4  -1371.0190203140  -0.030944672297 0.02569781  0.00021408  0.0163384 0.0000
  5  -1371.0215779094  -0.002557595337 0.03453670  0.00008014  0.0040921 0.0000
                      *** Initiating the SOSCF procedure ***
                           *** Shutting down DIIS ***
                      *** Re-Reading the Fockian *** 
                      *** Removing any level shift *** 
ITER      Energy       Delta-E        Grad      Rot      Max-DP    RMS-DP
  6  -1371.02169642  -0.0001185069  0.000320  0.000320  0.006355  0.000020
               *** Restarting incremental Fock matrix formation ***
  7  -1371.02167848   0.0000179346  0.000204  0.000776  0.002682  0.000020
  8  -1371.02167649   0.0000019903  0.000514  0.000709  0.001013  0.000006
  9  -1371.02168128  -0.0000047869  0.000077  0.000207  0.000885  0.000004
 10  -1371.02168104   0.0000002357  0.000100  0.000118  0.000768  0.000002
 11  -1371.02168136  -0.0000003210  0.000008  0.000026  0.000126  0.000001
 12  -1371.02168138  -0.0000000132  0.000013  0.000019  0.000076  0.000000
                  ***Gradient check signals convergence***
              ***Rediagonalizing the Fockian in SOSCF/NRSCF***

               *****************************************************
               *                     SUCCESS                       *
               *           SCF CONVERGED AFTER  13 CYCLES          *
               *****************************************************

Old exchange energy                            =    -44.107202196 Eh
New exchange energy                            =    -44.107179663 Eh
Exchange energy change after final integration =      0.000022533 Eh
Total energy after final integration           =  -1371.021658825 Eh
Final COS-X integration done in                =    22.721 sec

----------------
TOTAL SCF ENERGY
----------------

Total Energy       :        -1371.02165883 Eh          -37307.39601 eV

Components:
Nuclear Repulsion  :         2904.99482513 Eh           79048.92796 eV
Electronic Energy  :        -4276.01648396 Eh         -116356.32397 eV
One Electron Energy:        -7652.67425546 Eh         -208239.85320 eV
Two Electron Energy:         3376.65777150 Eh           91883.52923 eV
Max COSX asymmetry :            0.00000234 Eh               0.00006 eV
CPCM Dielectric    :           -0.06959988 Eh              -1.89391 eV

Virial components:
Potential Energy   :        -2735.68966631 Eh          -74441.90037 eV
Kinetic Energy     :         1364.66800749 Eh           37134.50437 eV
Virial Ratio       :            2.00465582


DFT components:
N(Alpha)           :      101.999878880907 electrons
N(Beta)            :      101.999878880907 electrons
N(Total)           :      203.999757761813 electrons
E(X)               :     -132.135564666006 Eh       
E(C)               :       -6.910543803370 Eh       
E(XC)              :     -139.046108469375 Eh       
DFET-embed. en.    :        0.000000000000 Eh       
CPCM Solvation Model Properties:
Surface-charge          :           -0.03009364
Charge-correction       :           -0.00049601 Eh              -0.01350 eV
Free-energy (cav+disp)  :  This term is not implemented in the current solvation scheme

---------------
SCF CONVERGENCE
---------------

  Last Energy change         ...    1.8635e-08  Tolerance :   1.0000e-08
  Last MAX-Density change    ...    1.4433e-15  Tolerance :   1.0000e-07
  Last RMS-Density change    ...    1.2099e-17  Tolerance :   5.0000e-09
  Last Orbital Gradient      ...    1.7323e-06  Tolerance :   1.0000e-05
  Last Orbital Rotation      ...    6.8716e-06  Tolerance :   1.0000e-05

             **** THE GBW FILE WAS UPDATED (IM_CO2Me/IM_CO2Me.gbw) ****
             **** DENSITY IM_CO2Me/IM_CO2Me.scfp WAS UPDATED ****
             **** ENERGY FILE WAS UPDATED (IM_CO2Me/IM_CO2Me.en.tmp) ****
             **** THE GBW FILE WAS UPDATED (IM_CO2Me/IM_CO2Me.gbw) ****
             **** DENSITY IM_CO2Me/IM_CO2Me.scfp WAS UPDATED ****
----------------
ORBITAL ENERGIES
----------------

  NO   OCC          E(Eh)            E(eV) 
   0   2.0000     -19.262861      -524.1691 
   1   2.0000     -19.247893      -523.7618 
   2   2.0000     -19.243438      -523.6406 
   3   2.0000     -19.203764      -522.5610 
   4   2.0000     -19.195321      -522.3313 
   5   2.0000     -19.194662      -522.3133 
   6   2.0000     -19.177024      -521.8334 
   7   2.0000     -14.583770      -396.8446 
   8   2.0000     -14.511783      -394.8857 
   9   2.0000     -10.368239      -282.1341 
  10   2.0000     -10.342886      -281.4442 
  11   2.0000     -10.314455      -280.6706 
  12   2.0000     -10.311930      -280.6019 
  13   2.0000     -10.303978      -280.3855 
  14   2.0000     -10.290440      -280.0171 
  15   2.0000     -10.280533      -279.7475 
  16   2.0000     -10.272690      -279.5341 
  17   2.0000     -10.270023      -279.4615 
  18   2.0000     -10.269380      -279.4440 
  19   2.0000     -10.268333      -279.4156 
  20   2.0000     -10.264574      -279.3133 
  21   2.0000     -10.262663      -279.2613 
  22   2.0000     -10.251830      -278.9665 
  23   2.0000     -10.240564      -278.6599 
  24   2.0000     -10.229610      -278.3618 
  25   2.0000     -10.227803      -278.3127 
  26   2.0000     -10.226769      -278.2845 
  27   2.0000     -10.221669      -278.1458 
  28   2.0000      -1.223447       -33.2917 
  29   2.0000      -1.157524       -31.4978 
  30   2.0000      -1.129360       -30.7314 
  31   2.0000      -1.110611       -30.2213 
  32   2.0000      -1.080955       -29.4143 
  33   2.0000      -1.060271       -28.8514 
  34   2.0000      -1.039483       -28.2858 
  35   2.0000      -1.030766       -28.0486 
  36   2.0000      -0.902958       -24.5707 
  37   2.0000      -0.885165       -24.0866 
  38   2.0000      -0.860822       -23.4241 
  39   2.0000      -0.840953       -22.8835 
  40   2.0000      -0.820802       -22.3351 
  41   2.0000      -0.789320       -21.4785 
  42   2.0000      -0.773663       -21.0524 
  43   2.0000      -0.754637       -20.5347 
  44   2.0000      -0.750331       -20.4175 
  45   2.0000      -0.723336       -19.6830 
  46   2.0000      -0.711814       -19.3694 
  47   2.0000      -0.704886       -19.1809 
  48   2.0000      -0.677412       -18.4333 
  49   2.0000      -0.640253       -17.4222 
  50   2.0000      -0.619241       -16.8504 
  51   2.0000      -0.615996       -16.7621 
  52   2.0000      -0.606633       -16.5073 
  53   2.0000      -0.579170       -15.7600 
  54   2.0000      -0.570454       -15.5228 
  55   2.0000      -0.561559       -15.2808 
  56   2.0000      -0.555690       -15.1211 
  57   2.0000      -0.547488       -14.8979 
  58   2.0000      -0.541829       -14.7439 
  59   2.0000      -0.538600       -14.6561 
  60   2.0000      -0.528315       -14.3762 
  61   2.0000      -0.520420       -14.1613 
  62   2.0000      -0.509692       -13.8694 
  63   2.0000      -0.506345       -13.7784 
  64   2.0000      -0.501644       -13.6504 
  65   2.0000      -0.495687       -13.4883 
  66   2.0000      -0.490564       -13.3489 
  67   2.0000      -0.489436       -13.3182 
  68   2.0000      -0.487481       -13.2650 
  69   2.0000      -0.483505       -13.1568 
  70   2.0000      -0.481574       -13.1043 
  71   2.0000      -0.474628       -12.9153 
  72   2.0000      -0.456187       -12.4135 
  73   2.0000      -0.446751       -12.1567 
  74   2.0000      -0.446096       -12.1389 
  75   2.0000      -0.436599       -11.8805 
  76   2.0000      -0.429421       -11.6851 
  77   2.0000      -0.425512       -11.5788 
  78   2.0000      -0.415906       -11.3174 
  79   2.0000      -0.413323       -11.2471 
  80   2.0000      -0.410085       -11.1590 
  81   2.0000      -0.403117       -10.9694 
  82   2.0000      -0.397065       -10.8047 
  83   2.0000      -0.389931       -10.6106 
  84   2.0000      -0.380850       -10.3634 
  85   2.0000      -0.373959       -10.1759 
  86   2.0000      -0.369330       -10.0500 
  87   2.0000      -0.357510        -9.7283 
  88   2.0000      -0.347014        -9.4427 
  89   2.0000      -0.341089        -9.2815 
  90   2.0000      -0.338730        -9.2173 
  91   2.0000      -0.330421        -8.9912 
  92   2.0000      -0.322082        -8.7643 
  93   2.0000      -0.317856        -8.6493 
  94   2.0000      -0.314083        -8.5466 
  95   2.0000      -0.305822        -8.3218 
  96   2.0000      -0.300000        -8.1634 
  97   2.0000      -0.288632        -7.8541 
  98   2.0000      -0.267844        -7.2884 
  99   2.0000      -0.264970        -7.2102 
 100   2.0000      -0.237737        -6.4692 
 101   2.0000      -0.229849        -6.2545 
 102   0.0000      -0.085126        -2.3164 
 103   0.0000      -0.047698        -1.2979 
 104   0.0000      -0.036786        -1.0010 
 105   0.0000      -0.012412        -0.3378 
 106   0.0000       0.002687         0.0731 
 107   0.0000       0.008699         0.2367 
 108   0.0000       0.040388         1.0990 
 109   0.0000       0.058544         1.5931 
 110   0.0000       0.059769         1.6264 
 111   0.0000       0.063775         1.7354 
 112   0.0000       0.066822         1.8183 
 113   0.0000       0.080565         2.1923 
 114   0.0000       0.083914         2.2834 
 115   0.0000       0.087463         2.3800 
 116   0.0000       0.090983         2.4758 
 117   0.0000       0.093918         2.5556 
 118   0.0000       0.096834         2.6350 
 119   0.0000       0.103626         2.8198 
 120   0.0000       0.105120         2.8605 
 121   0.0000       0.109459         2.9785 
 122   0.0000       0.115916         3.1542 
 123   0.0000       0.118887         3.2351 
 124   0.0000       0.120839         3.2882 
 125   0.0000       0.126384         3.4391 
 126   0.0000       0.132909         3.6166 
 127   0.0000       0.134322         3.6551 
 128   0.0000       0.139564         3.7977 
 129   0.0000       0.141549         3.8518 
 130   0.0000       0.144652         3.9362 
 131   0.0000       0.146380         3.9832 
 132   0.0000       0.149952         4.0804 
 133   0.0000       0.152822         4.1585 
 134   0.0000       0.159684         4.3452 
 135   0.0000       0.160481         4.3669 
 136   0.0000       0.164982         4.4894 
 137   0.0000       0.167068         4.5462 
 138   0.0000       0.175566         4.7774 
 139   0.0000       0.187448         5.1007 
 140   0.0000       0.191884         5.2214 
 141   0.0000       0.200604         5.4587 
 142   0.0000       0.207425         5.6443 
 143   0.0000       0.211456         5.7540 
 144   0.0000       0.214690         5.8420 
 145   0.0000       0.215137         5.8542 
 146   0.0000       0.218884         5.9561 
 147   0.0000       0.221222         6.0197 
 148   0.0000       0.223239         6.0746 
 149   0.0000       0.230300         6.2668 
 150   0.0000       0.231216         6.2917 
 151   0.0000       0.233878         6.3641 
 152   0.0000       0.236597         6.4381 
 153   0.0000       0.241701         6.5770 
 154   0.0000       0.246004         6.6941 
 155   0.0000       0.246979         6.7206 
 156   0.0000       0.250266         6.8101 
 157   0.0000       0.256953         6.9921 
 158   0.0000       0.262524         7.1436 
 159   0.0000       0.267005         7.2656 
 160   0.0000       0.268494         7.3061 
 161   0.0000       0.276397         7.5211 
 162   0.0000       0.280746         7.6395 
 163   0.0000       0.285783         7.7765 
 164   0.0000       0.290224         7.8974 
 165   0.0000       0.295218         8.0333 
 166   0.0000       0.299918         8.1612 
 167   0.0000       0.304353         8.2819 
 168   0.0000       0.311020         8.4633 
 169   0.0000       0.312763         8.5107 
 170   0.0000       0.316906         8.6234 
 171   0.0000       0.319224         8.6865 
 172   0.0000       0.321937         8.7603 
 173   0.0000       0.324254         8.8234 
 174   0.0000       0.329146         8.9565 
 175   0.0000       0.332263         9.0413 
 176   0.0000       0.334266         9.0959 
 177   0.0000       0.338759         9.2181 
 178   0.0000       0.341757         9.2997 
 179   0.0000       0.346505         9.4289 
 180   0.0000       0.352192         9.5836 
 181   0.0000       0.356276         9.6948 
 182   0.0000       0.365121         9.9354 
 183   0.0000       0.366638         9.9767 
 184   0.0000       0.369689        10.0598 
 185   0.0000       0.378949        10.3117 
 186   0.0000       0.381249        10.3743 
 187   0.0000       0.382915        10.4197 
 188   0.0000       0.384847        10.4722 
 189   0.0000       0.393841        10.7169 
 190   0.0000       0.397539        10.8176 
 191   0.0000       0.399074        10.8594 
 192   0.0000       0.401880        10.9357 
 193   0.0000       0.403999        10.9934 
 194   0.0000       0.408506        11.1160 
 195   0.0000       0.413628        11.2554 
 196   0.0000       0.414630        11.2827 
 197   0.0000       0.418379        11.3847 
 198   0.0000       0.422125        11.4866 
 199   0.0000       0.424216        11.5435 
 200   0.0000       0.425693        11.5837 
 201   0.0000       0.430978        11.7275 
 202   0.0000       0.434238        11.8162 
 203   0.0000       0.440056        11.9745 
 204   0.0000       0.441967        12.0265 
 205   0.0000       0.445421        12.1205 
 206   0.0000       0.447135        12.1672 
 207   0.0000       0.452861        12.3230 
 208   0.0000       0.454879        12.3779 
 209   0.0000       0.459974        12.5165 
 210   0.0000       0.462492        12.5850 
 211   0.0000       0.464957        12.6521 
 212   0.0000       0.466500        12.6941 
 213   0.0000       0.469794        12.7838 
 214   0.0000       0.472127        12.8472 
 215   0.0000       0.475197        12.9308 
 216   0.0000       0.479652        13.0520 
 217   0.0000       0.482200        13.1213 
 218   0.0000       0.484836        13.1930 
 219   0.0000       0.487230        13.2582 
 220   0.0000       0.490354        13.3432 
 221   0.0000       0.493649        13.4329 
 222   0.0000       0.498163        13.5557 
 223   0.0000       0.504346        13.7239 
 224   0.0000       0.504978        13.7411 
 225   0.0000       0.510618        13.8946 
 226   0.0000       0.515601        14.0302 
 227   0.0000       0.517954        14.0942 
 228   0.0000       0.521762        14.1979 
 229   0.0000       0.525387        14.2965 
 230   0.0000       0.531286        14.4570 
 231   0.0000       0.534585        14.5468 
 232   0.0000       0.539561        14.6822 
 233   0.0000       0.549392        14.9497 
 234   0.0000       0.552980        15.0474 
 235   0.0000       0.559224        15.2173 
 236   0.0000       0.562599        15.3091 
 237   0.0000       0.575213        15.6524 
 238   0.0000       0.578781        15.7494 
 239   0.0000       0.581206        15.8154 
 240   0.0000       0.589668        16.0457 
 241   0.0000       0.595826        16.2132 
 242   0.0000       0.599258        16.3066 
 243   0.0000       0.604402        16.4466 
 244   0.0000       0.609914        16.5966 
 245   0.0000       0.612390        16.6640 
 246   0.0000       0.613597        16.6968 
 247   0.0000       0.620286        16.8788 
 248   0.0000       0.626678        17.0528 
 249   0.0000       0.632626        17.2146 
 250   0.0000       0.636732        17.3264 
 251   0.0000       0.642603        17.4861 
 252   0.0000       0.652315        17.7504 
 253   0.0000       0.660964        17.9858 
 254   0.0000       0.664598        18.0846 
 255   0.0000       0.665026        18.0963 
 256   0.0000       0.668987        18.2041 
 257   0.0000       0.676345        18.4043 
 258   0.0000       0.678992        18.4763 
 259   0.0000       0.687030        18.6950 
[...]
 42:    553.97   0.004298   21.72  0.002421  (-0.017325 -0.042307 -0.018197)
 43:    579.29   0.005743   29.02  0.003094  ( 0.044820  0.032401  0.005918)
 44:    588.48   0.007482   37.81  0.003968  (-0.001089  0.062247 -0.009588)
 45:    610.95   0.002915   14.73  0.001489  ( 0.036192  0.011604 -0.006653)
 46:    648.58   0.001716    8.67  0.000825  ( 0.010235 -0.014608 -0.022524)
 47:    659.67   0.000975    4.93  0.000461  ( 0.001845 -0.021390 -0.000448)
 48:    676.07   0.003369   17.03  0.001555  (-0.025013  0.009597  0.028937)
 49:    692.69   0.001580    7.98  0.000712  (-0.011641 -0.000260  0.024003)
 50:    711.30   0.030136  152.30  0.013221  (-0.008189 -0.104548 -0.047161)
 51:    755.25   0.002690   13.59  0.001111  ( 0.003100  0.022144  0.024727)
 52:    766.56   0.013589   68.68  0.005532  ( 0.019348  0.041222  0.058810)
 53:    768.27   0.003495   17.66  0.001420  (-0.007060 -0.024439 -0.027797)
 54:    772.93   0.006602   33.37  0.002666  ( 0.011019 -0.043396 -0.025710)
 55:    788.71   0.003714   18.77  0.001469  (-0.004281  0.000762 -0.038086)
 56:    804.60   0.007526   38.03  0.002919  (-0.022798  0.048975  0.000669)
 57:    822.82   0.004503   22.75  0.001708  (-0.011992 -0.038841 -0.007434)
 58:    831.27   0.009496   47.99  0.003565  ( 0.054735  0.009162 -0.022023)
 59:    838.94   0.009775   49.40  0.003636  ( 0.025521  0.015504  0.052386)
 60:    860.32   0.005940   30.02  0.002155  (-0.025743  0.038591 -0.001637)
 61:    872.80   0.000456    2.30  0.000163  (-0.004802  0.007496 -0.009153)
 62:    882.42   0.000247    1.25  0.000087  ( 0.003067  0.003693  0.008024)
 63:    928.94   0.001972    9.97  0.000662  (-0.016699 -0.006595  0.018442)
 64:    933.16   0.008685   43.89  0.002904  (-0.041566 -0.034200 -0.002667)
 65:    954.35   0.000370    1.87  0.000121  ( 0.003714  0.009989 -0.002724)
 66:    982.74   0.000180    0.91  0.000057  ( 0.000970 -0.000404  0.007482)
 67:    988.47   0.000467    2.36  0.000148  ( 0.008759 -0.003885  0.007464)
 68:   1004.71   0.021531  108.81  0.006688  ( 0.011005  0.008521  0.080585)
 69:   1015.46   0.001237    6.25  0.000380  (-0.007328  0.006063 -0.017019)
 70:   1033.59   0.003973   20.08  0.001199  ( 0.024253  0.024602  0.002433)
 71:   1048.18   0.000099    0.50  0.000030  (-0.003805  0.003433 -0.001826)
 72:   1061.03   0.000700    3.54  0.000206  ( 0.001452  0.013589  0.004378)
 73:   1071.08   0.011419   57.70  0.003327  ( 0.051367  0.020689  0.016132)
 74:   1076.65   0.020332  102.75  0.005893  (-0.010815 -0.020939  0.073061)
 75:   1086.41   0.001162    5.87  0.000334  ( 0.012314 -0.005074 -0.012506)
 76:   1087.17   0.005145   26.00  0.001477  (-0.019700  0.024815 -0.021746)
 77:   1127.55   0.079310  400.80  0.021950  (-0.030165 -0.024551 -0.142959)
 78:   1135.19   0.076320  385.69  0.020980  (-0.068441 -0.035720 -0.122557)
 79:   1141.52   0.018762   94.82  0.005129  (-0.005806 -0.021909  0.067937)
 80:   1169.68   0.000273    1.38  0.000073  (-0.003446 -0.007602  0.001763)
 81:   1170.88   0.000233    1.18  0.000062  ( 0.006493 -0.004209  0.001523)
 82:   1171.11   0.000050    0.25  0.000013  ( 0.002328  0.001169  0.002541)
 83:   1173.95   0.001175    5.94  0.000312  ( 0.014523  0.006974 -0.007272)
 84:   1175.78   0.001417    7.16  0.000376  (-0.002110  0.013512 -0.013749)
 85:   1196.42   0.016898   85.39  0.004407  ( 0.021026  0.010313  0.062121)
 86:   1199.60   0.048865  246.94  0.012712  (-0.012858 -0.009532 -0.111604)
 87:   1208.88   0.002538   12.83  0.000655  (-0.020750  0.000985 -0.014955)
 88:   1212.78   0.001583    8.00  0.000407  ( 0.000890 -0.018982 -0.006794)
 89:   1227.23   0.007005   35.40  0.001781  (-0.036167 -0.007851 -0.020289)
 90:   1231.72   0.001260    6.37  0.000319  ( 0.008586 -0.014952  0.004688)
 91:   1242.10   0.021007  106.16  0.005278  ( 0.068566 -0.020658  0.012239)
 92:   1261.92   0.048415  244.67  0.011973  (-0.021547  0.002186  0.107255)
 93:   1272.51   0.127797  645.83  0.031340  ( 0.122588  0.006766  0.127541)
 94:   1289.26   0.044221  223.47  0.010703  ( 0.017389  0.095274 -0.036387)
 95:   1300.36   0.016317   82.46  0.003916  (-0.025157  0.057282 -0.001289)
 96:   1319.78   0.010071   50.90  0.002381  ( 0.040069 -0.001213  0.027828)
 97:   1325.37   0.040516  204.75  0.009540  ( 0.035552  0.029463 -0.086068)
 98:   1356.64   0.008799   44.47  0.002024  (-0.034867 -0.011547 -0.025981)
 99:   1374.60   0.071933  363.52  0.016330  (-0.065191 -0.045354 -0.100117)
100:   1379.06   0.049705  251.19  0.011247  (-0.058412 -0.047300 -0.074822)
101:   1389.00   0.016746   84.63  0.003762  ( 0.035780  0.043803  0.023734)
102:   1423.45   0.116320  587.83  0.025501  (-0.034425  0.030458 -0.152932)
103:   1434.24   0.027125  137.08  0.005902  ( 0.011540  0.002163 -0.075921)
104:   1451.64   0.057621  291.19  0.012387  (-0.041356 -0.079010  0.066588)
105:   1463.43   0.002914   14.72  0.000621  (-0.018029  0.017057  0.002307)
106:   1464.82   0.004092   20.68  0.000872  ( 0.006861 -0.026669  0.010650)
107:   1465.51   0.001357    6.86  0.000289  ( 0.011211  0.009905  0.008067)
108:   1465.69   0.023728  119.91  0.005052  ( 0.035096  0.061805 -0.000568)
109:   1471.81   0.013353   67.48  0.002831  (-0.034948  0.005332 -0.039768)
110:   1473.37   0.002872   14.51  0.000608  (-0.005145 -0.015456 -0.018516)
111:   1474.00   0.002734   13.82  0.000579  (-0.017880  0.006479  0.014737)
112:   1479.02   0.001826    9.23  0.000385  (-0.012627 -0.013893  0.005729)
113:   1484.35   0.005293   26.75  0.001113  ( 0.013358 -0.024879  0.017758)
114:   1497.31   0.011938   60.33  0.002488  ( 0.002814 -0.041854  0.026989)
115:   1528.37   0.015719   79.44  0.003210  ( 0.034372  0.023495 -0.038421)
116:   1533.92   0.021990  111.13  0.004474  ( 0.013147 -0.055845  0.034382)
117:   1537.85   0.016833   85.07  0.003416  ( 0.019828 -0.041029  0.036596)
118:   1644.36   0.003042   15.37  0.000577  (-0.002274 -0.016245  0.017554)
119:   1647.48   0.006218   31.42  0.001178  ( 0.018723  0.021521 -0.019082)
120:   1663.64   0.012949   65.44  0.002429  ( 0.007259 -0.040179  0.027604)
121:   1697.36   0.017890   90.41  0.003289  ( 0.054091 -0.014955  0.011820)
122:   1732.49   0.157859  797.76  0.028434  (-0.106633 -0.130272  0.009644)
123:   1785.83   0.110510  558.47  0.019311  (-0.100457  0.066928  0.068848)
124:   3037.99   0.013149   66.45  0.001351  (-0.020528 -0.019840  0.023144)
125:   3060.78   0.010468   52.90  0.001067  ( 0.017874  0.012354  0.024396)
126:   3072.82   0.006428   32.48  0.000653  ( 0.013206  0.007356  0.020598)
127:   3104.60   0.001467    7.41  0.000147  ( 0.009082  0.007071  0.003868)
128:   3109.54   0.007549   38.15  0.000758  (-0.005812 -0.017178 -0.020706)
129:   3120.15   0.005649   28.55  0.000565  ( 0.010975 -0.004852 -0.020518)
130:   3137.42   0.006358   32.13  0.000632  ( 0.016857 -0.018273 -0.003787)
131:   3156.76   0.003802   19.21  0.000376  ( 0.004301  0.017822 -0.006303)
132:   3165.35   0.003829   19.35  0.000378  (-0.011988  0.013115 -0.007863)
133:   3171.56   0.003870   19.56  0.000381  ( 0.007279  0.009501 -0.015414)
134:   3189.88   0.002124   10.73  0.000208  (-0.013461  0.004032  0.003215)
135:   3192.29   0.000515    2.60  0.000050  (-0.006564 -0.001057  0.002479)
136:   3207.80   0.003318   16.77  0.000323  ( 0.013874 -0.010384  0.004736)
137:   3222.81   0.000125    0.63  0.000012  (-0.003402  0.000743 -0.000098)
138:   3229.64   0.002078   10.50  0.000201  (-0.004170 -0.010568  0.008468)
139:   3232.02   0.000550    2.78  0.000053  ( 0.003964 -0.005718  0.002158)
140:   3239.16   0.000469    2.37  0.000045  (-0.006294 -0.000402  0.002323)
141:   3242.82   0.001040    5.26  0.000100  ( 0.009653 -0.000158 -0.002628)
142:   3250.30   0.001647    8.32  0.000158  ( 0.002487  0.005919 -0.010813)
143:   3268.67   0.004224   21.35  0.000403  (-0.010596  0.012333 -0.011785)

* The epsilon (eps) is given for a Dirac delta lineshape.
** The dipole moment derivative (T) already includes vibrational overlap.

The first frequency considered to be a vibration is 6
The total number of vibrations considered is 138


--------------------------
THERMOCHEMISTRY AT 298.15K
--------------------------

Temperature         ... 298.15 K
Pressure            ... 1.00 atm
Total Mass          ... 388.38 AMU

Throughout the following assumptions are being made:
  (1) The electronic state is orbitally nondegenerate
  (2) There are no thermally accessible electronically excited states
  (3) Hindered rotations indicated by low frequency modes are not
      treated as such but are treated as vibrations and this may
      cause some error
  (4) All equations used are the standard statistical mechanics
      equations for an ideal gas
  (5) All vibrations are strictly harmonic

freq.      21.43  E(vib)   ...       0.56 
freq.      27.92  E(vib)   ...       0.55 
freq.      39.48  E(vib)   ...       0.54 
freq.      46.46  E(vib)   ...       0.53 
freq.      55.46  E(vib)   ...       0.52 
freq.      63.03  E(vib)   ...       0.51 
freq.      74.46  E(vib)   ...       0.49 
freq.      85.10  E(vib)   ...       0.48 
freq.      89.68  E(vib)   ...       0.47 
freq.      93.58  E(vib)   ...       0.47 
freq.     107.82  E(vib)   ...       0.45 
freq.     119.29  E(vib)   ...       0.44 
freq.     132.55  E(vib)   ...       0.42 
freq.     145.36  E(vib)   ...       0.41 
freq.     148.71  E(vib)   ...       0.41 
freq.     166.87  E(vib)   ...       0.39 
freq.     172.48  E(vib)   ...       0.38 
freq.     176.96  E(vib)   ...       0.38 
freq.     183.46  E(vib)   ...       0.37 
freq.     207.82  E(vib)   ...       0.34 
freq.     228.08  E(vib)   ...       0.33 
freq.     252.65  E(vib)   ...       0.30 
freq.     255.14  E(vib)   ...       0.30 
freq.     273.07  E(vib)   ...       0.29 
freq.     296.95  E(vib)   ...       0.27 
freq.     308.84  E(vib)   ...       0.26 
freq.     315.28  E(vib)   ...       0.25 
freq.     344.45  E(vib)   ...       0.23 
freq.     366.84  E(vib)   ...       0.22 
freq.     384.98  E(vib)   ...       0.20 
freq.     411.58  E(vib)   ...       0.19 
freq.     421.73  E(vib)   ...       0.18 
freq.     452.39  E(vib)   ...       0.16 
freq.     468.64  E(vib)   ...       0.16 
freq.     478.43  E(vib)   ...       0.15 
freq.     503.02  E(vib)   ...       0.14 
freq.     553.97  E(vib)   ...       0.12 
freq.     579.29  E(vib)   ...       0.11 
freq.     588.48  E(vib)   ...       0.10 
freq.     610.95  E(vib)   ...       0.10 
freq.     648.58  E(vib)   ...       0.08 
freq.     659.67  E(vib)   ...       0.08 
freq.     676.07  E(vib)   ...       0.08 
freq.     692.69  E(vib)   ...       0.07 
freq.     711.30  E(vib)   ...       0.07 
freq.     755.25  E(vib)   ...       0.06 
freq.     766.56  E(vib)   ...       0.06 
freq.     768.27  E(vib)   ...       0.06 
freq.     772.93  E(vib)   ...       0.05 
freq.     788.71  E(vib)   ...       0.05 
freq.     804.60  E(vib)   ...       0.05 
freq.     822.82  E(vib)   ...       0.05 
freq.     831.27  E(vib)   ...       0.04 
freq.     838.94  E(vib)   ...       0.04 
freq.     860.32  E(vib)   ...       0.04 
freq.     872.80  E(vib)   ...       0.04 
freq.     882.42  E(vib)   ...       0.04 
freq.     928.94  E(vib)   ...       0.03 
freq.     933.16  E(vib)   ...       0.03 
freq.     954.35  E(vib)   ...       0.03 
freq.     982.74  E(vib)   ...       0.02 
freq.     988.47  E(vib)   ...       0.02 
freq.    1004.71  E(vib)   ...       0.02 
freq.    1015.46  E(vib)   ...       0.02 
freq.    1033.59  E(vib)   ...       0.02 
freq.    1048.18  E(vib)   ...       0.02 
freq.    1061.03  E(vib)   ...       0.02 
freq.    1071.08  E(vib)   ...       0.02 
freq.    1076.65  E(vib)   ...       0.02 
freq.    1086.41  E(vib)   ...       0.02 
freq.    1087.17  E(vib)   ...       0.02 
freq.    1127.55  E(vib)   ...       0.01 
freq.    1135.19  E(vib)   ...       0.01 
freq.    1141.52  E(vib)   ...       0.01 
freq.    1169.68  E(vib)   ...       0.01 
freq.    1170.88  E(vib)   ...       0.01 
freq.    1171.11  E(vib)   ...       0.01 
freq.    1173.95  E(vib)   ...       0.01 
freq.    1175.78  E(vib)   ...       0.01 
freq.    1196.42  E(vib)   ...       0.01 
freq.    1199.60  E(vib)   ...       0.01 
freq.    1208.88  E(vib)   ...       0.01 
freq.    1212.78  E(vib)   ...       0.01 
freq.    1227.23  E(vib)   ...       0.01 
freq.    1231.72  E(vib)   ...       0.01 
freq.    1242.10  E(vib)   ...       0.01 
freq.    1261.92  E(vib)   ...       0.01 
freq.    1272.51  E(vib)   ...       0.01 
freq.    1289.26  E(vib)   ...       0.01 
freq.    1300.36  E(vib)   ...       0.01 
freq.    1319.78  E(vib)   ...       0.01 
freq.    1325.37  E(vib)   ...       0.01 
freq.    1356.64  E(vib)   ...       0.01 
freq.    1374.60  E(vib)   ...       0.01 
freq.    1379.06  E(vib)   ...       0.01 
freq.    1389.00  E(vib)   ...       0.00 
freq.    1423.45  E(vib)   ...       0.00 
freq.    1434.24  E(vib)   ...       0.00 
freq.    1451.64  E(vib)   ...       0.00 
freq.    1463.43  E(vib)   ...       0.00 
freq.    1464.82  E(vib)   ...       0.00 
freq.    1465.51  E(vib)   ...       0.00 
freq.    1465.69  E(vib)   ...       0.00 
freq.    1471.81  E(vib)   ...       0.00 
freq.    1473.37  E(vib)   ...       0.00 
freq.    1474.00  E(vib)   ...       0.00 
freq.    1479.02  E(vib)   ...       0.00 
freq.    1484.35  E(vib)   ...       0.00 
freq.    1497.31  E(vib)   ...       0.00 
freq.    1528.37  E(vib)   ...       0.00 
freq.    1533.92  E(vib)   ...       0.00 
freq.    1537.85  E(vib)   ...       0.00 
freq.    1644.36  E(vib)   ...       0.00 
freq.    1647.48  E(vib)   ...       0.00 
freq.    1663.64  E(vib)   ...       0.00 
freq.    1697.36  E(vib)   ...       0.00 
freq.    1732.49  E(vib)   ...       0.00 
freq.    1785.83  E(vib)   ...       0.00 
freq.    3037.99  E(vib)   ...       0.00 
freq.    3060.78  E(vib)   ...       0.00 
freq.    3072.82  E(vib)   ...       0.00 
freq.    3104.60  E(vib)   ...       0.00 
freq.    3109.54  E(vib)   ...       0.00 
freq.    3120.15  E(vib)   ...       0.00 
freq.    3137.42  E(vib)   ...       0.00 
freq.    3156.76  E(vib)   ...       0.00 
freq.    3165.35  E(vib)   ...       0.00 
freq.    3171.56  E(vib)   ...       0.00 
freq.    3189.88  E(vib)   ...       0.00 
freq.    3192.29  E(vib)   ...       0.00 
freq.    3207.80  E(vib)   ...       0.00 
freq.    3222.81  E(vib)   ...       0.00 
freq.    3229.64  E(vib)   ...       0.00 
freq.    3232.02  E(vib)   ...       0.00 
freq.    3239.16  E(vib)   ...       0.00 
freq.    3242.82  E(vib)   ...       0.00 
freq.    3250.30  E(vib)   ...       0.00 
freq.    3268.67  E(vib)   ...       0.00 

------------
INNER ENERGY
------------

The inner energy is: U= E(el) + E(ZPE) + E(vib) + E(rot) + E(trans)
    E(el)   - is the total energy from the electronic structure calculation
              = E(kin-el) + E(nuc-el) + E(el-el) + E(nuc-nuc)
    E(ZPE)  - the the zero temperature vibrational energy from the frequency calculation
    E(vib)  - the the finite temperature correction to E(ZPE) due to population
              of excited vibrational states
    E(rot)  - is the rotational thermal energy
    E(trans)- is the translational thermal energy

Summary of contributions to the inner energy U:
Electronic energy                ...  -1371.08537312 Eh
Zero point energy                ...      0.37809164 Eh     237.26 kcal/mol
Thermal vibrational correction   ...      0.02342054 Eh      14.70 kcal/mol
Thermal rotational correction    ...      0.00141627 Eh       0.89 kcal/mol
Thermal translational correction ...      0.00141627 Eh       0.89 kcal/mol
-----------------------------------------------------------------------
Total thermal energy                  -1370.68102840 Eh


Summary of corrections to the electronic energy:
(perhaps to be used in another calculation)
Total thermal correction                  0.02625308 Eh      16.47 kcal/mol
Non-thermal (ZPE) correction              0.37809164 Eh     237.26 kcal/mol
-----------------------------------------------------------------------
Total correction                          0.40434472 Eh     253.73 kcal/mol


--------
ENTHALPY
--------

The enthalpy is H = U + kB*T
                kB is Boltzmann's constant
Total free energy                 ...  -1370.68102840 Eh 
Thermal Enthalpy correction       ...      0.00094421 Eh       0.59 kcal/mol
-----------------------------------------------------------------------
Total Enthalpy                    ...  -1370.68008419 Eh


Note: Only C1 symmetry has been detected, increase convergence thresholds 
      if your molecule has a higher symmetry. Symmetry factor of 1.0 is   
      used for the rotational entropy correction. 
 

Note: Rotational entropy computed according to Herzberg 
Infrared and Raman Spectra, Chapter V,1, Van Nostrand Reinhold, 1945 
Point Group:  C1, Symmetry Number:   1  
Rotational constants in cm-1:     0.007910     0.005557     0.005114 

Vibrational entropy computed according to the QRRHO of S. Grimme
Chem.Eur.J. 2012 18 9955


-------
ENTROPY
-------

The entropy contributions are T*S = T*(S(el)+S(vib)+S(rot)+S(trans))
     S(el)   - electronic entropy
     S(vib)  - vibrational entropy
     S(rot)  - rotational entropy
     S(trans)- translational entropy
The entropies will be listed as multiplied by the temperature to get
units of energy

Electronic entropy                ...      0.00000000 Eh      0.00 kcal/mol
Vibrational entropy               ...      0.04244294 Eh     26.63 kcal/mol
Rotational entropy                ...      0.01673753 Eh     10.50 kcal/mol
Translational entropy             ...      0.02079284 Eh     13.05 kcal/mol
-----------------------------------------------------------------------
Final entropy term                ...      0.07997332 Eh     50.18 kcal/mol

In case the symmetry of your molecule has not been determined correctly
or in case you have a reason to use a different symmetry number we print 
out the resulting rotational entropy values for sn=1,12 :
 --------------------------------------------------------
|  sn= 1 | S(rot)=       0.01673753 Eh     10.50 kcal/mol|
|  sn= 2 | S(rot)=       0.01608308 Eh     10.09 kcal/mol|
|  sn= 3 | S(rot)=       0.01570025 Eh      9.85 kcal/mol|
|  sn= 4 | S(rot)=       0.01542862 Eh      9.68 kcal/mol|
|  sn= 5 | S(rot)=       0.01521793 Eh      9.55 kcal/mol|
|  sn= 6 | S(rot)=       0.01504579 Eh      9.44 kcal/mol|
|  sn= 7 | S(rot)=       0.01490024 Eh      9.35 kcal/mol|
|  sn= 8 | S(rot)=       0.01477417 Eh      9.27 kcal/mol|
|  sn= 9 | S(rot)=       0.01466296 Eh      9.20 kcal/mol|
|  sn=10 | S(rot)=       0.01456348 Eh      9.14 kcal/mol|
|  sn=11 | S(rot)=       0.01447349 Eh      9.08 kcal/mol|
|  sn=12 | S(rot)=       0.01439133 Eh      9.03 kcal/mol|
 --------------------------------------------------------


-------------------
GIBBS FREE ENERGY
-------------------

The Gibbs free energy is G = H - T*S

Total enthalpy                    ...  -1370.68008419 Eh 
Total entropy correction          ...     -0.07997332 Eh    -50.18 kcal/mol
-----------------------------------------------------------------------
Final Gibbs free energy         ...  -1370.76005751 Eh

For completeness - the Gibbs free energy minus the electronic energy
G-E(el)                           ...      0.32531561 Eh    204.14 kcal/mol


Timings for individual modules:

Sum of individual times         ...     7529.063 sec (= 125.484 min)
GTO integral calculation        ...       55.456 sec (=   0.924 min)   0.7 %
SCF iterations                  ...     2369.914 sec (=  39.499 min)  31.5 %
SCF Gradient evaluation         ...      718.345 sec (=  11.972 min)   9.5 %
Geometry relaxation             ...        3.008 sec (=   0.050 min)   0.0 %
Analytical frequency calculation...     4382.340 sec (=  73.039 min)  58.2 %
                             ****ORCA TERMINATED NORMALLY****
TOTAL RUN TIME: 0 days 2 hours 6 minutes 18 seconds 479 msec
