
                                 *****************
                                 * O   R   C   A *
                                 *****************

                                            #,                                       
                                            ###                                      
                                            ####                                     
                                            #####                                    
                                            ######                                   
                                           ########,                                 
                                     ,,################,,,,,                         
                               ,,#################################,,                 
                          ,,##########################################,,             
                       ,#########################################, ''#####,          
                    ,#############################################,,   '####,        
                  ,##################################################,,,,####,       
                ,###########''''           ''''###############################       
              ,#####''   ,,,,##########,,,,          '''####'''          '####       
            ,##' ,,,,###########################,,,                        '##       
           ' ,,###''''                  '''############,,,                           
         ,,##''                                '''############,,,,        ,,,,,,###''
      ,#''                                            '''#######################'''  
     '                                                          ''''####''''         
             ,#######,   #######,   ,#######,      ##                                
            ,#'     '#,  ##    ##  ,#'     '#,    #''#        ######   ,####,        
            ##       ##  ##   ,#'  ##            #'  '#       #        #'  '#        
            ##       ##  #######   ##           ,######,      #####,   #    #        
            '#,     ,#'  ##    ##  '#,     ,#' ,#      #,         ##   #,  ,#        
             '#######'   ##     ##  '#######'  #'      '#     #####' # '####'        



                  #######################################################
                  #                        -***-                        #
                  #          Department of theory and spectroscopy      #
                  #    Directorship and core code : Frank Neese         #
                  #        Max Planck Institute fuer Kohlenforschung    #
                  #                Kaiser Wilhelm Platz 1               #
                  #                 D-45470 Muelheim/Ruhr               #
                  #                      Germany                        #
                  #                                                     #
                  #                  All rights reserved                #
                  #                        -***-                        #
                  #######################################################


                         Program Version 5.0.4 -  RELEASE  -


 With contributions from (in alphabetic order):
   Daniel Aravena         : Magnetic Suceptibility
   Michael Atanasov       : Ab Initio Ligand Field Theory (pilot matlab implementation)
   Alexander A. Auer      : GIAO ZORA, VPT2 properties, NMR spectrum
   Ute Becker             : Parallelization
   Giovanni Bistoni       : ED, misc. LED, open-shell LED, HFLD
   Martin Brehm           : Molecular dynamics
   Dmytro Bykov           : SCF Hessian
   Vijay G. Chilkuri      : MRCI spin determinant printing, contributions to CSF-ICE
   Dipayan Datta          : RHF DLPNO-CCSD density
   Achintya Kumar Dutta   : EOM-CC, STEOM-CC
   Dmitry Ganyushin       : Spin-Orbit,Spin-Spin,Magnetic field MRCI
   Miquel Garcia          : C-PCM and meta-GGA Hessian, CC/C-PCM, Gaussian charge scheme
   Yang Guo               : DLPNO-NEVPT2, F12-NEVPT2, CIM, IAO-localization
   Andreas Hansen         : Spin unrestricted coupled pair/coupled cluster methods
   Benjamin Helmich-Paris : MC-RPA, TRAH-SCF, COSX integrals
   Lee Huntington         : MR-EOM, pCC
   Robert Izsak           : Overlap fitted RIJCOSX, COSX-SCS-MP3, EOM
   Marcus Kettner         : VPT2
   Christian Kollmar      : KDIIS, OOCD, Brueckner-CCSD(T), CCSD density, CASPT2, CASPT2-K
   Simone Kossmann        : Meta GGA functionals, TD-DFT gradient, OOMP2, MP2 Hessian
   Martin Krupicka        : Initial AUTO-CI
   Lucas Lang             : DCDCAS
   Marvin Lechner         : AUTO-CI (C++ implementation), FIC-MRCC
   Dagmar Lenk            : GEPOL surface, SMD
   Dimitrios Liakos       : Extrapolation schemes; Compound Job, initial MDCI parallelization
   Dimitrios Manganas     : Further ROCIS development; embedding schemes
   Dimitrios Pantazis     : SARC Basis sets
   Anastasios Papadopoulos: AUTO-CI, single reference methods and gradients
   Taras Petrenko         : DFT Hessian,TD-DFT gradient, ASA, ECA, R-Raman, ABS, FL, XAS/XES, NRVS
   Peter Pinski           : DLPNO-MP2, DLPNO-MP2 Gradient
   Christoph Reimann      : Effective Core Potentials
   Marius Retegan         : Local ZFS, SOC
   Christoph Riplinger    : Optimizer, TS searches, QM/MM, DLPNO-CCSD(T), (RO)-DLPNO pert. Triples
   Tobias Risthaus        : Range-separated hybrids, TD-DFT gradient, RPA, STAB
   Michael Roemelt        : Original ROCIS implementation
   Masaaki Saitow         : Open-shell DLPNO-CCSD energy and density
   Barbara Sandhoefer     : DKH picture change effects
   Avijit Sen             : IP-ROCIS
   Kantharuban Sivalingam : CASSCF convergence, NEVPT2, FIC-MRCI
   Bernardo de Souza      : ESD, SOC TD-DFT
   Georgi Stoychev        : AutoAux, RI-MP2 NMR, DLPNO-MP2 response
   Willem Van den Heuvel  : Paramagnetic NMR
   Boris Wezisla          : Elementary symmetry handling
   Frank Wennmohs         : Technical directorship


 We gratefully acknowledge several colleagues who have allowed us to
 interface, adapt or use parts of their codes:
   Stefan Grimme, W. Hujo, H. Kruse, P. Pracht,  : VdW corrections, initial TS optimization,
                  C. Bannwarth, S. Ehlert          DFT functionals, gCP, sTDA/sTD-DF
   Ed Valeev, F. Pavosevic, A. Kumar             : LibInt (2-el integral package), F12 methods
   Garnet Chan, S. Sharma, J. Yang, R. Olivares  : DMRG
   Ulf Ekstrom                                   : XCFun DFT Library
   Mihaly Kallay                                 : mrcc  (arbitrary order and MRCC methods)
   Jiri Pittner, Ondrej Demel                    : Mk-CCSD
   Frank Weinhold                                : gennbo (NPA and NBO analysis)
   Christopher J. Cramer and Donald G. Truhlar   : smd solvation model
   Lars Goerigk                                  : TD-DFT with DH, B97 family of functionals
   V. Asgeirsson, H. Jonsson                     : NEB implementation
   FAccTs GmbH                                   : IRC, NEB, NEB-TS, DLPNO-Multilevel, CI-OPT
                                                   MM, QMMM, 2- and 3-layer-ONIOM, Crystal-QMMM,
                                                   LR-CPCM, SF, NACMEs, symmetry and pop. for TD-DFT,
                                                   nearIR, NL-DFT gradient (VV10), updates on ESD,
                                                   ML-optimized integration grids
   S Lehtola, MJT Oliveira, MAL Marques          : LibXC Library
   Liviu Ungur et al                             : ANISO software


 Your calculation uses the libint2 library for the computation of 2-el integrals
 For citations please refer to: http://libint.valeyev.net

 Your ORCA version has been built with support for libXC version: 5.1.0
 For citations please refer to: https://tddft.org/programs/libxc/

 This ORCA versions uses:
   CBLAS   interface :  Fast vector & matrix operations
   LAPACKE interface :  Fast linear algebra routines
   SCALAPACK package :  Parallel linear algebra routines
   Shared memory     :  Shared parallel matrices
   BLAS/LAPACK       :  OpenBLAS 0.3.15  USE64BITINT DYNAMIC_ARCH NO_AFFINITY Haswell SINGLE_THREADED
        Core in use  :  Haswell
   Copyright (c) 2011-2014, The OpenBLAS Project


Your calculation utilizes the atom-pairwise dispersion correction
with the Becke-Johnson damping scheme (D3BJ)
Cite in your paper:
S.Grimme, S.Ehrlich, L.Goerigk, J Comput Chem, (2011), 32, 1456–1465 
S.Grimme, J.Antony, S.Ehrlich and H.Krieg, J.Chem.Phys., 132, (2010), 154104 
   

================================================================================

----- Orbital basis set information -----
Your calculation utilizes the basis: def2-TZVP
   F. Weigend and R. Ahlrichs, Phys. Chem. Chem. Phys. 7, 3297 (2005).

----- AuxJ basis set information -----
Your calculation utilizes the auxiliary basis: def2/J
   F. Weigend, Phys. Chem. Chem. Phys. 8, 1057 (2006).

================================================================================
                                        WARNINGS
                       Please study these warnings very carefully!
================================================================================


WARNING: Geometry Optimization
  ===> : Switching off AutoStart
         For restart on a previous wavefunction, please use MOREAD

INFO   : the flag for use of the SHARK integral package has been found!

================================================================================
                                       INPUT FILE
================================================================================
NAME = IM_CF3/IM_CF3.inp
|  1> %pal nprocs 24 end
|  2> ! PBE0 D3BJ def2-TZVP TightSCF OPT FREQ TightOpt
|  3> ! CPCM(dmso)
|  4> %scf
|  5> MaxIter 800
|  6> end
|  7> 
|  8> %geom
|  9> MaxIter 800
| 10> MaxStep 0.15
| 11> end
| 12> 
| 13> *xyz 0 1
| 14> C      -2.10912700     -2.64158600      3.26644100
| 15> C      -2.87530600     -1.53175400      2.90756100
| 16> C      -2.56557300     -0.84980100      1.74797000
| 17> N      -1.54011000     -1.25012800      0.96958300
| 18> C      -0.78211100     -2.31704800      1.29678400
| 19> C      -1.05455800     -3.03524800      2.44842600
| 20> C      -1.19072100     -0.45979200     -0.21202900
| 21> C      -1.12898300     -1.35943800     -1.43758900
| 22> O      -1.46214900     -2.51868600     -1.44767100
| 23> O      -0.83242800     -0.65426600     -2.51220500
| 24> C      -0.74323200     -1.36737100     -3.73909900
| 25> H      -2.33735800     -3.19694900      4.17891000
| 26> H      -3.11853600      0.02746100      1.40913600
| 27> H       0.00219000     -2.58288800      0.58509300
| 28> H      -0.43326100     -3.89794000      2.69153600
| 29> H      -2.04185000      0.21023500     -0.40158600
| 30> H       0.05791300     -2.11799300     -3.68217700
| 31> H      -0.50881900     -0.62175100     -4.50668700
| 32> H      -3.71233900     -1.19100300      3.51792900
| 33> C       1.21832500     -0.15343800      0.70789800
| 34> C       0.00033700      0.48694300      0.12234800
| 35> C       0.27157900      1.47522200     -1.00047400
| 36> C       1.47323900      1.49295900     -1.70271900
| 37> C       1.71329900      2.42903000     -2.71012100
| 38> C       0.73373000      3.36846500     -3.01888000
| 39> C      -0.47655200      3.38218300     -2.32297400
| 40> C      -0.70640600      2.44134100     -1.31481400
| 41> O      -1.84493000      2.38524200     -0.58662600
| 42> C      -2.87563000      3.31217800     -0.83900100
| 43> N       1.85367100     -1.17972700      0.10766200
| 44> O       2.95241400     -1.58786300      0.52427300
| 45> H      -0.42265300      1.09691400      0.93550400
| 46> H       2.24289400      0.76224700     -1.44870300
| 47> H       2.66438000      2.42218300     -3.24716700
| 48> H       0.90630300      4.10848000     -3.80449600
| 49> H      -1.23215100      4.12957500     -2.56692200
| 50> H      -3.25011400      3.22581600     -1.87223800
| 51> H      -2.53776200      4.34660400     -0.66274400
| 52> H      -3.68613400      3.07270400     -0.13981600
| 53> O       1.29454100     -1.76193000     -0.86308700
| 54> H      -1.69463900     -1.86714200     -3.96937000
| 55> C       1.96268700      0.52389800      1.79786700
| 56> F       3.14924300      1.04413100      1.41258700
| 57> F       1.25194500      1.55987100      2.28171800
| 58> F       2.24176200     -0.26118300      2.85522200
| 59> *
| 60> 
| 61>                          ****END OF INPUT****
================================================================================

                       *****************************
                       * Geometry Optimization Run *
                       *****************************

Geometry optimization settings:
Update method            Update   .... BFGS
Choice of coordinates    CoordSys .... Z-matrix Internals
Initial Hessian          InHess   .... Almoef's Model

Convergence Tolerances:
Energy Change            TolE     ....  1.0000e-06 Eh
Max. Gradient            TolMAXG  ....  1.0000e-04 Eh/bohr
RMS Gradient             TolRMSG  ....  3.0000e-05 Eh/bohr
Max. Displacement        TolMAXD  ....  1.0000e-03 bohr
RMS Displacement         TolRMSD  ....  6.0000e-04 bohr
Strict Convergence                ....  False
------------------------------------------------------------------------------
                        ORCA OPTIMIZATION COORDINATE SETUP
------------------------------------------------------------------------------

The optimization will be done in new redundant internal coordinates
Making redundant internal coordinates   ...  (new redundants) done
Evaluating the initial hessian          ...  (Almloef) done
Evaluating the coordinates              ...  done
Calculating the B-matrix                .... done
Calculating the G-matrix                .... done
Diagonalizing the G-matrix              .... done
Small eigenvalue found = 3.213e-03
Small eigenvalue found = 5.330e-03
Small eigenvalue found = 7.440e-03
Small eigenvalue found = 9.032e-03
Small eigenvalue found = 1.224e-02
Small eigenvalue found = 1.628e-02
Small eigenvalue found = 1.888e-02
The first mode is                       ....   95
The number of degrees of freedom        ....  129

    -----------------------------------------------------------------
                    Redundant Internal Coordinates


    -----------------------------------------------------------------
         Definition                    Initial Value    Approx d2E/dq
    -----------------------------------------------------------------
      1. B(C   1,C   0)                  1.3955         0.612193   
      2. B(C   2,C   1)                  1.3805         0.647102   
      3. B(N   3,C   2)                  1.3482         0.652406   
      4. B(C   4,N   3)                  1.3491         0.650437   
      5. B(C   5,C   4)                  1.3843         0.637991   
      6. B(C   5,C   0)                  1.3915         0.621394   
      7. B(C   6,N   3)                  1.4639         0.426602   
      8. B(C   7,C   6)                  1.5216         0.385326   
      9. B(O   8,C   7)                  1.2062         1.099236   
     10. B(O   9,C   7)                  1.3191         0.726105   
     11. B(C  10,O   9)                  1.4219         0.497751   
     12. B(H  11,C   0)                  1.0923         0.357072   
     13. B(H  12,C   2)                  1.0909         0.358850   
     14. B(H  13,C   4)                  1.0919         0.357561   
     15. B(H  14,C   5)                  1.0906         0.359343   
     16. B(H  15,C   6)                  1.0997         0.347524   
     17. B(H  16,C  10)                  1.0993         0.347978   
     18. B(H  17,C  10)                  1.0955         0.352915   
     19. B(H  18,C   1)                  1.0905         0.359382   
     20. B(C  20,C  19)                  1.4955         0.424089   
     21. B(C  20,C   6)                  1.5578         0.337309   
     22. B(C  21,C  20)                  1.5202         0.387274   
     23. B(C  22,C  21)                  1.3919         0.620398   
     24. B(C  23,C  22)                  1.3960         0.611256   
     25. B(C  24,C  23)                  1.3919         0.620418   
     26. B(C  25,C  24)                  1.3962         0.610822   
     27. B(C  26,C  25)                  1.3980         0.606702   
     28. B(C  26,C  21)                  1.4102         0.580121   
     29. B(O  27,C  26)                  1.3526         0.641914   
     30. B(C  28,O  27)                  1.4090         0.521894   
     31. B(N  29,C  19)                  1.3480         0.652855   
     32. B(O  30,N  29)                  1.2439         0.857134   
     33. B(H  31,C  20)                  1.1010         0.345835   
     34. B(H  32,C  22)                  1.0913         0.358446   
     35. B(H  33,C  23)                  1.0923         0.357130   
     36. B(H  34,C  24)                  1.0930         0.356185   
     37. B(H  35,C  25)                  1.0904         0.359533   
     38. B(H  36,C  28)                  1.1024         0.344070   
     39. B(H  37,C  28)                  1.1024         0.344080   
     40. B(H  38,C  28)                  1.0969         0.351125   
     41. B(O  39,N  29)                  1.2625         0.800588   
     42. B(H  40,C  10)                  1.0991         0.348290   
     43. B(C  41,C  19)                  1.4835         0.443100   
     44. B(F  42,C  41)                  1.3517         0.598588   
     45. B(F  43,C  41)                  1.3463         0.610517   
     46. B(F  44,C  41)                  1.3462         0.610743   
     47. A(C   1,C   0,H  11)          120.2948         0.351651   
     48. A(C   5,C   0,H  11)          120.3713         0.352539   
     49. A(C   1,C   0,C   5)          119.3336         0.433253   
     50. A(C   0,C   1,H  18)          121.7322         0.352034   
     51. A(C   0,C   1,C   2)          119.0584         0.436426   
     52. A(C   2,C   1,H  18)          119.2093         0.355357   
     53. A(N   3,C   2,H  12)          116.4218         0.353565   
     54. A(C   1,C   2,H  12)          122.9847         0.355267   
     55. A(C   1,C   2,N   3)          120.5934         0.438565   
     56. A(C   2,N   3,C   6)          119.1597         0.404488   
     57. A(C   2,N   3,C   4)          121.4775         0.436092   
     58. A(C   4,N   3,C   6)          119.2522         0.404273   
     59. A(C   5,C   4,H  13)          123.8680         0.354198   
     60. A(N   3,C   4,C   5)          120.0997         0.437206   
     61. A(N   3,C   4,H  13)          115.9790         0.353168   
     62. A(C   0,C   5,C   4)          119.4356         0.436484   
     63. A(C   0,C   5,H  14)          121.6348         0.352917   
     64. A(C   4,C   5,H  14)          118.9296         0.354497   
     65. A(C   7,C   6,C  20)          120.0794         0.358969   
     66. A(N   3,C   6,C  20)          109.7150         0.362986   
     67. A(H  15,C   6,C  20)          104.9797         0.317100   
     68. A(N   3,C   6,H  15)          106.4611         0.327573   
     69. A(N   3,C   6,C   7)          109.9145         0.371365   
     70. A(C   7,C   6,H  15)          104.6442         0.324075   
     71. A(C   6,C   7,O   9)          110.4394         0.407485   
     72. A(C   6,C   7,O   8)          124.3165         0.438825   
     73. A(O   8,C   7,O   9)          124.6846         0.489446   
     74. A(C   7,O   9,C  10)          116.6757         0.423708   
     75. A(O   9,C  10,H  40)          110.7647         0.336172   
     76. A(H  16,C  10,H  17)          110.1865         0.288370   
     77. A(O   9,C  10,H  17)          106.0615         0.336912   
     78. A(O   9,C  10,H  16)          110.0890         0.336122   
     79. A(H  17,C  10,H  40)          110.3604         0.288410   
     80. A(H  16,C  10,H  40)          109.3424         0.287775   
     81. A(C  20,C  19,N  29)          122.3792         0.406730   
     82. A(N  29,C  19,C  41)          115.9926         0.409899   
     83. A(C  20,C  19,C  41)          120.0538         0.382461   
     84. A(C  21,C  20,H  31)          104.7076         0.324084   
     85. A(C  19,C  20,H  31)          105.1267         0.328966   
     86. A(C   6,C  20,H  31)          101.6238         0.316848   
     87. A(C  19,C  20,C  21)          114.9774         0.373652   
     88. A(C   6,C  20,C  21)          111.8990         0.359277   
     89. A(C   6,C  20,C  19)          116.5201         0.364890   
     90. A(C  22,C  21,C  26)          118.5239         0.428962   
     91. A(C  20,C  21,C  26)          119.0963         0.394569   
     92. A(C  20,C  21,C  22)          122.3410         0.399247   
     93. A(C  23,C  22,H  32)          119.7162         0.351788   
     94. A(C  21,C  22,H  32)          118.8761         0.352672   
     95. A(C  21,C  22,C  23)          121.4054         0.433008   
     96. A(C  24,C  23,H  33)          120.5280         0.352455   
     97. A(C  22,C  23,H  33)          120.0240         0.351569   
     98. A(C  22,C  23,C  24)          119.4477         0.433011   
     99. A(C  25,C  24,H  34)          119.2416         0.351370   
    100. A(C  23,C  24,H  34)          120.3507         0.352297   
    101. A(C  23,C  24,C  25)          120.4063         0.432956   
    102. A(C  26,C  25,H  35)          120.5758         0.351523   
    103. A(C  24,C  25,H  35)          119.7296         0.351926   
    104. A(C  24,C  25,C  26)          119.6938         0.431220   
    105. A(C  25,C  26,O  27)          123.6781         0.432239   
    106. A(C  21,C  26,O  27)          115.8055         0.428776   
    107. A(C  21,C  26,C  25)          120.5165         0.427249   
    108. A(C  26,O  27,C  28)          119.4728         0.418009   
    109. A(H  36,C  28,H  38)          109.2282         0.287632   
    110. A(O  27,C  28,H  38)          106.4232         0.339295   
    111. A(H  36,C  28,H  37)          109.1159         0.286723   
    112. A(O  27,C  28,H  37)          111.3754         0.338150   
    113. A(O  27,C  28,H  36)          111.3977         0.338148   
    114. A(H  37,C  28,H  38)          109.2335         0.287633   
    115. A(C  19,N  29,O  30)          121.1287         0.455418   
    116. A(O  30,N  29,O  39)          119.8276         0.469512   
    117. A(C  19,N  29,O  39)          118.9938         0.449801   
    118. A(F  43,C  41,F  44)          106.0169         0.422325   
    119. A(F  42,C  41,F  44)          105.4476         0.420839   
    120. A(C  19,C  41,F  44)          114.5081         0.403328   
    121. A(F  42,C  41,F  43)          105.6472         0.420811   
    122. A(C  19,C  41,F  43)          110.5175         0.403301   
    123. A(C  19,C  41,F  42)          114.0015         0.401901   
    124. D(C   2,C   1,C   0,H  11)   -179.9067         0.025895   
    125. D(H  18,C   1,C   0,C   5)    179.8044         0.025895   
    126. D(C   2,C   1,C   0,C   5)     -0.0850         0.025895   
    127. D(H  18,C   1,C   0,H  11)     -0.0173         0.025895   
    128. D(N   3,C   2,C   1,H  18)   -179.7251         0.029137   
    129. D(H  12,C   2,C   1,C   0)   -179.7360         0.029137   
    130. D(H  12,C   2,C   1,H  18)      0.3718         0.029137   
    131. D(N   3,C   2,C   1,C   0)      0.1671         0.029137   
    132. D(C   4,N   3,C   2,H  12)    179.5312         0.034758   
    133. D(C   6,N   3,C   2,H  12)      3.3826         0.034758   
    134. D(C   4,N   3,C   2,C   1)     -0.3780         0.034758   
    135. D(C   6,N   3,C   2,C   1)   -176.5266         0.034758   
    136. D(C   5,C   4,N   3,C   6)    176.6431         0.034531   
    137. D(C   5,C   4,N   3,C   2)      0.4979         0.034531   
    138. D(H  13,C   4,N   3,C   2)    177.9427         0.034531   
    139. D(H  13,C   4,N   3,C   6)     -5.9122         0.034531   
    140. D(H  14,C   5,C   4,H  13)      2.4107         0.028268   
    141. D(C   0,C   5,C   4,H  13)   -177.6402         0.028268   
    142. D(H  14,C   5,C   0,H  11)     -0.0271         0.026726   
    143. D(C   0,C   5,C   4,N   3)     -0.4068         0.028268   
    144. D(H  14,C   5,C   0,C   1)   -179.8487         0.026726   
    145. D(H  14,C   5,C   4,N   3)    179.6441         0.028268   
    146. D(C   4,C   5,C   0,H  11)   -179.9748         0.026726   
    147. D(C   4,C   5,C   0,C   1)      0.2036         0.026726   
    148. D(C  20,C   6,N   3,C   4)    -78.3495         0.015516   
    149. D(C  20,C   6,N   3,C   2)     97.8860         0.015516   
    150. D(H  15,C   6,N   3,C   4)    168.5597         0.015516   
    151. D(C   7,C   6,N   3,C   2)   -127.9997         0.015516   
    152. D(H  15,C   6,N   3,C   2)    -15.2048         0.015516   
    153. D(C   7,C   6,N   3,C   4)     55.7649         0.015516   
    154. D(O   8,C   7,C   6,N   3)      7.4001         0.011061   
    155. D(O   9,C   7,C   6,C  20)    -52.2031         0.011061   
    156. D(O   9,C   7,C   6,H  15)     65.1891         0.011061   
    157. D(O   9,C   7,C   6,N   3)    179.1537         0.011061   
    158. D(O   8,C   7,C   6,C  20)    136.0433         0.011061   
    159. D(O   8,C   7,C   6,H  15)   -106.5645         0.011061   
    160. D(C  10,O   9,C   7,O   8)     -8.1498         0.039770   
    161. D(C  10,O   9,C   7,C   6)   -179.8667         0.039770   
    162. D(H  40,C  10,O   9,C   7)     59.3311         0.019581   
    163. D(H  17,C  10,O   9,C   7)    179.0912         0.019581   
    164. D(H  16,C  10,O   9,C   7)    -61.7224         0.019581   
    165. D(H  31,C  20,C  19,C  41)    -28.6168         0.013292   
    166. D(C  21,C  20,C  19,C  41)     85.9691         0.013292   
    167. D(C  21,C  20,C  19,N  29)    -79.1454         0.013292   
    168. D(C   6,C  20,C  19,C  41)   -140.2188         0.013292   
    169. D(C   6,C  20,C  19,N  29)     54.6668         0.013292   
    170. D(H  31,C  20,C   6,H  15)     53.7365         0.009226   
    171. D(H  31,C  20,C   6,C   7)    170.9569         0.009226   
    172. D(H  31,C  20,C   6,N   3)    -60.3101         0.009226   
    173. D(C  21,C  20,C   6,H  15)    -57.4896         0.009226   
    174. D(C  21,C  20,C   6,C   7)     59.7308         0.009226   
    175. D(C  21,C  20,C   6,N   3)   -171.5362         0.009226   
    176. D(C  19,C  20,C   6,H  15)    167.3396         0.009226   
    177. D(H  31,C  20,C  19,N  29)    166.2688         0.013292   
    178. D(C  19,C  20,C   6,N   3)     53.2929         0.009226   
    179. D(C  19,C  20,C   6,C   7)    -75.4400         0.009226   
    180. D(C  26,C  21,C  20,H  31)    -44.3061         0.011167   
    181. D(C  26,C  21,C  20,C  19)   -159.1346         0.011167   
    182. D(C  26,C  21,C  20,C   6)     64.9642         0.011167   
    183. D(C  22,C  21,C  20,H  31)    133.3924         0.011167   
    184. D(C  22,C  21,C  20,C  19)     18.5639         0.011167   
    185. D(C  22,C  21,C  20,C   6)   -117.3372         0.011167   
    186. D(C  23,C  22,C  21,C  20)   -178.5205         0.026636   
    187. D(H  32,C  22,C  21,C  26)    178.6323         0.026636   
    188. D(H  32,C  22,C  21,C  20)      0.9212         0.026636   
    189. D(C  23,C  22,C  21,C  26)     -0.8093         0.026636   
    190. D(H  33,C  23,C  22,H  32)      0.5900         0.025811   
    191. D(H  33,C  23,C  22,C  21)   -179.9730         0.025811   
    192. D(C  24,C  23,C  22,H  32)   -179.2529         0.025811   
    193. D(C  24,C  23,C  22,C  21)      0.1841         0.025811   
    194. D(H  34,C  24,C  23,H  33)      0.1215         0.026637   
    195. D(H  34,C  24,C  23,C  22)    179.9635         0.026637   
    196. D(C  25,C  24,C  23,H  33)   -179.4483         0.026637   
    197. D(C  25,C  24,C  23,C  22)      0.3938         0.026637   
    198. D(H  35,C  25,C  24,H  34)     -0.2067         0.025772   
    199. D(H  35,C  25,C  24,C  23)    179.3678         0.025772   
    200. D(C  26,C  25,C  24,H  34)   -179.8974         0.025772   
    201. D(C  26,C  25,C  24,C  23)     -0.3229         0.025772   
    202. D(O  27,C  26,C  25,H  35)     -0.0127         0.025406   
    203. D(O  27,C  26,C  25,C  24)    179.6753         0.025406   
    204. D(C  21,C  26,C  25,H  35)    179.9919         0.025406   
    205. D(C  21,C  26,C  25,C  24)     -0.3201         0.025406   
    206. D(O  27,C  26,C  21,C  22)   -179.1211         0.023122   
    207. D(O  27,C  26,C  21,C  20)     -1.3341         0.023122   
    208. D(C  25,C  26,C  21,C  22)      0.8746         0.023122   
    209. D(C  25,C  26,C  21,C  20)    178.6616         0.023122   
    210. D(C  28,O  27,C  26,C  25)      0.1819         0.030391   
    211. D(C  28,O  27,C  26,C  21)   -179.8225         0.030391   
    212. D(H  38,C  28,O  27,C  26)    179.8083         0.021601   
    213. D(H  37,C  28,O  27,C  26)    -61.2338         0.021601   
    214. D(H  36,C  28,O  27,C  26)     60.8444         0.021601   
    215. D(O  39,N  29,C  19,C  41)   -177.1731         0.034810   
    216. D(O  39,N  29,C  19,C  20)    -11.4953         0.034810   
    217. D(O  30,N  29,C  19,C  41)      5.4009         0.034810   
    218. D(O  30,N  29,C  19,C  20)    171.0787         0.034810   
    219. D(F  44,C  41,C  19,N  29)    -62.8064         0.014484   
    220. D(F  44,C  41,C  19,C  20)    131.1606         0.014484   
    221. D(F  43,C  41,C  19,N  29)    177.5639         0.014484   
    222. D(F  43,C  41,C  19,C  20)     11.5308         0.014484   
    223. D(F  42,C  41,C  19,N  29)     58.7563         0.014484   
    224. D(F  42,C  41,C  19,C  20)   -107.2767         0.014484   
    -----------------------------------------------------------------

Number of atoms                         .... 45
Number of degrees of freedom            .... 224

         *************************************************************
         *                GEOMETRY OPTIMIZATION CYCLE   1            *
         *************************************************************
---------------------------------
CARTESIAN COORDINATES (ANGSTROEM)
---------------------------------
  C     -2.109127   -2.641586    3.266441
  C     -2.875306   -1.531754    2.907561
  C     -2.565573   -0.849801    1.747970
  N     -1.540110   -1.250128    0.969583
  C     -0.782111   -2.317048    1.296784
  C     -1.054558   -3.035248    2.448426
  C     -1.190721   -0.459792   -0.212029
  C     -1.128983   -1.359438   -1.437589
  O     -1.462149   -2.518686   -1.447671
  O     -0.832428   -0.654266   -2.512205
  C     -0.743232   -1.367371   -3.739099
  H     -2.337358   -3.196949    4.178910
  H     -3.118536    0.027461    1.409136
  H      0.002190   -2.582888    0.585093
  H     -0.433261   -3.897940    2.691536
  H     -2.041850    0.210235   -0.401586
  H      0.057913   -2.117993   -3.682177
  H     -0.508819   -0.621751   -4.506687
  H     -3.712339   -1.191003    3.517929
  C      1.218325   -0.153438    0.707898
  C      0.000337    0.486943    0.122348
  C      0.271579    1.475222   -1.000474
  C      1.473239    1.492959   -1.702719
  C      1.713299    2.429030   -2.710121
  C      0.733730    3.368465   -3.018880
  C     -0.476552    3.382183   -2.322974
  C     -0.706406    2.441341   -1.314814
  O     -1.844930    2.385242   -0.586626
  C     -2.875630    3.312178   -0.839001
  N      1.853671   -1.179727    0.107662
  O      2.952414   -1.587863    0.524273
  H     -0.422653    1.096914    0.935504
  H      2.242894    0.762247   -1.448703
  H      2.664380    2.422183   -3.247167
  H      0.906303    4.108480   -3.804496
  H     -1.232151    4.129575   -2.566922
  H     -3.250114    3.225816   -1.872238
  H     -2.537762    4.346604   -0.662744
  H     -3.686134    3.072704   -0.139816
  O      1.294541   -1.761930   -0.863087
  H     -1.694639   -1.867142   -3.969370
  C      1.962687    0.523898    1.797867
  F      3.149243    1.044131    1.412587
  F      1.251945    1.559871    2.281718
  F      2.241762   -0.261183    2.855222

----------------------------
CARTESIAN COORDINATES (A.U.)
----------------------------
  NO LB      ZA    FRAG     MASS         X           Y           Z
   0 C     6.0000    0    12.011   -3.985672   -4.991874    6.172679
   1 C     6.0000    0    12.011   -5.433541   -2.894596    5.494494
   2 C     6.0000    0    12.011   -4.848230   -1.605891    3.303185
   3 N     7.0000    0    14.007   -2.910386   -2.362400    1.832246
   4 C     6.0000    0    12.011   -1.477976   -4.378586    2.450567
   5 C     6.0000    0    12.011   -1.992826   -5.735787    4.626855
   6 C     6.0000    0    12.011   -2.250137   -0.868881   -0.400677
   7 C     6.0000    0    12.011   -2.133469   -2.568966   -2.716650
   8 O     8.0000    0    15.999   -2.763061   -4.759627   -2.735702
   9 O     8.0000    0    15.999   -1.573061   -1.236384   -4.747379
  10 C     6.0000    0    12.011   -1.404505   -2.583957   -7.065873
  11 H     1.0000    0     1.008   -4.416966   -6.041358    7.896995
  12 H     1.0000    0     1.008   -5.893179    0.051894    2.662881
  13 H     1.0000    0     1.008    0.004139   -4.880951    1.105666
  14 H     1.0000    0     1.008   -0.818745   -7.366039    5.086266
  15 H     1.0000    0     1.008   -3.858537    0.397287   -0.758888
  16 H     1.0000    0     1.008    0.109440   -4.002427   -6.958306
  17 H     1.0000    0     1.008   -0.961529   -1.174939   -8.516404
  18 H     1.0000    0     1.008   -7.015304   -2.250669    6.647922
  19 C     6.0000    0    12.011    2.302301   -0.289956    1.337733
  20 C     6.0000    0    12.011    0.000637    0.920189    0.231204
  21 C     6.0000    0    12.011    0.513210    2.787766   -1.890622
  22 C     6.0000    0    12.011    2.784018    2.821284   -3.217673
  23 C     6.0000    0    12.011    3.237666    4.590201   -5.121386
  24 C     6.0000    0    12.011    1.386549    6.365476   -5.704856
  25 C     6.0000    0    12.011   -0.900553    6.391400   -4.389785
  26 C     6.0000    0    12.011   -1.334914    4.613466   -2.484638
  27 O     8.0000    0    15.999   -3.486412    4.507454   -1.108562
  28 C     6.0000    0    12.011   -5.434153    6.259109   -1.585482
  29 N     7.0000    0    14.007    3.502931   -2.229361    0.203452
  30 O     8.0000    0    15.999    5.579254   -3.000626    0.990732
  31 H     1.0000    0     1.008   -0.798698    2.072867    1.767846
  32 H     1.0000    0     1.008    4.238455    1.440438   -2.737652
  33 H     1.0000    0     1.008    5.034949    4.577263   -6.136256
  34 H     1.0000    0     1.008    1.712664    7.763902   -7.189456
  35 H     1.0000    0     1.008   -2.328428    7.803766   -4.850780
  36 H     1.0000    0     1.008   -6.141825    6.095909   -3.538017
  37 H     1.0000    0     1.008   -4.795675    8.213891   -1.252405
  38 H     1.0000    0     1.008   -6.965784    5.806569   -0.264214
  39 O     8.0000    0    15.999    2.446328   -3.329565   -1.630998
  40 H     1.0000    0     1.008   -3.202404   -3.528387   -7.501022
  41 C     6.0000    0    12.011    3.708941    0.990024    3.397476
  42 F     9.0000    0    18.998    5.951207    1.973122    2.669403
  43 F     9.0000    0    18.998    2.365833    2.947729    4.311822
  44 F     9.0000    0    18.998    4.236316   -0.493564    5.395588

--------------------------------
INTERNAL COORDINATES (ANGSTROEM)
--------------------------------
 C      0   0   0     0.000000000000     0.00000000     0.00000000
 C      1   0   0     1.395547269950     0.00000000     0.00000000
 C      2   1   0     1.380451271425   119.05843294     0.00000000
 N      3   2   1     1.348229354771   120.59342162     0.16707994
 C      4   3   2     1.349051987435   121.47750139   359.62202711
 C      5   4   3     1.384311346473   120.09966326     0.49789802
 C      4   3   2     1.463868363194   119.15974937   183.47337431
 C      7   4   3     1.521568867833   109.91452555   232.00030569
 O      8   7   4     1.206216048552   124.31653757     7.40005828
 O      8   7   4     1.319095131166   110.43938675   179.15369854
 C     10   8   7     1.421880288448   116.67569508   180.13331226
 H      1   2   3     1.092299009929   120.29484348   180.09329807
 H      3   2   1     1.090946916935   122.98473862   180.26403737
 H      5   4   3     1.091926299565   115.97897159   177.94266124
 H      6   5   4     1.090573207617   118.92959585   179.64408695
 H      7   4   3     1.099676594103   106.46108073   344.79518817
 H     11  10   8     1.099321068657   110.08901217   298.27761543
 H     11  10   8     1.095486182803   106.06145972   179.09122067
 H      2   1   3     1.090543251097   121.73216786   179.88936017
 C      7   4   3     2.596848299143    89.95207047   122.28604360
 C     20   7   4     1.495476979363    32.46330310   228.99990080
 C     21  20   7     1.520196318930   114.97736089   226.18786746
 C     22  21  20     1.391922913381   122.34096268    18.56394409
 C     23  22  21     1.395964365679   121.40538695   181.47954231
 C     24  23  22     1.391914388555   119.44773770     0.18411715
 C     25  24  23     1.396157535482   120.40626151     0.39377718
 C     26  25  24     1.397999683791   119.69379154   359.67711081
 O     27  26  25     1.352642509949   123.67805034   179.67529701
 C     28  27  26     1.408987572238   119.47276533     0.18193896
 N     20   7   4     1.348041878776   100.93396758    93.56356501
 O     30  20   7     1.243935649407   121.12871488   197.56517052
 H     21  20   7     1.101003106843   105.12667141   111.60199761
 H     23  22  21     1.091252937785   118.87607216     0.92115988
 H     24  23  22     1.092254712091   120.02404611   180.02696037
 H     25  24  23     1.092975818584   120.35071978   179.96353770
 H     26  25  24     1.090428941825   119.72964825   179.36777298
 H     29  28  27     1.102395282768   111.39773495    60.84441072
 H     29  28  27     1.102387620100   111.37536921   298.76618464
 H     29  28  27     1.096870181433   106.42320855   179.80826179
 O     30  20   7     1.262513489476   118.99377695    14.99115716
 H     11  10   8     1.099077370130   110.76470328    59.33109008
 C     20   7   4     1.483540112333   141.22319443   291.16649840
 F     42  20   7     1.351664970999   114.00150602   219.46676107
 F     42  20   7     1.346293444051   110.51754224   338.27430168
 F     42  20   7     1.346192641568   114.50809447    97.90404834

---------------------------
INTERNAL COORDINATES (A.U.)
---------------------------
 C      0   0   0     0.000000000000     0.00000000     0.00000000
 C      1   0   0     2.637202147147     0.00000000     0.00000000
 C      2   1   0     2.608674844217   119.05843294     0.00000000
 N      3   2   1     2.547784246231   120.59342162     0.16707994
 C      4   3   2     2.549338796674   121.47750139   359.62202711
 C      5   4   3     2.615969328913   120.09966326     0.49789802
 C      4   3   2     2.766310302549   119.15974937   183.47337431
 C      7   4   3     2.875348454106   109.91452555   232.00030569
 O      8   7   4     2.279417990104   124.31653757     7.40005828
 O      8   7   4     2.492728542492   110.43938675   179.15369854
 C     10   8   7     2.686964340388   116.67569508   180.13331226
 H      1   2   3     2.064145985118   120.29484348   180.09329807
 H      3   2   1     2.061590899652   122.98473862   180.26403737
 H      5   4   3     2.063441664604   115.97897159   177.94266124
 H      6   5   4     2.060884691389   118.92959585   179.64408695
 H      7   4   3     2.078087598739   106.46108073   344.79518817
 H     11  10   8     2.077415753011   110.08901217   298.27761543
 H     11  10   8     2.070168868993   106.06145972   179.09122067
 H      2   1   3     2.060828081770   121.73216786   179.88936017
 C      7   4   3     4.907332096719    89.95207047   122.28604360
 C     20   7   4     2.826041930580    32.46330310   228.99990080
 C     21  20   7     2.872754712573   114.97736089   226.18786746
 C     22  21  20     2.630353105819   122.34096268    18.56394409
 C     23  22  21     2.637990343846   121.40538695   181.47954231
 C     24  23  22     2.630336996234   119.44773770     0.18411715
 C     25  24  23     2.638355381872   120.40626151     0.39377718
 C     26  25  24     2.641836537674   119.69379154   359.67711081
 O     27  26  25     2.556123900903   123.67805034   179.67529701
 C     28  27  26     2.662600637628   119.47276533     0.18193896
 N     20   7   4     2.547429967943   100.93396758    93.56356501
 O     30  20   7     2.350697705601   121.12871488   197.56517052
 H     21  20   7     2.080594344529   105.12667141   111.60199761
 H     23  22  21     2.062169195251   118.87607216     0.92115988
 H     24  23  22     2.064062274338   120.02404611   180.02696037
 H     25  24  23     2.065424968123   120.35071978   179.96353770
 H     26  25  24     2.060612068550   119.72964825   179.36777298
 H     29  28  27     2.083225175758   111.39773495    60.84441072
 H     29  28  27     2.083210695414   111.37536921   298.76618464
 H     29  28  27     2.072784247373   106.42320855   179.80826179
 O     30  20   7     2.385804735492   118.99377695    14.99115716
 H     11  10   8     2.076955229535   110.76470328    59.33109008
 C     20   7   4     2.803484520996   141.22319443   291.16649840
 F     42  20   7     2.554276620002   114.00150602   219.46676107
 F     42  20   7     2.544125905150   110.51754224   338.27430168
 F     42  20   7     2.543935416063   114.50809447    97.90404834

---------------------
BASIS SET INFORMATION
---------------------
There are 5 groups of distinct atoms

 Group   1 Type C   : 11s6p2d1f contracted to 5s3p2d1f pattern {62111/411/11/1}
 Group   2 Type N   : 11s6p2d1f contracted to 5s3p2d1f pattern {62111/411/11/1}
 Group   3 Type O   : 11s6p2d1f contracted to 5s3p2d1f pattern {62111/411/11/1}
 Group   4 Type H   : 5s1p contracted to 3s1p pattern {311/1}
 Group   5 Type F   : 11s6p2d1f contracted to 5s3p2d1f pattern {62111/411/11/1}

Atom   0C    basis set group =>   1
Atom   1C    basis set group =>   1
Atom   2C    basis set group =>   1
Atom   3N    basis set group =>   2
Atom   4C    basis set group =>   1
Atom   5C    basis set group =>   1
Atom   6C    basis set group =>   1
Atom   7C    basis set group =>   1
Atom   8O    basis set group =>   3
Atom   9O    basis set group =>   3
Atom  10C    basis set group =>   1
Atom  11H    basis set group =>   4
Atom  12H    basis set group =>   4
Atom  13H    basis set group =>   4
Atom  14H    basis set group =>   4
Atom  15H    basis set group =>   4
Atom  16H    basis set group =>   4
Atom  17H    basis set group =>   4
Atom  18H    basis set group =>   4
Atom  19C    basis set group =>   1
Atom  20C    basis set group =>   1
Atom  21C    basis set group =>   1
Atom  22C    basis set group =>   1
Atom  23C    basis set group =>   1
Atom  24C    basis set group =>   1
Atom  25C    basis set group =>   1
Atom  26C    basis set group =>   1
Atom  27O    basis set group =>   3
Atom  28C    basis set group =>   1
Atom  29N    basis set group =>   2
Atom  30O    basis set group =>   3
Atom  31H    basis set group =>   4
Atom  32H    basis set group =>   4
Atom  33H    basis set group =>   4
Atom  34H    basis set group =>   4
Atom  35H    basis set group =>   4
Atom  36H    basis set group =>   4
Atom  37H    basis set group =>   4
Atom  38H    basis set group =>   4
Atom  39O    basis set group =>   3
Atom  40H    basis set group =>   4
Atom  41C    basis set group =>   1
Atom  42F    basis set group =>   5
Atom  43F    basis set group =>   5
Atom  44F    basis set group =>   5
---------------------------------
AUXILIARY/J BASIS SET INFORMATION
---------------------------------
There are 5 groups of distinct atoms

 Group   1 Type C   : 12s5p4d2f1g contracted to 6s4p3d1f1g pattern {711111/2111/211/2/1}
 Group   2 Type N   : 12s5p4d2f1g contracted to 6s4p3d1f1g pattern {711111/2111/211/2/1}
 Group   3 Type O   : 12s5p4d2f1g contracted to 6s4p3d1f1g pattern {711111/2111/211/2/1}
 Group   4 Type H   : 5s2p1d contracted to 3s1p1d pattern {311/2/1}
 Group   5 Type F   : 12s5p4d2f1g contracted to 6s4p3d1f1g pattern {711111/2111/211/2/1}

Atom   0C    basis set group =>   1
Atom   1C    basis set group =>   1
Atom   2C    basis set group =>   1
Atom   3N    basis set group =>   2
Atom   4C    basis set group =>   1
Atom   5C    basis set group =>   1
Atom   6C    basis set group =>   1
Atom   7C    basis set group =>   1
Atom   8O    basis set group =>   3
Atom   9O    basis set group =>   3
Atom  10C    basis set group =>   1
Atom  11H    basis set group =>   4
Atom  12H    basis set group =>   4
Atom  13H    basis set group =>   4
Atom  14H    basis set group =>   4
Atom  15H    basis set group =>   4
Atom  16H    basis set group =>   4
Atom  17H    basis set group =>   4
Atom  18H    basis set group =>   4
Atom  19C    basis set group =>   1
Atom  20C    basis set group =>   1
Atom  21C    basis set group =>   1
Atom  22C    basis set group =>   1
Atom  23C    basis set group =>   1
Atom  24C    basis set group =>   1
Atom  25C    basis set group =>   1
Atom  26C    basis set group =>   1
Atom  27O    basis set group =>   3
Atom  28C    basis set group =>   1
Atom  29N    basis set group =>   2
Atom  30O    basis set group =>   3
Atom  31H    basis set group =>   4
Atom  32H    basis set group =>   4
Atom  33H    basis set group =>   4
Atom  34H    basis set group =>   4
Atom  35H    basis set group =>   4
Atom  36H    basis set group =>   4
Atom  37H    basis set group =>   4
Atom  38H    basis set group =>   4
Atom  39O    basis set group =>   3
Atom  40H    basis set group =>   4
Atom  41C    basis set group =>   1
Atom  42F    basis set group =>   5
Atom  43F    basis set group =>   5
Atom  44F    basis set group =>   5


           ************************************************************
           *        Program running with 24 parallel MPI-processes    *
           *              working on a common directory               *
           ************************************************************
------------------------------------------------------------------------------
                           ORCA GTO INTEGRAL CALCULATION
                           -- RI-GTO INTEGRALS CHOSEN --
------------------------------------------------------------------------------
------------------------------------------------------------------------------
                   ___                                                        
                  /   \      - P O W E R E D   B Y -                         
                 /     \                                                     
                 |  |  |   _    _      __       _____    __    __             
                 |  |  |  | |  | |    /  \     |  _  \  |  |  /  |          
                  \  \/   | |  | |   /    \    | | | |  |  | /  /          
                 / \  \   | |__| |  /  /\  \   | |_| |  |  |/  /          
                |  |  |   |  __  | /  /__\  \  |    /   |      \           
                |  |  |   | |  | | |   __   |  |    \   |  |\   \          
                \     /   | |  | | |  |  |  |  | |\  \  |  | \   \       
                 \___/    |_|  |_| |__|  |__|  |_| \__\ |__|  \__/        
                                                                              
                      - O R C A' S   B I G   F R I E N D -                    
                                      &                                       
                       - I N T E G R A L  F E E D E R -                       
                                                                              
 v1 FN, 2020, v2 2021                                                         
------------------------------------------------------------------------------


Reading SHARK input file IM_CF3/IM_CF3.SHARKINP.tmp ... ok
----------------------
SHARK INTEGRAL PACKAGE
----------------------

Number of atoms                             ...     45
Number of basis functions                   ...    970
Number of shells                            ...    376
Maximum angular momentum                    ...      3
Integral batch strategy                     ... SHARK/LIBINT Hybrid
RI-J (if used) integral strategy            ... SPLIT-RIJ (Revised 2003 algorithm where possible)
Printlevel                                  ...      1
Contraction scheme used                     ... SEGMENTED contraction
Coulomb Range Separation                    ... NOT USED
Exchange Range Separation                   ... NOT USED
Finite Nucleus Model                        ... NOT USED
Auxiliary Coulomb fitting basis             ... AVAILABLE
   # of basis functions in Aux-J            ...   1559
   # of shells in Aux-J                     ...    505
   Maximum angular momentum in Aux-J        ...      4
Auxiliary J/K fitting basis                 ... NOT available
Auxiliary Correlation fitting basis         ... NOT available
Auxiliary 'external' fitting basis          ... NOT available
Integral threshold                          ...     2.500000e-11
Primitive cut-off                           ...     2.500000e-12
Primitive pair pre-selection threshold      ...     2.500000e-12

Calculating pre-screening integrals         ... done (  0.1 sec) Dimension = 376
Organizing shell pair data                  ... done (  0.6 sec)
Shell pair information
Total number of shell pairs                 ...     70876
Shell pairs after pre-screening             ...     49694
Total number of primitive shell pairs       ...    220120
Primitive shell pairs kept                  ...     99590
          la=0 lb=0:  12283 shell pairs
          la=1 lb=0:  14218 shell pairs
          la=1 lb=1:   4134 shell pairs
          la=2 lb=0:   7148 shell pairs
          la=2 lb=1:   4245 shell pairs
          la=2 lb=2:   1104 shell pairs
          la=3 lb=0:   3308 shell pairs
          la=3 lb=1:   2015 shell pairs
          la=3 lb=2:    992 shell pairs
          la=3 lb=3:    247 shell pairs

Calculating one electron integrals          ... done (  0.1 sec)
Calculating RI/J V-Matrix + Cholesky decomp.... done (  0.3 sec)
Calculating Nuclear repulsion               ... done (  0.0 sec) ENN=   2977.321041753462 Eh

SHARK setup successfully completed in   1.8 seconds

Maximum memory used throughout the entire GTOINT-calculation: 75.4 MB


           ************************************************************
           *        Program running with 24 parallel MPI-processes    *
           *              working on a common directory               *
           ************************************************************
-------------------------------------------------------------------------------
                                 ORCA SCF
-------------------------------------------------------------------------------

------------
SCF SETTINGS
------------
Hamiltonian:
 Density Functional     Method          .... DFT(GTOs)
 Exchange Functional    Exchange        .... PBE
   PBE kappa parameter   XKappa         ....  0.804000
   PBE mue parameter    XMuePBE         ....  0.219520
 Correlation Functional Correlation     .... PBE
   PBE beta parameter  CBetaPBE         ....  0.066725
 LDA part of GGA corr.  LDAOpt          .... PW91-LDA
 Gradients option       PostSCFGGA      .... off
 Hybrid DFT is turned on
   Fraction HF Exchange ScalHFX         ....  0.250000
   Scaling of DF-GGA-X  ScalDFX         ....  0.750000
   Scaling of DF-GGA-C  ScalDFC         ....  1.000000
   Scaling of DF-LDA-C  ScalLDAC        ....  1.000000
   Perturbative correction              ....  0.000000
   Density functional embedding theory  .... OFF
   NL short-range parameter             ....  6.900000
 RI-approximation to the Coulomb term is turned on
   Number of AuxJ basis functions       .... 1559
   RIJ-COSX (HFX calculated with COS-X)).... on


General Settings:
 Integral files         IntName         .... IM_CF3/IM_CF3
 Hartree-Fock type      HFTyp           .... RHF
 Total Charge           Charge          ....    0
 Multiplicity           Mult            ....    1
 Number of Electrons    NEL             ....  206
 Basis Dimension        Dim             ....  970
 Nuclear Repulsion      ENuc            ....   2977.3210417535 Eh

Convergence Acceleration:
 DIIS                   CNVDIIS         .... on
   Start iteration      DIISMaxIt       ....    12
   Startup error        DIISStart       ....  0.200000
   # of expansion vecs  DIISMaxEq       ....     5
   Bias factor          DIISBfac        ....   1.050
   Max. coefficient     DIISMaxC        ....  10.000
 Trust-Rad. Augm. Hess. CNVTRAH         .... auto
   Auto Start mean grad. ratio tolernc. ....  1.125000
   Auto Start start iteration           ....    20
   Auto Start num. interpolation iter.  ....    10
   Max. Number of Micro iterations      ....    16
   Max. Number of Macro iterations      .... Maxiter - #DIIS iter
   Number of Davidson start vectors     ....     2
   Converg. threshold I  (grad. norm)   ....   1.000e-05
   Converg. threshold II (energy diff.) ....   1.000e-08
   Grad. Scal. Fac. for Micro threshold ....   0.100
   Minimum threshold for Micro iter.    ....   0.010
   NR start threshold (gradient norm)   ....   0.001
   Initial trust radius                 ....   0.400
   Minimum AH scaling param. (alpha)    ....   1.000
   Maximum AH scaling param. (alpha)    .... 1000.000
   Orbital update algorithm             .... Taylor
   White noise on init. David. guess    .... on
   Maximum white noise                  ....   0.010
   Quad. conv. algorithm                .... NR
 SOSCF                  CNVSOSCF        .... on
   Start iteration      SOSCFMaxIt      ....   150
   Startup grad/error   SOSCFStart      ....  0.003300
 Level Shifting         CNVShift        .... on
   Level shift para.    LevelShift      ....    0.2500
   Turn off err/grad.   ShiftErr        ....    0.0010
 Zerner damping         CNVZerner       .... off
 Static damping         CNVDamp         .... on
   Fraction old density DampFac         ....    0.7000
   Max. Damping (<1)    DampMax         ....    0.9800
   Min. Damping (>=0)   DampMin         ....    0.0000
   Turn off err/grad.   DampErr         ....    0.1000
 Fernandez-Rico         CNVRico         .... off

SCF Procedure:
 Maximum # iterations   MaxIter         ....   800
 SCF integral mode      SCFMode         .... Direct
   Integral package                     .... SHARK and LIBINT hybrid scheme
 Reset frequency        DirectResetFreq ....    20
 Integral Threshold     Thresh          ....  2.500e-11 Eh
 Primitive CutOff       TCut            ....  2.500e-12 Eh

Convergence Tolerance:
 Convergence Check Mode ConvCheckMode   .... Total+1el-Energy
 Convergence forced     ConvForced      .... 0
 Energy Change          TolE            ....  1.000e-08 Eh
 1-El. energy change                    ....  1.000e-05 Eh
 Orbital Gradient       TolG            ....  1.000e-05
 Orbital Rotation angle TolX            ....  1.000e-05
 DIIS Error             TolErr          ....  5.000e-07


Diagonalization of the overlap matrix:
Smallest eigenvalue                        ... 5.892e-06
Time for diagonalization                   ...    0.271 sec
Threshold for overlap eigenvalues          ... 1.000e-08
Number of eigenvalues below threshold      ... 0
Time for construction of square roots      ...    0.170 sec
Total time needed                          ...    0.450 sec

Time for model grid setup =    0.337 sec

------------------------------
INITIAL GUESS: MODEL POTENTIAL
------------------------------
Loading Hartree-Fock densities                     ... done
Calculating cut-offs                               ... done
Initializing the effective Hamiltonian             ... done
Setting up the integral package (SHARK)            ... done
Starting the Coulomb interaction                   ... done (   0.8 sec)
Reading the grid                                   ... done
Mapping shells                                     ... done
Starting the XC term evaluation                    ... done (   0.2 sec)
  promolecular density results
     # of electrons  =    205.996277605
     EX              =   -181.025980341
     EC              =     -7.037598432
     EX+EC           =   -188.063578773
Transforming the Hamiltonian                       ... done (   0.2 sec)
Diagonalizing the Hamiltonian                      ... done (   0.3 sec)
Back transforming the eigenvectors                 ... done (   0.1 sec)
Now organizing SCF variables                       ... done
                      ------------------
                      INITIAL GUESS DONE (   2.2 sec)
                      ------------------
-------------------
DFT GRID GENERATION
-------------------

General Integration Accuracy     IntAcc      ... 4.388
Radial Grid Type                 RadialGrid  ... OptM3 with GC (2021)
Angular Grid (max. ang.)         AngularGrid ... 4 (Lebedev-302)
Angular grid pruning method      GridPruning ... 4 (adaptive)
Weight generation scheme         WeightScheme... Becke
Basis function cutoff            BFCut       ... 1.0000e-11
Integration weight cutoff        WCut        ... 1.0000e-14
Angular grids for H and He will be reduced by one unit
Partially contracted basis set               ... off
Rotationally invariant grid construction     ... off

Total number of grid points                  ...   221218
Total number of batches                      ...     3479
Average number of points per batch           ...       63
Average number of grid points per atom       ...     4916
Time for grid setup =    1.396 sec

--------------------
COSX GRID GENERATION
--------------------

GRIDX 1
-------
General Integration Accuracy     IntAcc      ... 3.816
Radial Grid Type                 RadialGrid  ... OptM3 with GC (2021)
Angular Grid (max. ang.)         AngularGrid ... 1 (Lebedev-50)
Angular grid pruning method      GridPruning ... 4 (adaptive)
Weight generation scheme         WeightScheme... Becke
Basis function cutoff            BFCut       ... 1.0000e-11
Integration weight cutoff        WCut        ... 1.0000e-14
Angular grids for H and He will be reduced by one unit
Partially contracted basis set               ... on
Rotationally invariant grid construction     ... off

Total number of grid points                  ...    28035
Total number of batches                      ...      462
Average number of points per batch           ...       60
Average number of grid points per atom       ...      623
UseSFitting                                  ... on

GRIDX 2
-------
General Integration Accuracy     IntAcc      ... 4.020
Radial Grid Type                 RadialGrid  ... OptM3 with GC (2021)
Angular Grid (max. ang.)         AngularGrid ... 2 (Lebedev-110)
Angular grid pruning method      GridPruning ... 4 (adaptive)
Weight generation scheme         WeightScheme... Becke
Basis function cutoff            BFCut       ... 1.0000e-11
Integration weight cutoff        WCut        ... 1.0000e-14
Angular grids for H and He will be reduced by one unit
Partially contracted basis set               ... on
Rotationally invariant grid construction     ... off

Total number of grid points                  ...    61316
Total number of batches                      ...      982
Average number of points per batch           ...       62
Average number of grid points per atom       ...     1363
UseSFitting                                  ... on

GRIDX 3
-------
General Integration Accuracy     IntAcc      ... 4.338
Radial Grid Type                 RadialGrid  ... OptM3 with GC (2021)
Angular Grid (max. ang.)         AngularGrid ... 3 (Lebedev-194)
Angular grid pruning method      GridPruning ... 4 (adaptive)
Weight generation scheme         WeightScheme... Becke
Basis function cutoff            BFCut       ... 1.0000e-11
Integration weight cutoff        WCut        ... 1.0000e-14
Angular grids for H and He will be reduced by one unit
Partially contracted basis set               ... on
Rotationally invariant grid construction     ... off

Total number of grid points                  ...   134072
Total number of batches                      ...     2117
Average number of points per batch           ...       63
Average number of grid points per atom       ...     2979
UseSFitting                                  ... on

Time for X-Grid setup             =    3.133 sec


--------------------
CPCM SOLVATION MODEL
--------------------
CPCM parameters:
  Epsilon                                         ...      47.2000
  Refrac                                          ...       1.4790
  Rsolv                                           ...       1.3000
  Surface type                                    ... GAUSSIAN VDW
  Epsilon function type                           ...         CPCM
Radii:
 Radius for C  used is    3.8550 Bohr (=   2.0400 Ang.)
 Radius for N  used is    3.5149 Bohr (=   1.8600 Ang.)
 Radius for O  used is    3.4469 Bohr (=   1.8240 Ang.)
 Radius for H  used is    2.4944 Bohr (=   1.3200 Ang.)
 Radius for F  used is    3.3335 Bohr (=   1.7640 Ang.)
Calculating surface                               ...        done! (  0.0s)
GEPOL surface points                              ...         2249
GEPOL Volume                                      ...    2817.3076
GEPOL Surface-area                                ...    1385.6236
Calculating surface distance matrix               ...        done! (  0.1s)
Performing Cholesky decomposition & store         ...        done! (  0.3s)
Overall time for CPCM initialization              ...                 0.4s
--------------
SCF ITERATIONS
--------------
ITER       Energy         Delta-E        Max-DP      RMS-DP      [F,P]     Damp
               ***  Starting incremental Fock matrix formation  ***
  0  -1479.6057952842   0.000000000000 0.29196123  0.00083070  0.2734055 0.7000
  1  -1479.8648746468  -0.259079362555 0.21485693  0.00069198  0.1123525 0.7000
                               ***Turning on DIIS***
  2  -1479.9666062998  -0.101731653005 0.17523571  0.00118659  0.0311656 0.0000
  3  -1480.1386275724  -0.172021272648 0.21035817  0.00057365  0.0545377 0.0000
  4  -1480.1679603384  -0.029332765928 0.02725730  0.00020625  0.0165053 0.0000
  5  -1480.1699523763  -0.001992037948 0.03415717  0.00007994  0.0048673 0.0000
                      *** Initiating the SOSCF procedure ***
                           *** Shutting down DIIS ***
                      *** Re-Reading the Fockian *** 
                      *** Removing any level shift *** 
ITER      Energy       Delta-E        Grad      Rot      Max-DP    RMS-DP
  6  -1480.17008343  -0.0001310520  0.000341  0.000341  0.006738  0.000020
               *** Restarting incremental Fock matrix formation ***
  7  -1480.17003392   0.0000495102  0.000126  0.000458  0.001713  0.000019
  8  -1480.17003244   0.0000014736  0.000302  0.000409  0.000843  0.000006
  9  -1480.17003656  -0.0000041198  0.000046  0.000130  0.000470  0.000003
 10  -1480.17003644   0.0000001281  0.000068  0.000083  0.000557  0.000002
 11  -1480.17003665  -0.0000002094  0.000006  0.000020  0.000482  0.000001
 12  -1480.17003665  -0.0000000030  0.000010  0.000015  0.000188  0.000001
                  ***Gradient check signals convergence***
              ***Rediagonalizing the Fockian in SOSCF/NRSCF***

               *****************************************************
               *                     SUCCESS                       *
               *           SCF CONVERGED AFTER  13 CYCLES          *
               *****************************************************

Old exchange energy                            =    -45.981436299 Eh
New exchange energy                            =    -45.981404495 Eh
Exchange energy change after final integration =      0.000031804 Eh
Total energy after final integration           =  -1480.170004814 Eh
Final COS-X integration done in                =    18.641 sec

----------------
TOTAL SCF ENERGY
----------------

Total Energy       :        -1480.17000481 Eh          -40277.47350 eV

Components:
Nuclear Repulsion  :         2977.32104175 Eh           81017.02437 eV
Electronic Energy  :        -4457.49104657 Eh         -121294.49787 eV
One Electron Energy:        -7955.32868527 Eh         -216475.49893 eV
Two Electron Energy:         3497.83763870 Eh           95181.00106 eV
Max COSX asymmetry :            0.00000287 Eh               0.00008 eV
CPCM Dielectric    :           -0.06189459 Eh              -1.68424 eV

Virial components:
Potential Energy   :        -2953.90729878 Eh          -80379.90404 eV
Kinetic Energy     :         1473.73729397 Eh           40102.43054 eV
Virial Ratio       :            2.00436490


DFT components:
N(Alpha)           :      103.000088988585 electrons
N(Beta)            :      103.000088988585 electrons
N(Total)           :      206.000177977170 electrons
E(X)               :     -137.765287524303 Eh       
E(C)               :       -7.023973629422 Eh       
E(XC)              :     -144.789261153725 Eh       
DFET-embed. en.    :        0.000000000000 Eh       
CPCM Solvation Model Properties:
Surface-charge          :           -0.02656013
Charge-correction       :           -0.00025745 Eh              -0.00701 eV
Free-energy (cav+disp)  :  This term is not implemented in the current solvation scheme

---------------
SCF CONVERGENCE
---------------

  Last Energy change         ...    3.0324e-08  Tolerance :   1.0000e-08
  Last MAX-Density change    ...    1.7764e-15  Tolerance :   1.0000e-07
  Last RMS-Density change    ...    1.3715e-17  Tolerance :   5.0000e-09
  Last Orbital Gradient      ...    1.2033e-06  Tolerance :   1.0000e-05
  Last Orbital Rotation      ...    4.8174e-06  Tolerance :   1.0000e-05

             **** THE GBW FILE WAS UPDATED (IM_CF3/IM_CF3.gbw) ****
             **** DENSITY IM_CF3/IM_CF3.scfp WAS UPDATED ****
             **** ENERGY FILE WAS UPDATED (IM_CF3/IM_CF3.en.tmp) ****
             **** THE GBW FILE WAS UPDATED (IM_CF3/IM_CF3.gbw) ****
             **** DENSITY IM_CF3/IM_CF3.scfp WAS UPDATED ****
----------------
ORBITAL ENERGIES
----------------

  NO   OCC          E(Eh)            E(eV) 
   0   2.0000     -24.801784      -674.8908 
   1   2.0000     -24.793364      -674.6617 
   2   2.0000     -24.791483      -674.6105 
   3   2.0000     -19.262757      -524.1663 
   4   2.0000     -19.249177      -523.7967 
   5   2.0000     -19.203342      -522.5495 
   6   2.0000     -19.192147      -522.2449 
   7   2.0000     -19.188375      -522.1422 
   8   2.0000     -14.578810      -396.7096 
   9   2.0000     -14.511986      -394.8912 
  10   2.0000     -10.467713      -284.8410 
  11   2.0000     -10.368505      -282.1414 
  12   2.0000     -10.314701      -280.6773 
  13   2.0000     -10.310406      -280.5604 
  14   2.0000     -10.306353      -280.4501 
  15   2.0000     -10.292174      -280.0643 
  16   2.0000     -10.280633      -279.7503 
  17   2.0000     -10.272588      -279.5313 
  18   2.0000     -10.270594      -279.4771 
  19   2.0000     -10.270189      -279.4661 
  20   2.0000     -10.269521      -279.4479 
  21   2.0000     -10.268113      -279.4096 
  22   2.0000     -10.252970      -278.9975 
  23   2.0000     -10.241885      -278.6959 
  24   2.0000     -10.231011      -278.4000 
  25   2.0000     -10.229577      -278.3609 
  26   2.0000     -10.228267      -278.3253 
  27   2.0000     -10.223096      -278.1846 
  28   2.0000      -1.344642       -36.5896 
  29   2.0000      -1.255629       -34.1674 
  30   2.0000      -1.248140       -33.9636 
  31   2.0000      -1.215496       -33.0753 
  32   2.0000      -1.157566       -31.4990 
  33   2.0000      -1.111921       -30.2569 
  34   2.0000      -1.081034       -29.4164 
  35   2.0000      -1.060092       -28.8466 
  36   2.0000      -1.030596       -28.0440 
  37   2.0000      -0.906015       -24.6539 
  38   2.0000      -0.886672       -24.1276 
  39   2.0000      -0.867616       -23.6090 
  40   2.0000      -0.840686       -22.8762 
  41   2.0000      -0.826348       -22.4861 
  42   2.0000      -0.790559       -21.5122 
  43   2.0000      -0.775696       -21.1078 
  44   2.0000      -0.754279       -20.5250 
  45   2.0000      -0.734687       -19.9919 
  46   2.0000      -0.726588       -19.7715 
  47   2.0000      -0.711731       -19.3672 
  48   2.0000      -0.708279       -19.2732 
  49   2.0000      -0.678640       -18.4667 
  50   2.0000      -0.642020       -17.4703 
  51   2.0000      -0.620881       -16.8950 
  52   2.0000      -0.617433       -16.8012 
  53   2.0000      -0.609832       -16.5944 
  54   2.0000      -0.608588       -16.5605 
  55   2.0000      -0.606335       -16.4992 
  56   2.0000      -0.578607       -15.7447 
  57   2.0000      -0.568220       -15.4620 
  58   2.0000      -0.557969       -15.1831 
  59   2.0000      -0.554231       -15.0814 
  60   2.0000      -0.541195       -14.7267 
  61   2.0000      -0.538281       -14.6474 
  62   2.0000      -0.526065       -14.3150 
  63   2.0000      -0.519150       -14.1268 
  64   2.0000      -0.511450       -13.9173 
  65   2.0000      -0.505867       -13.7653 
  66   2.0000      -0.501584       -13.6488 
  67   2.0000      -0.495444       -13.4817 
  68   2.0000      -0.492228       -13.3942 
  69   2.0000      -0.489571       -13.3219 
  70   2.0000      -0.486434       -13.2365 
  71   2.0000      -0.484687       -13.1890 
  72   2.0000      -0.481196       -13.0940 
  73   2.0000      -0.477770       -13.0008 
  74   2.0000      -0.458922       -12.4879 
  75   2.0000      -0.453030       -12.3276 
  76   2.0000      -0.448906       -12.2153 
  77   2.0000      -0.443567       -12.0701 
  78   2.0000      -0.442262       -12.0346 
  79   2.0000      -0.437537       -11.9060 
  80   2.0000      -0.429404       -11.6847 
  81   2.0000      -0.424030       -11.5384 
  82   2.0000      -0.419874       -11.4253 
  83   2.0000      -0.414455       -11.2779 
  84   2.0000      -0.410734       -11.1766 
  85   2.0000      -0.407015       -11.0754 
  86   2.0000      -0.395059       -10.7501 
  87   2.0000      -0.387792       -10.5524 
  88   2.0000      -0.381823       -10.3899 
  89   2.0000      -0.372716       -10.1421 
  90   2.0000      -0.366880        -9.9833 
  91   2.0000      -0.347228        -9.4486 
  92   2.0000      -0.341410        -9.2902 
  93   2.0000      -0.340651        -9.2696 
  94   2.0000      -0.330654        -8.9975 
  95   2.0000      -0.321578        -8.7506 
  96   2.0000      -0.311134        -8.4664 
  97   2.0000      -0.303123        -8.2484 
  98   2.0000      -0.297962        -8.1079 
  99   2.0000      -0.275240        -7.4897 
 100   2.0000      -0.267832        -7.2881 
 101   2.0000      -0.240006        -6.5309 
 102   2.0000      -0.229492        -6.2448 
 103   0.0000      -0.084986        -2.3126 
 104   0.0000      -0.047639        -1.2963 
 105   0.0000      -0.022246        -0.6053 
 106   0.0000      -0.009821        -0.2672 
 107   0.0000       0.002327         0.0633 
 108   0.0000       0.008602         0.2341 
 109   0.0000       0.043597         1.1863 
 110   0.0000       0.059831         1.6281 
 111   0.0000       0.065111         1.7717 
 112   0.0000       0.067421         1.8346 
 113   0.0000       0.080574         2.1925 
 114   0.0000       0.083530         2.2730 
 115   0.0000       0.090313         2.4575 
 116   0.0000       0.093787         2.5521 
 117   0.0000       0.096113         2.6154 
 118   0.0000       0.102036         2.7765 
 119   0.0000       0.106389         2.8950 
 120   0.0000       0.109538         2.9807 
 121   0.0000       0.115951         3.1552 
 122   0.0000       0.118295         3.2190 
 123   0.0000       0.126402         3.4396 
 124   0.0000       0.130839         3.5603 
 125   0.0000       0.134328         3.6553 
 126   0.0000       0.135186         3.6786 
 127   0.0000       0.138933         3.7806 
 128   0.0000       0.143665         3.9093 
 129   0.0000       0.146994         3.9999 
 130   0.0000       0.151933         4.1343 
 131   0.0000       0.154118         4.1938 
 132   0.0000       0.158833         4.3221 
 133   0.0000       0.161292         4.3890 
 134   0.0000       0.162937         4.4337 
 135   0.0000       0.177332         4.8254 
 136   0.0000       0.186004         5.0614 
 137   0.0000       0.193805         5.2737 
 138   0.0000       0.198925         5.4130 
 139   0.0000       0.204627         5.5682 
 140   0.0000       0.207492         5.6462 
 141   0.0000       0.211532         5.7561 
 142   0.0000       0.214856         5.8465 
 143   0.0000       0.216948         5.9034 
 144   0.0000       0.221077         6.0158 
 145   0.0000       0.222907         6.0656 
 146   0.0000       0.227484         6.1901 
 147   0.0000       0.228805         6.2261 
 148   0.0000       0.231811         6.3079 
 149   0.0000       0.236518         6.4360 
 150   0.0000       0.239189         6.5087 
 151   0.0000       0.243504         6.6261 
 152   0.0000       0.247680         6.7397 
 153   0.0000       0.248666         6.7666 
 154   0.0000       0.250034         6.8038 
 155   0.0000       0.257400         7.0042 
 156   0.0000       0.262499         7.1430 
 157   0.0000       0.265394         7.2218 
 158   0.0000       0.266372         7.2483 
 159   0.0000       0.280272         7.6266 
 160   0.0000       0.281277         7.6539 
 161   0.0000       0.285047         7.7565 
 162   0.0000       0.291609         7.9351 
 163   0.0000       0.298746         8.1293 
 164   0.0000       0.301275         8.1981 
 165   0.0000       0.306097         8.3293 
 166   0.0000       0.307610         8.3705 
 167   0.0000       0.312537         8.5046 
 168   0.0000       0.314468         8.5571 
 169   0.0000       0.319169         8.6850 
 170   0.0000       0.323713         8.8087 
 171   0.0000       0.329281         8.9602 
 172   0.0000       0.329736         8.9726 
 173   0.0000       0.332047         9.0355 
 174   0.0000       0.334282         9.0963 
 175   0.0000       0.342387         9.3168 
 176   0.0000       0.344281         9.3684 
 177   0.0000       0.353686         9.6243 
 178   0.0000       0.355165         9.6645 
 179   0.0000       0.366617         9.9762 
 180   0.0000       0.368071        10.0157 
 181   0.0000       0.375321        10.2130 
 182   0.0000       0.378274        10.2933 
 183   0.0000       0.382735        10.4147 
 184   0.0000       0.388923        10.5831 
 185   0.0000       0.393033        10.6950 
 186   0.0000       0.395883        10.7725 
 187   0.0000       0.402917        10.9639 
 188   0.0000       0.406038        11.0489 
 189   0.0000       0.407784        11.0964 
 190   0.0000       0.410133        11.1603 
 191   0.0000       0.411775        11.2050 
 192   0.0000       0.419458        11.4140 
 193   0.0000       0.419836        11.4243 
 194   0.0000       0.422502        11.4969 
 195   0.0000       0.426016        11.5925 
 196   0.0000       0.431745        11.7484 
 197   0.0000       0.434551        11.8247 
 198   0.0000       0.437175        11.8961 
 199   0.0000       0.444682        12.1004 
 200   0.0000       0.448315        12.1993 
 201   0.0000       0.450372        12.2553 
 202   0.0000       0.453292        12.3347 
 203   0.0000       0.455965        12.4074 
 204   0.0000       0.457374        12.4458 
 205   0.0000       0.463768        12.6198 
 206   0.0000       0.465945        12.6790 
 207   0.0000       0.467492        12.7211 
 208   0.0000       0.473196        12.8763 
 209   0.0000       0.475081        12.9276 
 210   0.0000       0.477060        12.9815 
 211   0.0000       0.481236        13.0951 
 212   0.0000       0.483811        13.1652 
 213   0.0000       0.487748        13.2723 
 214   0.0000       0.492962        13.4142 
 215   0.0000       0.498491        13.5646 
 216   0.0000       0.504402        13.7255 
 217   0.0000       0.505109        13.7447 
 218   0.0000       0.508666        13.8415 
 219   0.0000       0.514711        14.0060 
 220   0.0000       0.521730        14.1970 
 221   0.0000       0.524283        14.2665 
 222   0.0000       0.532479        14.4895 
 223   0.0000       0.533550        14.5186 
 224   0.0000       0.540220        14.7001 
 225   0.0000       0.544570        14.8185 
 226   0.0000       0.549297        14.9471 
 227   0.0000       0.554251        15.0819 
 228   0.0000       0.566359        15.4114 
 229   0.0000       0.571222        15.5438 
 230   0.0000       0.573364        15.6020 
 231   0.0000       0.579585        15.7713 
 232   0.0000       0.584304        15.8997 
 233   0.0000       0.588590        16.0163 
 234   0.0000       0.596999        16.2452 
 235   0.0000       0.601291        16.3620 
 236   0.0000       0.610631        16.6161 
 237   0.0000       0.613263        16.6877 
 238   0.0000       0.621741        16.9184 
 239   0.0000       0.631253        17.1773 
 240   0.0000       0.631783        17.1917 
 241   0.0000       0.640432        17.4270 
 242   0.0000       0.644565        17.5395 
 243   0.0000       0.652808        17.7638 
 244   0.0000       0.655051        17.8248 
 245   0.0000       0.663628        18.0582 
 246   0.0000       0.673787        18.3347 
 247   0.0000       0.674557        18.3556 
 248   0.0000       0.676125        18.3983 
 249   0.0000       0.677680        18.4406 
 250   0.0000       0.679248        18.4833 
 251   0.0000       0.683689        18.6041 
 252   0.0000       0.694686        18.9034 
 253   0.0000       0.705515        19.1980 
 254   0.0000       0.709701        19.3119 
 255   0.0000       0.716679        19.5018 
 256   0.0000       0.719387        19.5755 
 257   0.0000       0.730212        19.8701 
 258   0.0000       0.733066        19.9477 
 259   0.0000       0.738893        20.1063 
 260   0.0000       0.739745        20.1295 
 261   0.0000       0.741745        20.1839 
 262   0.0000       0.751294        20.4438 
 263   0.0000       0.756594        20.5880 
 264   0.0000       0.758687        20.6449 
 265   0.0000       0.765521        20.8309 
 266   0.0000       0.768483        20.9115 
 267   0.0000       0.781193        21.2573 
 268   0.0000       0.784976        21.3603 
 269   0.0000       0.790008        21.4972 
 270   0.0000       0.790706        21.5162 
 271   0.0000       0.793356        21.5883 
 272   0.0000       0.797805        21.7094 
 273   0.0000       0.804375        21.8882 
 274   0.0000       0.809753        22.0345 
 275   0.0000       0.812914        22.1205 
 276   0.0000       0.827148        22.5079 
 277   0.0000       0.828513        22.5450 
 278   0.0000       0.831028        22.6134 
 279   0.0000       0.837362        22.7858 
 280   0.0000       0.845409        23.0048 
 281   0.0000       0.855251        23.2726 
 282   0.0000       0.858301        23.3556 
 283   0.0000       0.866864        23.5886 
 284   0.0000       0.872314        23.7369 
 285   0.0000       0.883405        24.0387 
 286   0.0000       0.887369        24.1466 
 287   0.0000       0.890038        24.2192 
 288   0.0000       0.893295        24.3078 
 289   0.0000       0.899104        24.4659 
 290   0.0000       0.905219        24.6323 
 291   0.0000       0.916115        24.9288 
 292   0.0000       0.921322        25.0704 
 293   0.0000       0.925219        25.1765 
 294   0.0000       0.933127        25.3917 
 295   0.0000       0.938459        25.5368 
 296   0.0000       0.948576        25.8121 
 297   0.0000       0.954092        25.9622 
[...]
 28:    271.79   0.003291   16.63  0.003778  ( 0.006591  0.031730 -0.052229)
 29:    301.17   0.000434    2.20  0.000450  ( 0.000295  0.003859 -0.020862)
 30:    306.56   0.001312    6.63  0.001335  (-0.030974 -0.009573  0.016862)
 31:    316.20   0.000141    0.71  0.000139  ( 0.002949 -0.011348 -0.001248)
 32:    370.34   0.003941   19.92  0.003321  ( 0.008415  0.004243 -0.056852)
 33:    372.50   0.001241    6.27  0.001039  ( 0.000973  0.020329  0.025005)
 34:    420.62   0.000287    1.45  0.000213  ( 0.010754  0.006767  0.007190)
 35:    434.10   0.000901    4.55  0.000648  (-0.012207 -0.004375 -0.021904)
 36:    452.79   0.000272    1.37  0.000188  (-0.002586 -0.009898 -0.009102)
 37:    463.18   0.000151    0.76  0.000101  (-0.006044 -0.006631 -0.004574)
 38:    480.62   0.000065    0.33  0.000042  (-0.004586  0.003204  0.003261)
 39:    502.72   0.001096    5.54  0.000681  ( 0.005795  0.017464 -0.018491)
 40:    536.18   0.004975   25.14  0.002896  ( 0.038154  0.007032  0.037289)
 41:    559.16   0.002183   11.03  0.001218  ( 0.021870  0.022796  0.014848)
 42:    576.32   0.002325   11.75  0.001259  ( 0.028998  0.014059 -0.014844)
 43:    580.89   0.007837   39.60  0.004210  (-0.049537 -0.000030 -0.041906)
 44:    603.58   0.002811   14.20  0.001453  (-0.033819  0.013133 -0.011707)
 45:    615.08   0.002029   10.25  0.001029  ( 0.013996  0.004565 -0.028509)
 46:    648.05   0.003506   17.72  0.001688  ( 0.009264  0.038450  0.011137)
 47:    659.62   0.001105    5.59  0.000523  ( 0.021760  0.006967 -0.000932)
 48:    672.52   0.004463   22.55  0.002071  (-0.005277 -0.042620 -0.015050)
 49:    693.84   0.001933    9.77  0.000869  (-0.012097  0.026655  0.003526)
 50:    714.20   0.031112  157.23  0.013594  ( 0.084850  0.063771  0.048246)
 51:    731.47   0.000623    3.15  0.000266  ( 0.008266  0.006175 -0.012630)
 52:    756.60   0.002903   14.67  0.001198  ( 0.012203  0.024123  0.021604)
 53:    768.35   0.019158   96.82  0.007781  ( 0.037903  0.053244  0.059240)
 54:    788.78   0.002869   14.50  0.001135  (-0.015518  0.018224  0.023713)
 55:    803.11   0.005249   26.53  0.002040  (-0.013562 -0.010292  0.041832)
 56:    804.35   0.007061   35.68  0.002740  (-0.043217 -0.024015 -0.017179)
 57:    818.08   0.000509    2.57  0.000194  ( 0.005945  0.005504 -0.011340)
 58:    836.67   0.004043   20.43  0.001508  ( 0.009021  0.024833  0.028462)
 59:    856.69   0.004495   22.71  0.001637  ( 0.022808  0.015636 -0.029538)
 60:    873.29   0.000385    1.94  0.000137  (-0.010950 -0.003049  0.002877)
 61:    890.00   0.000209    1.06  0.000073  (-0.002419 -0.005900 -0.005708)
 62:    924.31   0.005864   29.64  0.001980  ( 0.028930  0.016221  0.029661)
 63:    929.41   0.015599   78.83  0.005237  (-0.051118  0.031420 -0.040463)
 64:    956.06   0.000139    0.70  0.000045  ( 0.004913 -0.004269  0.001724)
 65:    984.81   0.000134    0.67  0.000042  (-0.001783  0.005700  0.002579)
 66:    994.02   0.000808    4.08  0.000254  (-0.010181 -0.001324 -0.012172)
 67:   1013.65   0.045578  230.33  0.014032  ( 0.041485  0.044284  0.101733)
 68:   1028.99   0.008153   41.20  0.002473  (-0.002337 -0.026756 -0.041847)
 69:   1046.48   0.005536   27.97  0.001651  (-0.008952 -0.035852 -0.016887)
 70:   1049.68   0.000237    1.20  0.000070  (-0.005740 -0.000158  0.006122)
 71:   1061.86   0.000365    1.84  0.000107  ( 0.001148  0.001124  0.010228)
 72:   1071.95   0.013211   66.77  0.003846  ( 0.036618 -0.038437  0.032060)
 73:   1073.52   0.092620  468.06  0.026924  (-0.082684 -0.120651  0.074369)
 74:   1082.95   0.041327  208.85  0.011909  ( 0.055559 -0.052136 -0.078126)
 75:   1084.71   0.001007    5.09  0.000290  (-0.004547 -0.001719 -0.016312)
 76:   1088.65   0.053821  271.99  0.015428  ( 0.041026 -0.084467 -0.081302)
 77:   1112.55   0.014253   72.03  0.003998  ( 0.046160 -0.034443  0.026096)
 78:   1130.55   0.003938   19.90  0.001087  ( 0.010761 -0.018471  0.025102)
 79:   1139.35   0.014433   72.94  0.003953  (-0.048586  0.039901  0.000702)
 80:   1170.05   0.000255    1.29  0.000068  ( 0.007509 -0.001277  0.003155)
 81:   1171.30   0.000111    0.56  0.000030  ( 0.000894  0.002286  0.004853)
 82:   1172.56   0.001279    6.46  0.000340  (-0.016326  0.004135  0.007534)
 83:   1173.32   0.002046   10.34  0.000544  (-0.015688  0.016836 -0.003829)
 84:   1196.74   0.002382   12.04  0.000621  ( 0.009394 -0.022813 -0.003517)
 85:   1208.84   0.001188    6.00  0.000307  (-0.001857 -0.010836  0.013634)
 86:   1212.22   0.001622    8.20  0.000418  ( 0.017949 -0.006047 -0.007673)
 87:   1229.46   0.007788   39.36  0.001977  ( 0.002347 -0.004546  0.044165)
 88:   1232.54   0.006752   34.12  0.001710  ( 0.025181  0.011850 -0.030580)
 89:   1249.53   0.020264  102.40  0.005061  (-0.002249  0.051267 -0.049269)
 90:   1267.84   0.038357  193.84  0.009441  (-0.038092  0.086681  0.021829)
 91:   1275.92   0.098757  499.08  0.024154  ( 0.039853 -0.022748 -0.148486)
 92:   1291.03   0.017491   88.39  0.004228  (-0.061666  0.002934 -0.020410)
 93:   1295.84   0.047850  241.81  0.011523  (-0.105793 -0.005647  0.017296)
 94:   1318.35   0.012610   63.72  0.002985  ( 0.007861 -0.000542 -0.054062)
 95:   1330.24   0.028088  141.94  0.006589  (-0.024848  0.076598  0.010219)
 96:   1356.06   0.016767   84.73  0.003858  (-0.003021 -0.015156 -0.060164)
 97:   1375.85   0.041879  211.64  0.009499  (-0.050698 -0.028211 -0.078312)
 98:   1380.65   0.034891  176.33  0.007886  ( 0.043179  0.027159  0.072693)
 99:   1390.78   0.045133  228.08  0.010127  (-0.087696  0.007329 -0.048812)
100:   1426.12   0.024374  123.18  0.005334  (-0.026039  0.026821  0.062739)
101:   1447.44   0.046518  235.08  0.010029  ( 0.051382  0.031775  0.079870)
102:   1465.35   0.011756   59.41  0.002503  (-0.049962  0.002659 -0.000463)
103:   1466.03   0.002563   12.95  0.000545  ( 0.021197 -0.003163  0.009282)
104:   1471.99   0.011876   60.02  0.002518  (-0.021569  0.012447  0.043561)
105:   1473.40   0.003051   15.42  0.000646  (-0.010420 -0.015348 -0.017382)
106:   1474.47   0.002958   14.95  0.000626  (-0.002017 -0.022506  0.010741)
107:   1484.39   0.005900   29.82  0.001240  ( 0.029103 -0.001954 -0.019737)
108:   1498.18   0.022034  111.35  0.004589  (-0.062099  0.020095  0.018149)
109:   1519.37   0.201568  1018.64  0.041400  ( 0.148865 -0.134304 -0.034670)
110:   1529.63   0.004797   24.24  0.000979  (-0.014018  0.023023 -0.015876)
111:   1533.31   0.010407   52.59  0.002118  ( 0.040398  0.014245 -0.016825)
112:   1535.69   0.014195   71.74  0.002885  ( 0.040572  0.001313 -0.035168)
113:   1644.09   0.002213   11.18  0.000420  ( 0.015967 -0.008372 -0.009745)
114:   1647.87   0.003101   15.67  0.000587  ( 0.017901 -0.015517  0.005099)
115:   1664.53   0.011901   60.14  0.002231  (-0.040401  0.003536  0.024218)
116:   1697.49   0.019099   96.52  0.003511  ( 0.014296  0.027843 -0.050314)
117:   1787.24   0.109185  551.78  0.019064  ( 0.045066  0.125944 -0.034228)
118:   3038.55   0.013086   66.13  0.001344  (-0.026760  0.024730 -0.004041)
119:   3072.76   0.006369   32.19  0.000647  ( 0.000147  0.011083  0.022890)
120:   3083.19   0.000389    1.97  0.000039  (-0.005126 -0.003618  0.000160)
121:   3110.60   0.007405   37.42  0.000743  ( 0.011490  0.016646  0.018270)
122:   3114.42   0.004041   20.42  0.000405  ( 0.004462 -0.019327 -0.003391)
123:   3156.99   0.003665   18.52  0.000362  (-0.018576  0.003050 -0.002822)
124:   3166.48   0.003714   18.77  0.000366  ( 0.013271  0.004552 -0.013007)
125:   3190.46   0.002115   10.69  0.000207  ( 0.002770  0.011067 -0.008761)
126:   3193.11   0.000444    2.24  0.000043  ( 0.001466 -0.005059  0.003955)
127:   3207.56   0.002538   12.83  0.000247  (-0.006877 -0.007806  0.011778)
128:   3220.86   0.000179    0.91  0.000017  ( 0.001853  0.001875 -0.003231)
129:   3222.01   0.002569   12.98  0.000249  (-0.014653  0.002380  0.005333)
130:   3230.53   0.000449    2.27  0.000043  (-0.002569  0.005445 -0.002668)
131:   3237.50   0.003996   20.19  0.000385  (-0.013680 -0.005231  0.013063)
132:   3240.40   0.002765   13.98  0.000266  ( 0.007477  0.007351 -0.012505)
133:   3246.91   0.005139   25.97  0.000494  ( 0.019303 -0.001663 -0.010888)
134:   3252.43   0.001141    5.77  0.000109  ( 0.004652 -0.009095  0.002260)

* The epsilon (eps) is given for a Dirac delta lineshape.
** The dipole moment derivative (T) already includes vibrational overlap.

The first frequency considered to be a vibration is 6
The total number of vibrations considered is 129


--------------------------
THERMOCHEMISTRY AT 298.15K
--------------------------

Temperature         ... 298.15 K
Pressure            ... 1.00 atm
Total Mass          ... 398.34 AMU

Throughout the following assumptions are being made:
  (1) The electronic state is orbitally nondegenerate
  (2) There are no thermally accessible electronically excited states
  (3) Hindered rotations indicated by low frequency modes are not
      treated as such but are treated as vibrations and this may
      cause some error
  (4) All equations used are the standard statistical mechanics
      equations for an ideal gas
  (5) All vibrations are strictly harmonic

freq.      24.20  E(vib)   ...       0.56 
freq.      34.70  E(vib)   ...       0.54 
freq.      41.68  E(vib)   ...       0.53 
freq.      42.64  E(vib)   ...       0.53 
freq.      51.39  E(vib)   ...       0.52 
freq.      64.54  E(vib)   ...       0.51 
freq.      80.92  E(vib)   ...       0.48 
freq.      87.23  E(vib)   ...       0.48 
freq.      96.49  E(vib)   ...       0.47 
freq.     103.49  E(vib)   ...       0.46 
freq.     117.55  E(vib)   ...       0.44 
freq.     132.16  E(vib)   ...       0.42 
freq.     143.44  E(vib)   ...       0.41 
freq.     150.53  E(vib)   ...       0.40 
freq.     167.75  E(vib)   ...       0.38 
freq.     176.10  E(vib)   ...       0.38 
freq.     179.38  E(vib)   ...       0.37 
freq.     209.95  E(vib)   ...       0.34 
freq.     224.36  E(vib)   ...       0.33 
freq.     249.13  E(vib)   ...       0.31 
freq.     251.31  E(vib)   ...       0.30 
freq.     255.58  E(vib)   ...       0.30 
freq.     271.79  E(vib)   ...       0.29 
freq.     301.17  E(vib)   ...       0.26 
freq.     306.56  E(vib)   ...       0.26 
freq.     316.20  E(vib)   ...       0.25 
freq.     370.34  E(vib)   ...       0.21 
freq.     372.50  E(vib)   ...       0.21 
freq.     420.62  E(vib)   ...       0.18 
freq.     434.10  E(vib)   ...       0.17 
freq.     452.79  E(vib)   ...       0.16 
freq.     463.18  E(vib)   ...       0.16 
freq.     480.62  E(vib)   ...       0.15 
freq.     502.72  E(vib)   ...       0.14 
freq.     536.18  E(vib)   ...       0.12 
freq.     559.16  E(vib)   ...       0.12 
freq.     576.32  E(vib)   ...       0.11 
freq.     580.89  E(vib)   ...       0.11 
freq.     603.58  E(vib)   ...       0.10 
freq.     615.08  E(vib)   ...       0.10 
freq.     648.05  E(vib)   ...       0.08 
freq.     659.62  E(vib)   ...       0.08 
freq.     672.52  E(vib)   ...       0.08 
freq.     693.84  E(vib)   ...       0.07 
freq.     714.20  E(vib)   ...       0.07 
freq.     731.47  E(vib)   ...       0.06 
freq.     756.60  E(vib)   ...       0.06 
freq.     768.35  E(vib)   ...       0.06 
freq.     788.78  E(vib)   ...       0.05 
freq.     803.11  E(vib)   ...       0.05 
freq.     804.35  E(vib)   ...       0.05 
freq.     818.08  E(vib)   ...       0.05 
freq.     836.67  E(vib)   ...       0.04 
freq.     856.69  E(vib)   ...       0.04 
freq.     873.29  E(vib)   ...       0.04 
freq.     890.00  E(vib)   ...       0.04 
freq.     924.31  E(vib)   ...       0.03 
freq.     929.41  E(vib)   ...       0.03 
freq.     956.06  E(vib)   ...       0.03 
freq.     984.81  E(vib)   ...       0.02 
freq.     994.02  E(vib)   ...       0.02 
freq.    1013.65  E(vib)   ...       0.02 
freq.    1028.99  E(vib)   ...       0.02 
freq.    1046.48  E(vib)   ...       0.02 
freq.    1049.68  E(vib)   ...       0.02 
freq.    1061.86  E(vib)   ...       0.02 
freq.    1071.95  E(vib)   ...       0.02 
freq.    1073.52  E(vib)   ...       0.02 
freq.    1082.95  E(vib)   ...       0.02 
freq.    1084.71  E(vib)   ...       0.02 
freq.    1088.65  E(vib)   ...       0.02 
freq.    1112.55  E(vib)   ...       0.01 
freq.    1130.55  E(vib)   ...       0.01 
freq.    1139.35  E(vib)   ...       0.01 
freq.    1170.05  E(vib)   ...       0.01 
freq.    1171.30  E(vib)   ...       0.01 
freq.    1172.56  E(vib)   ...       0.01 
freq.    1173.32  E(vib)   ...       0.01 
freq.    1196.74  E(vib)   ...       0.01 
freq.    1208.84  E(vib)   ...       0.01 
freq.    1212.22  E(vib)   ...       0.01 
freq.    1229.46  E(vib)   ...       0.01 
freq.    1232.54  E(vib)   ...       0.01 
freq.    1249.53  E(vib)   ...       0.01 
freq.    1267.84  E(vib)   ...       0.01 
freq.    1275.92  E(vib)   ...       0.01 
freq.    1291.03  E(vib)   ...       0.01 
freq.    1295.84  E(vib)   ...       0.01 
freq.    1318.35  E(vib)   ...       0.01 
freq.    1330.24  E(vib)   ...       0.01 
freq.    1356.06  E(vib)   ...       0.01 
freq.    1375.85  E(vib)   ...       0.01 
freq.    1380.65  E(vib)   ...       0.01 
freq.    1390.78  E(vib)   ...       0.00 
freq.    1426.12  E(vib)   ...       0.00 
freq.    1447.44  E(vib)   ...       0.00 
freq.    1465.35  E(vib)   ...       0.00 
freq.    1466.03  E(vib)   ...       0.00 
freq.    1471.99  E(vib)   ...       0.00 
freq.    1473.40  E(vib)   ...       0.00 
freq.    1474.47  E(vib)   ...       0.00 
freq.    1484.39  E(vib)   ...       0.00 
freq.    1498.18  E(vib)   ...       0.00 
freq.    1519.37  E(vib)   ...       0.00 
freq.    1529.63  E(vib)   ...       0.00 
freq.    1533.31  E(vib)   ...       0.00 
freq.    1535.69  E(vib)   ...       0.00 
freq.    1644.09  E(vib)   ...       0.00 
freq.    1647.87  E(vib)   ...       0.00 
freq.    1664.53  E(vib)   ...       0.00 
freq.    1697.49  E(vib)   ...       0.00 
freq.    1787.24  E(vib)   ...       0.00 
freq.    3038.55  E(vib)   ...       0.00 
freq.    3072.76  E(vib)   ...       0.00 
freq.    3083.19  E(vib)   ...       0.00 
freq.    3110.60  E(vib)   ...       0.00 
freq.    3114.42  E(vib)   ...       0.00 
freq.    3156.99  E(vib)   ...       0.00 
freq.    3166.48  E(vib)   ...       0.00 
freq.    3190.46  E(vib)   ...       0.00 
freq.    3193.11  E(vib)   ...       0.00 
freq.    3207.56  E(vib)   ...       0.00 
freq.    3220.86  E(vib)   ...       0.00 
freq.    3222.01  E(vib)   ...       0.00 
freq.    3230.53  E(vib)   ...       0.00 
freq.    3237.50  E(vib)   ...       0.00 
freq.    3240.40  E(vib)   ...       0.00 
freq.    3246.91  E(vib)   ...       0.00 
freq.    3252.43  E(vib)   ...       0.00 

------------
INNER ENERGY
------------

The inner energy is: U= E(el) + E(ZPE) + E(vib) + E(rot) + E(trans)
    E(el)   - is the total energy from the electronic structure calculation
              = E(kin-el) + E(nuc-el) + E(el-el) + E(nuc-nuc)
    E(ZPE)  - the the zero temperature vibrational energy from the frequency calculation
    E(vib)  - the the finite temperature correction to E(ZPE) due to population
              of excited vibrational states
    E(rot)  - is the rotational thermal energy
    E(trans)- is the translational thermal energy

Summary of contributions to the inner energy U:
Electronic energy                ...  -1480.23023338 Eh
Zero point energy                ...      0.33987504 Eh     213.27 kcal/mol
Thermal vibrational correction   ...      0.02241739 Eh      14.07 kcal/mol
Thermal rotational correction    ...      0.00141627 Eh       0.89 kcal/mol
Thermal translational correction ...      0.00141627 Eh       0.89 kcal/mol
-----------------------------------------------------------------------
Total thermal energy                  -1479.86510840 Eh


Summary of corrections to the electronic energy:
(perhaps to be used in another calculation)
Total thermal correction                  0.02524993 Eh      15.84 kcal/mol
Non-thermal (ZPE) correction              0.33987504 Eh     213.27 kcal/mol
-----------------------------------------------------------------------
Total correction                          0.36512498 Eh     229.12 kcal/mol


--------
ENTHALPY
--------

The enthalpy is H = U + kB*T
                kB is Boltzmann's constant
Total free energy                 ...  -1479.86510840 Eh 
Thermal Enthalpy correction       ...      0.00094421 Eh       0.59 kcal/mol
-----------------------------------------------------------------------
Total Enthalpy                    ...  -1479.86416420 Eh


Note: Only C1 symmetry has been detected, increase convergence thresholds 
      if your molecule has a higher symmetry. Symmetry factor of 1.0 is   
      used for the rotational entropy correction. 
 

Note: Rotational entropy computed according to Herzberg 
Infrared and Raman Spectra, Chapter V,1, Van Nostrand Reinhold, 1945 
Point Group:  C1, Symmetry Number:   1  
Rotational constants in cm-1:     0.007638     0.005692     0.005013 

Vibrational entropy computed according to the QRRHO of S. Grimme
Chem.Eur.J. 2012 18 9955


-------
ENTROPY
-------

The entropy contributions are T*S = T*(S(el)+S(vib)+S(rot)+S(trans))
     S(el)   - electronic entropy
     S(vib)  - vibrational entropy
     S(rot)  - rotational entropy
     S(trans)- translational entropy
The entropies will be listed as multiplied by the temperature to get
units of energy

Electronic entropy                ...      0.00000000 Eh      0.00 kcal/mol
Vibrational entropy               ...      0.04026504 Eh     25.27 kcal/mol
Rotational entropy                ...      0.01675225 Eh     10.51 kcal/mol
Translational entropy             ...      0.02082871 Eh     13.07 kcal/mol
-----------------------------------------------------------------------
Final entropy term                ...      0.07784601 Eh     48.85 kcal/mol

In case the symmetry of your molecule has not been determined correctly
or in case you have a reason to use a different symmetry number we print 
out the resulting rotational entropy values for sn=1,12 :
 --------------------------------------------------------
|  sn= 1 | S(rot)=       0.01675225 Eh     10.51 kcal/mol|
|  sn= 2 | S(rot)=       0.01609780 Eh     10.10 kcal/mol|
|  sn= 3 | S(rot)=       0.01571496 Eh      9.86 kcal/mol|
|  sn= 4 | S(rot)=       0.01544334 Eh      9.69 kcal/mol|
|  sn= 5 | S(rot)=       0.01523265 Eh      9.56 kcal/mol|
|  sn= 6 | S(rot)=       0.01506051 Eh      9.45 kcal/mol|
|  sn= 7 | S(rot)=       0.01491496 Eh      9.36 kcal/mol|
|  sn= 8 | S(rot)=       0.01478888 Eh      9.28 kcal/mol|
|  sn= 9 | S(rot)=       0.01467767 Eh      9.21 kcal/mol|
|  sn=10 | S(rot)=       0.01457819 Eh      9.15 kcal/mol|
|  sn=11 | S(rot)=       0.01448820 Eh      9.09 kcal/mol|
|  sn=12 | S(rot)=       0.01440605 Eh      9.04 kcal/mol|
 --------------------------------------------------------


-------------------
GIBBS FREE ENERGY
-------------------

The Gibbs free energy is G = H - T*S

Total enthalpy                    ...  -1479.86416420 Eh 
Total entropy correction          ...     -0.07784601 Eh    -48.85 kcal/mol
-----------------------------------------------------------------------
Final Gibbs free energy         ...  -1479.94201020 Eh

For completeness - the Gibbs free energy minus the electronic energy
G-E(el)                           ...      0.28822318 Eh    180.86 kcal/mol


Timings for individual modules:

Sum of individual times         ...     6089.703 sec (= 101.495 min)
GTO integral calculation        ...       42.877 sec (=   0.715 min)   0.7 %
SCF iterations                  ...     1883.540 sec (=  31.392 min)  30.9 %
SCF Gradient evaluation         ...      526.929 sec (=   8.782 min)   8.7 %
Geometry relaxation             ...        2.146 sec (=   0.036 min)   0.0 %
Analytical frequency calculation...     3634.211 sec (=  60.570 min)  59.7 %
                             ****ORCA TERMINATED NORMALLY****
TOTAL RUN TIME: 0 days 1 hours 42 minutes 24 seconds 555 msec
