
                                 *****************
                                 * O   R   C   A *
                                 *****************

                                            #,                                       
                                            ###                                      
                                            ####                                     
                                            #####                                    
                                            ######                                   
                                           ########,                                 
                                     ,,################,,,,,                         
                               ,,#################################,,                 
                          ,,##########################################,,             
                       ,#########################################, ''#####,          
                    ,#############################################,,   '####,        
                  ,##################################################,,,,####,       
                ,###########''''           ''''###############################       
              ,#####''   ,,,,##########,,,,          '''####'''          '####       
            ,##' ,,,,###########################,,,                        '##       
           ' ,,###''''                  '''############,,,                           
         ,,##''                                '''############,,,,        ,,,,,,###''
      ,#''                                            '''#######################'''  
     '                                                          ''''####''''         
             ,#######,   #######,   ,#######,      ##                                
            ,#'     '#,  ##    ##  ,#'     '#,    #''#        ######   ,####,        
            ##       ##  ##   ,#'  ##            #'  '#       #        #'  '#        
            ##       ##  #######   ##           ,######,      #####,   #    #        
            '#,     ,#'  ##    ##  '#,     ,#' ,#      #,         ##   #,  ,#        
             '#######'   ##     ##  '#######'  #'      '#     #####' # '####'        



                  #######################################################
                  #                        -***-                        #
                  #          Department of theory and spectroscopy      #
                  #    Directorship and core code : Frank Neese         #
                  #        Max Planck Institute fuer Kohlenforschung    #
                  #                Kaiser Wilhelm Platz 1               #
                  #                 D-45470 Muelheim/Ruhr               #
                  #                      Germany                        #
                  #                                                     #
                  #                  All rights reserved                #
                  #                        -***-                        #
                  #######################################################


                         Program Version 5.0.4 -  RELEASE  -


 With contributions from (in alphabetic order):
   Daniel Aravena         : Magnetic Suceptibility
   Michael Atanasov       : Ab Initio Ligand Field Theory (pilot matlab implementation)
   Alexander A. Auer      : GIAO ZORA, VPT2 properties, NMR spectrum
   Ute Becker             : Parallelization
   Giovanni Bistoni       : ED, misc. LED, open-shell LED, HFLD
   Martin Brehm           : Molecular dynamics
   Dmytro Bykov           : SCF Hessian
   Vijay G. Chilkuri      : MRCI spin determinant printing, contributions to CSF-ICE
   Dipayan Datta          : RHF DLPNO-CCSD density
   Achintya Kumar Dutta   : EOM-CC, STEOM-CC
   Dmitry Ganyushin       : Spin-Orbit,Spin-Spin,Magnetic field MRCI
   Miquel Garcia          : C-PCM and meta-GGA Hessian, CC/C-PCM, Gaussian charge scheme
   Yang Guo               : DLPNO-NEVPT2, F12-NEVPT2, CIM, IAO-localization
   Andreas Hansen         : Spin unrestricted coupled pair/coupled cluster methods
   Benjamin Helmich-Paris : MC-RPA, TRAH-SCF, COSX integrals
   Lee Huntington         : MR-EOM, pCC
   Robert Izsak           : Overlap fitted RIJCOSX, COSX-SCS-MP3, EOM
   Marcus Kettner         : VPT2
   Christian Kollmar      : KDIIS, OOCD, Brueckner-CCSD(T), CCSD density, CASPT2, CASPT2-K
   Simone Kossmann        : Meta GGA functionals, TD-DFT gradient, OOMP2, MP2 Hessian
   Martin Krupicka        : Initial AUTO-CI
   Lucas Lang             : DCDCAS
   Marvin Lechner         : AUTO-CI (C++ implementation), FIC-MRCC
   Dagmar Lenk            : GEPOL surface, SMD
   Dimitrios Liakos       : Extrapolation schemes; Compound Job, initial MDCI parallelization
   Dimitrios Manganas     : Further ROCIS development; embedding schemes
   Dimitrios Pantazis     : SARC Basis sets
   Anastasios Papadopoulos: AUTO-CI, single reference methods and gradients
   Taras Petrenko         : DFT Hessian,TD-DFT gradient, ASA, ECA, R-Raman, ABS, FL, XAS/XES, NRVS
   Peter Pinski           : DLPNO-MP2, DLPNO-MP2 Gradient
   Christoph Reimann      : Effective Core Potentials
   Marius Retegan         : Local ZFS, SOC
   Christoph Riplinger    : Optimizer, TS searches, QM/MM, DLPNO-CCSD(T), (RO)-DLPNO pert. Triples
   Tobias Risthaus        : Range-separated hybrids, TD-DFT gradient, RPA, STAB
   Michael Roemelt        : Original ROCIS implementation
   Masaaki Saitow         : Open-shell DLPNO-CCSD energy and density
   Barbara Sandhoefer     : DKH picture change effects
   Avijit Sen             : IP-ROCIS
   Kantharuban Sivalingam : CASSCF convergence, NEVPT2, FIC-MRCI
   Bernardo de Souza      : ESD, SOC TD-DFT
   Georgi Stoychev        : AutoAux, RI-MP2 NMR, DLPNO-MP2 response
   Willem Van den Heuvel  : Paramagnetic NMR
   Boris Wezisla          : Elementary symmetry handling
   Frank Wennmohs         : Technical directorship


 We gratefully acknowledge several colleagues who have allowed us to
 interface, adapt or use parts of their codes:
   Stefan Grimme, W. Hujo, H. Kruse, P. Pracht,  : VdW corrections, initial TS optimization,
                  C. Bannwarth, S. Ehlert          DFT functionals, gCP, sTDA/sTD-DF
   Ed Valeev, F. Pavosevic, A. Kumar             : LibInt (2-el integral package), F12 methods
   Garnet Chan, S. Sharma, J. Yang, R. Olivares  : DMRG
   Ulf Ekstrom                                   : XCFun DFT Library
   Mihaly Kallay                                 : mrcc  (arbitrary order and MRCC methods)
   Jiri Pittner, Ondrej Demel                    : Mk-CCSD
   Frank Weinhold                                : gennbo (NPA and NBO analysis)
   Christopher J. Cramer and Donald G. Truhlar   : smd solvation model
   Lars Goerigk                                  : TD-DFT with DH, B97 family of functionals
   V. Asgeirsson, H. Jonsson                     : NEB implementation
   FAccTs GmbH                                   : IRC, NEB, NEB-TS, DLPNO-Multilevel, CI-OPT
                                                   MM, QMMM, 2- and 3-layer-ONIOM, Crystal-QMMM,
                                                   LR-CPCM, SF, NACMEs, symmetry and pop. for TD-DFT,
                                                   nearIR, NL-DFT gradient (VV10), updates on ESD,
                                                   ML-optimized integration grids
   S Lehtola, MJT Oliveira, MAL Marques          : LibXC Library
   Liviu Ungur et al                             : ANISO software


 Your calculation uses the libint2 library for the computation of 2-el integrals
 For citations please refer to: http://libint.valeyev.net

 Your ORCA version has been built with support for libXC version: 5.1.0
 For citations please refer to: https://tddft.org/programs/libxc/

 This ORCA versions uses:
   CBLAS   interface :  Fast vector & matrix operations
   LAPACKE interface :  Fast linear algebra routines
   SCALAPACK package :  Parallel linear algebra routines
   Shared memory     :  Shared parallel matrices
   BLAS/LAPACK       :  OpenBLAS 0.3.15  USE64BITINT DYNAMIC_ARCH NO_AFFINITY Haswell SINGLE_THREADED
        Core in use  :  Haswell
   Copyright (c) 2011-2014, The OpenBLAS Project


Your calculation utilizes the atom-pairwise dispersion correction
with the Becke-Johnson damping scheme (D3BJ)
Cite in your paper:
S.Grimme, S.Ehrlich, L.Goerigk, J Comput Chem, (2011), 32, 1456–1465 
S.Grimme, J.Antony, S.Ehrlich and H.Krieg, J.Chem.Phys., 132, (2010), 154104 
   

================================================================================

----- Orbital basis set information -----
Your calculation utilizes the basis: def2-TZVP
   F. Weigend and R. Ahlrichs, Phys. Chem. Chem. Phys. 7, 3297 (2005).

----- AuxJ basis set information -----
Your calculation utilizes the auxiliary basis: def2/J
   F. Weigend, Phys. Chem. Chem. Phys. 8, 1057 (2006).

================================================================================
                                        WARNINGS
                       Please study these warnings very carefully!
================================================================================


WARNING: Geometry Optimization
  ===> : Switching off AutoStart
         For restart on a previous wavefunction, please use MOREAD

INFO   : the flag for use of the SHARK integral package has been found!

================================================================================
                                       INPUT FILE
================================================================================
NAME = IM_CHCHCO2Me/IM_CHCHCO2Me.inp
|  1> %pal nprocs 24 end
|  2> ! PBE0 D3BJ def2-TZVP TightSCF OPT FREQ TightOpt
|  3> ! CPCM(dmso)
|  4> %scf
|  5> MaxIter 800
|  6> end
|  7> 
|  8> %geom
|  9> MaxIter 800
| 10> MaxStep 0.15
| 11> end
| 12> 
| 13> *xyz 0 1
| 14> C      -1.71782900      0.74969100     -4.11691000
| 15> C      -1.83062500      1.83242500     -3.24386600
| 16> C      -1.81944700      1.59997800     -1.88334700
| 17> N      -1.70746400      0.34571000     -1.40078800
| 18> C      -1.59785100     -0.71702400     -2.22500300
| 19> C      -1.60464000     -0.53647500     -3.59714000
| 20> C      -1.59320100      0.15075900      0.04584900
| 21> C      -2.58779200     -0.89961700      0.51454800
| 22> O      -3.39930600     -1.44068900     -0.19532300
| 23> O      -2.54456100     -1.01360800      1.82729100
| 24> C      -3.42061100     -1.96937600      2.41308000
| 25> H      -1.72116600      0.91039400     -5.19730300
| 26> H      -1.89360200      2.39831000     -1.14320600
| 27> H      -1.54742500     -1.69601300     -1.75048800
| 28> H      -1.51879400     -1.41001600     -4.24442000
| 29> H      -1.92847800      1.08639000      0.51602600
| 30> H      -3.18433500     -2.97648000      2.04093200
| 31> H      -4.46780400     -1.73133700      2.17947900
| 32> C       0.71715400     -0.96290300     -0.37334600
| 33> C      -0.08456900      0.01908100      0.42305100
| 34> C       0.13158600     -0.01086400      1.92386100
| 35> C       0.65036300     -1.11484600      2.59545800
| 36> C       0.86134800     -1.09301500      3.97539000
| 37> C       0.55013300      0.05470900      4.69882100
| 38> C       0.04100300      1.18124600      4.05077100
| 39> C      -0.16372900      1.15065200      2.66823100
| 40> O      -0.64286600      2.19767500      1.95847800
| 41> C      -0.93409000      3.40683600      2.62051200
| 42> N       0.34314500     -2.28568100     -0.40497300
| 43> O       1.01313100     -3.14319200     -0.99613300
| 44> H       0.30079800      1.00204100      0.11062100
| 45> H       0.89071000     -2.01578300      2.02978700
| 46> H       1.26739800     -1.97294700      4.47945500
| 47> H       0.70733000      0.08623500      5.78005200
| 48> H      -0.18960500      2.07850300      4.62592200
| 49> H      -0.03682100      3.82506600      3.10559800
| 50> H      -1.72408900      3.27184800      3.37748600
| 51> H      -1.28705400      4.10454400      1.85131300
| 52> O      -0.73238300     -2.60670200      0.15865000
| 53> H      -3.24914000     -1.91544000      3.49366100
| 54> H      -1.92436200      2.85625800     -3.60765100
| 55> C       1.88554600     -0.59117400     -1.07257500
| 56> H       2.38388700     -1.40740900     -1.60256100
| 57> C       2.45609100      0.64641400     -1.16907400
| 58> H       2.05214800      1.53034500     -0.67048800
| 59> C       3.65616100      0.83320100     -1.96359700
| 60> O       4.25830500     -0.02020600     -2.59331100
| 61> O       4.06711000      2.11760700     -1.94012000
| 62> C       5.22870400      2.42029800     -2.68975100
| 63> H       5.40546700      3.49575400     -2.56771100
| 64> H       6.09845800      1.85545900     -2.32075700
| 65> H       5.08692300      2.18408100     -3.75536600
| 66> *
| 67> 
| 68>                          ****END OF INPUT****
================================================================================

                       *****************************
                       * Geometry Optimization Run *
                       *****************************

Geometry optimization settings:
Update method            Update   .... BFGS
Choice of coordinates    CoordSys .... Z-matrix Internals
Initial Hessian          InHess   .... Almoef's Model

Convergence Tolerances:
Energy Change            TolE     ....  1.0000e-06 Eh
Max. Gradient            TolMAXG  ....  1.0000e-04 Eh/bohr
RMS Gradient             TolRMSG  ....  3.0000e-05 Eh/bohr
Max. Displacement        TolMAXD  ....  1.0000e-03 bohr
RMS Displacement         TolRMSD  ....  6.0000e-04 bohr
Strict Convergence                ....  False
------------------------------------------------------------------------------
                        ORCA OPTIMIZATION COORDINATE SETUP
------------------------------------------------------------------------------

The optimization will be done in new redundant internal coordinates
Making redundant internal coordinates   ...  (new redundants) done
Evaluating the initial hessian          ...  (Almloef) done
Evaluating the coordinates              ...  done
Calculating the B-matrix                .... done
Calculating the G-matrix                .... done
Diagonalizing the G-matrix              .... done
Small eigenvalue found = 1.718e-03
Small eigenvalue found = 2.588e-03
Small eigenvalue found = 3.950e-03
Small eigenvalue found = 6.029e-03
Small eigenvalue found = 9.319e-03
Small eigenvalue found = 9.732e-03
Small eigenvalue found = 1.200e-02
Small eigenvalue found = 1.875e-02
Small eigenvalue found = 2.079e-02
Small eigenvalue found = 2.559e-02
The first mode is                       ....  102
The number of degrees of freedom        ....  150

    -----------------------------------------------------------------
                    Redundant Internal Coordinates


    -----------------------------------------------------------------
         Definition                    Initial Value    Approx d2E/dq
    -----------------------------------------------------------------
      1. B(C   1,C   0)                  1.3954         0.612443   
      2. B(C   2,C   1)                  1.3803         0.647513   
      3. B(N   3,C   2)                  1.3486         0.651634   
      4. B(C   4,N   3)                  1.3494         0.649722   
      5. B(C   5,C   4)                  1.3840         0.638765   
      6. B(C   5,C   0)                  1.3918         0.620606   
      7. B(C   6,N   3)                  1.4642         0.426116   
      8. B(C   7,C   6)                  1.5206         0.386721   
      9. B(O   8,C   7)                  1.2063         1.098778   
     10. B(O   9,C   7)                  1.3184         0.727984   
     11. B(C  10,O   9)                  1.4227         0.496236   
     12. B(H  11,C   0)                  1.0923         0.357090   
     13. B(H  12,C   2)                  1.0912         0.358562   
     14. B(H  13,C   4)                  1.0891         0.361300   
     15. B(H  14,C   5)                  1.0906         0.359303   
     16. B(H  15,C   6)                  1.0995         0.347760   
     17. B(H  16,C  10)                  1.0994         0.347936   
     18. B(H  17,C  10)                  1.0990         0.348363   
     19. B(C  19,C  18)                  1.4971         0.421572   
     20. B(C  19,C   6)                  1.5606         0.333808   
     21. B(C  20,C  19)                  1.5166         0.392437   
     22. B(C  21,C  20)                  1.3925         0.619173   
     23. B(C  22,C  21)                  1.3961         0.610864   
     24. B(C  23,C  22)                  1.3919         0.620375   
     25. B(C  24,C  23)                  1.3958         0.611617   
     26. B(C  25,C  24)                  1.3980         0.606810   
     27. B(C  25,C  20)                  1.4108         0.578788   
     28. B(O  26,C  25)                  1.3526         0.641969   
     29. B(C  27,O  26)                  1.4090         0.521945   
     30. B(N  28,C  18)                  1.3750         0.591299   
     31. B(O  29,N  28)                  1.2384         0.874689   
     32. B(H  30,C  19)                  1.1011         0.345764   
     33. B(H  31,C  21)                  1.0906         0.359289   
     34. B(H  32,C  22)                  1.0924         0.356999   
     35. B(H  33,C  23)                  1.0931         0.356084   
     36. B(H  34,C  24)                  1.0904         0.359525   
     37. B(H  35,C  27)                  1.1024         0.344047   
     38. B(H  36,C  27)                  1.1024         0.344039   
     39. B(H  37,C  27)                  1.0968         0.351171   
     40. B(O  38,N  28)                  1.2560         0.820036   
     41. B(H  39,C  10)                  1.0954         0.352988   
     42. B(H  40,C   1)                  1.0906         0.359336   
     43. B(C  41,C  18)                  1.4115         0.577413   
     44. B(H  42,C  41)                  1.0934         0.355663   
     45. B(C  43,C  41)                  1.3662         0.681924   
     46. B(H  44,C  43)                  1.0923         0.357087   
     47. B(C  45,C  43)                  1.4513         0.498780   
     48. B(O  46,C  45)                  1.2196         1.046502   
     49. B(O  47,C  45)                  1.3488         0.651157   
     50. B(C  48,O  47)                  1.4152         0.510066   
     51. B(H  49,C  48)                  1.0967         0.351349   
     52. B(H  50,C  48)                  1.1008         0.346144   
     53. B(H  51,C  48)                  1.1007         0.346280   
     54. A(C   5,C   0,H  11)          120.3700         0.352466   
     55. A(C   1,C   0,H  11)          120.2934         0.351678   
     56. A(C   1,C   0,C   5)          119.3364         0.433186   
     57. A(C   0,C   1,H  40)          121.7811         0.352051   
     58. A(C   2,C   1,H  40)          119.1824         0.355387   
     59. A(C   0,C   1,C   2)          119.0363         0.436508   
     60. A(C   1,C   2,H  12)          123.0131         0.355257   
     61. A(C   1,C   2,N   3)          120.6649         0.438521   
     62. A(N   3,C   2,H  12)          116.3212         0.353446   
     63. A(C   4,N   3,C   6)          119.4919         0.404113   
     64. A(C   2,N   3,C   4)          121.3790         0.435912   
     65. A(C   2,N   3,C   6)          118.9382         0.404322   
     66. A(C   5,C   4,H  13)          123.3302         0.354896   
     67. A(N   3,C   4,C   5)          120.1623         0.437215   
     68. A(N   3,C   4,H  13)          116.4613         0.353725   
     69. A(C   0,C   5,C   4)          119.4194         0.436480   
     70. A(C   0,C   5,H  14)          121.6630         0.352835   
     71. A(C   4,C   5,H  14)          118.9175         0.354563   
     72. A(H  15,C   6,C  19)          105.2612         0.316596   
     73. A(C   7,C   6,C  19)          119.9672         0.358553   
     74. A(N   3,C   6,C  19)          108.9943         0.362269   
     75. A(N   3,C   6,C   7)          110.2107         0.371523   
     76. A(C   7,C   6,H  15)          104.8658         0.324304   
     77. A(N   3,C   6,H  15)          106.5832         0.327548   
     78. A(C   6,C   7,O   9)          110.1936         0.407932   
     79. A(O   8,C   7,O   9)          124.6953         0.489642   
     80. A(C   6,C   7,O   8)          124.6428         0.439078   
     81. A(C   7,O   9,C  10)          116.6072         0.423673   
     82. A(O   9,C  10,H  39)          106.0631         0.336752   
     83. A(H  16,C  10,H  17)          109.3448         0.287779   
     84. A(O   9,C  10,H  17)          110.7139         0.336014   
     85. A(O   9,C  10,H  16)          110.1025         0.335945   
     86. A(H  17,C  10,H  39)          110.3748         0.288429   
     87. A(H  16,C  10,H  39)          110.2056         0.288374   
     88. A(C  19,C  18,N  28)          119.8403         0.399269   
     89. A(N  28,C  18,C  41)          117.8481         0.422165   
     90. A(C  19,C  18,C  41)          122.2813         0.400165   
     91. A(C   6,C  19,C  20)          112.2486         0.359449   
     92. A(C   6,C  19,C  18)          116.3877         0.363869   
     93. A(C  20,C  19,H  30)          104.3914         0.324779   
     94. A(C  18,C  19,H  30)          104.3116         0.328632   
     95. A(C   6,C  19,H  30)          101.2112         0.316300   
     96. A(C  18,C  19,C  20)          115.9221         0.374122   
     97. A(C  21,C  20,C  25)          118.4401         0.428633   
     98. A(C  19,C  20,C  25)          118.4267         0.395327   
     99. A(C  19,C  20,C  21)          123.0961         0.400039   
    100. A(C  22,C  21,H  31)          119.4896         0.351890   
    101. A(C  20,C  21,H  31)          119.1361         0.352695   
    102. A(C  20,C  21,C  22)          121.3735         0.432805   
    103. A(C  23,C  22,H  32)          120.4968         0.352429   
    104. A(C  21,C  22,H  32)          119.9782         0.351509   
    105. A(C  21,C  22,C  23)          119.5250         0.432956   
    106. A(C  24,C  23,H  33)          119.2382         0.351430   
    107. A(C  22,C  23,H  33)          120.3803         0.352276   
    108. A(C  22,C  23,C  24)          120.3804         0.433052   
    109. A(C  25,C  24,H  34)          120.5754         0.351533   
    110. A(C  23,C  24,H  34)          119.7595         0.352002   
    111. A(C  23,C  24,C  25)          119.6646         0.431334   
    112. A(C  24,C  25,O  26)          123.6334         0.432260   
    113. A(C  20,C  25,O  26)          115.7586         0.428606   
    114. A(C  20,C  25,C  24)          120.6079         0.427086   
    115. A(C  25,O  26,C  27)          119.4040         0.418022   
    116. A(H  36,C  27,H  37)          109.1974         0.287634   
    117. A(H  35,C  27,H  37)          109.2188         0.287635   
    118. A(O  26,C  27,H  37)          106.4335         0.339308   
    119. A(H  35,C  27,H  36)          109.1212         0.286714   
    120. A(O  26,C  27,H  36)          111.4490         0.338148   
    121. A(O  26,C  27,H  35)          111.3523         0.338150   
    122. A(C  18,N  28,O  38)          117.9364         0.443726   
    123. A(C  18,N  28,O  29)          122.0021         0.448944   
    124. A(O  29,N  28,O  38)          120.0335         0.473344   
    125. A(H  42,C  41,C  43)          116.8514         0.357901   
    126. A(C  18,C  41,C  43)          128.2624         0.435949   
    127. A(C  18,C  41,H  42)          114.8857         0.347965   
    128. A(H  44,C  43,C  45)          116.8419         0.339751   
    129. A(C  41,C  43,C  45)          120.0383         0.424641   
    130. A(C  41,C  43,H  44)          123.1198         0.358145   
    131. A(O  46,C  45,O  47)          121.6627         0.475369   
    132. A(C  43,C  45,O  47)          111.4060         0.418419   
    133. A(C  43,C  45,O  46)          126.9313         0.455764   
    134. A(C  45,O  47,C  48)          116.3940         0.417367   
    135. A(H  50,C  48,H  51)          108.4334         0.287278   
    136. A(H  49,C  48,H  51)          109.8134         0.287949   
    137. A(O  47,C  48,H  51)          111.1737         0.337218   
    138. A(H  49,C  48,H  50)          109.7880         0.287931   
    139. A(O  47,C  48,H  50)          111.1752         0.337196   
    140. A(O  47,C  48,H  49)          106.4445         0.338036   
    141. D(C   2,C   1,C   0,C   5)      0.3613         0.025917   
    142. D(H  40,C   1,C   0,H  11)      0.0156         0.025917   
    143. D(H  40,C   1,C   0,C   5)   -179.8174         0.025917   
    144. D(C   2,C   1,C   0,H  11)   -179.8057         0.025917   
    145. D(N   3,C   2,C   1,H  40)    179.8741         0.029177   
    146. D(H  12,C   2,C   1,H  40)     -0.4383         0.029177   
    147. D(H  12,C   2,C   1,C   0)    179.3877         0.029177   
    148. D(N   3,C   2,C   1,C   0)     -0.2999         0.029177   
    149. D(C   4,N   3,C   2,H  12)   -179.4382         0.034669   
    150. D(C   6,N   3,C   2,H  12)     -4.4858         0.034669   
    151. D(C   4,N   3,C   2,C   1)      0.2695         0.034669   
    152. D(C   6,N   3,C   2,C   1)    175.2219         0.034669   
    153. D(C   5,C   4,N   3,C   6)   -175.2220         0.034448   
    154. D(H  13,C   4,N   3,C   2)   -177.9045         0.034448   
    155. D(C   5,C   4,N   3,C   2)     -0.2970         0.034448   
    156. D(H  13,C   4,N   3,C   6)      7.1706         0.034448   
    157. D(H  14,C   5,C   4,H  13)     -2.3237         0.028341   
    158. D(C   0,C   5,C   4,H  13)    177.7936         0.028341   
    159. D(H  14,C   5,C   0,H  11)     -0.1029         0.026655   
    160. D(C   0,C   5,C   4,N   3)      0.3573         0.028341   
    161. D(H  14,C   5,C   0,C   1)    179.7300         0.026655   
    162. D(H  14,C   5,C   4,N   3)   -179.7600         0.028341   
    163. D(C   4,C   5,C   0,H  11)    179.7764         0.026655   
    164. D(C   4,C   5,C   0,C   1)     -0.3907         0.026655   
    165. D(C  19,C   6,N   3,C   4)     78.9621         0.015481   
    166. D(C  19,C   6,N   3,C   2)    -96.0873         0.015481   
    167. D(H  15,C   6,N   3,C   4)   -167.8989         0.015481   
    168. D(C   7,C   6,N   3,C   2)    130.3105         0.015481   
    169. D(C   7,C   6,N   3,C   4)    -54.6402         0.015481   
    170. D(H  15,C   6,N   3,C   2)     17.0517         0.015481   
    171. D(O   8,C   7,C   6,N   3)     -3.5567         0.011137   
    172. D(O   9,C   7,C   6,C  19)     56.2188         0.011137   
    173. D(O   9,C   7,C   6,H  15)    -61.6476         0.011137   
    174. D(O   9,C   7,C   6,N   3)   -176.0023         0.011137   
    175. D(O   8,C   7,C   6,C  19)   -131.3356         0.011137   
    176. D(O   8,C   7,C   6,H  15)    110.7980         0.011137   
    177. D(C  10,O   9,C   7,O   8)      7.8725         0.039998   
    178. D(C  10,O   9,C   7,C   6)   -179.6867         0.039998   
    179. D(H  39,C  10,O   9,C   7)   -179.6021         0.019459   
    180. D(H  17,C  10,O   9,C   7)    -59.8515         0.019459   
    181. D(H  16,C  10,O   9,C   7)     61.1806         0.019459   
    182. D(H  30,C  19,C  18,C  41)     13.2390         0.013139   
    183. D(C  20,C  19,C  18,C  41)   -100.9154         0.013139   
    184. D(C  20,C  19,C  18,N  28)     77.0385         0.013139   
    185. D(C   6,C  19,C  18,C  41)    123.7607         0.013139   
    186. D(C   6,C  19,C  18,N  28)    -58.2854         0.013139   
    187. D(H  30,C  19,C   6,H  15)    -51.9859         0.009053   
    188. D(H  30,C  19,C   6,C   7)   -169.6502         0.009053   
    189. D(H  30,C  19,C   6,N   3)     62.0175         0.009053   
    190. D(C  20,C  19,C   6,H  15)     58.7980         0.009053   
    191. D(C  20,C  19,C   6,C   7)    -58.8662         0.009053   
    192. D(C  20,C  19,C   6,N   3)    172.8015         0.009053   
    193. D(C  18,C  19,C   6,H  15)   -164.2982         0.009053   
    194. D(H  30,C  19,C  18,N  28)   -168.8071         0.013139   
    195. D(C  18,C  19,C   6,N   3)    -50.2947         0.009053   
    196. D(C  18,C  19,C   6,C   7)     78.0376         0.009053   
    197. D(C  25,C  20,C  19,H  30)     42.2714         0.011450   
    198. D(C  25,C  20,C  19,C  18)    156.3802         0.011450   
    199. D(C  25,C  20,C  19,C   6)    -66.5028         0.011450   
    200. D(C  21,C  20,C  19,H  30)   -135.4754         0.011450   
    201. D(C  21,C  20,C  19,C  18)    -21.3666         0.011450   
    202. D(C  21,C  20,C  19,C   6)    115.7504         0.011450   
    203. D(C  22,C  21,C  20,C  19)    178.6061         0.026524   
    204. D(H  31,C  21,C  20,C  25)   -179.4833         0.026524   
    205. D(H  31,C  21,C  20,C  19)     -1.7368         0.026524   
    206. D(C  22,C  21,C  20,C  25)      0.8595         0.026524   
    207. D(H  32,C  22,C  21,H  31)      0.2048         0.025776   
    208. D(H  32,C  22,C  21,C  20)    179.8607         0.025776   
    209. D(C  23,C  22,C  21,H  31)   -179.7594         0.025776   
    210. D(C  23,C  22,C  21,C  20)     -0.1034         0.025776   
    211. D(H  33,C  23,C  22,H  32)     -0.1197         0.026634   
    212. D(H  33,C  23,C  22,C  21)    179.8442         0.026634   
    213. D(C  24,C  23,C  22,H  32)    179.5081         0.026634   
    214. D(C  24,C  23,C  22,C  21)     -0.5280         0.026634   
    215. D(H  34,C  24,C  23,H  33)      0.2654         0.025843   
    216. D(H  34,C  24,C  23,C  22)   -179.3666         0.025843   
    217. D(C  25,C  24,C  23,H  33)   -179.9908         0.025843   
    218. D(C  25,C  24,C  23,C  22)      0.3772         0.025843   
    219. D(O  26,C  25,C  24,H  34)      0.2542         0.025416   
    220. D(O  26,C  25,C  24,C  23)   -179.4875         0.025416   
    221. D(C  20,C  25,C  24,H  34)   -179.8576         0.025416   
    222. D(C  20,C  25,C  24,C  23)      0.4007         0.025416   
    223. D(O  26,C  25,C  20,C  21)    178.8903         0.023011   
    224. D(O  26,C  25,C  20,C  19)      1.0369         0.023011   
    225. D(C  24,C  25,C  20,C  21)     -1.0064         0.023011   
    226. D(C  24,C  25,C  20,C  19)   -178.8597         0.023011   
    227. D(C  27,O  26,C  25,C  24)      1.3573         0.030397   
    228. D(C  27,O  26,C  25,C  20)   -178.5358         0.030397   
    229. D(H  37,C  27,O  26,C  25)    179.0471         0.021605   
    230. D(H  36,C  27,O  26,C  25)    -61.9915         0.021605   
    231. D(H  35,C  27,O  26,C  25)     60.1134         0.021605   
    232. D(O  38,N  28,C  18,C  41)   -176.4205         0.028115   
    233. D(O  38,N  28,C  18,C  19)      5.5359         0.028115   
    234. D(O  29,N  28,C  18,C  41)      1.6548         0.028115   
    235. D(O  29,N  28,C  18,C  19)   -176.3888         0.028115   
    236. D(C  43,C  41,C  18,N  28)   -179.0877         0.022897   
    237. D(C  43,C  41,C  18,C  19)     -1.0949         0.022897   
    238. D(H  42,C  41,C  18,N  28)      1.1787         0.022897   
    239. D(H  42,C  41,C  18,C  19)    179.1715         0.022897   
    240. D(C  45,C  43,C  41,H  42)      0.8851         0.032611   
    241. D(C  45,C  43,C  41,C  18)   -178.8440         0.032611   
    242. D(H  44,C  43,C  41,H  42)   -179.1471         0.032611   
    243. D(H  44,C  43,C  41,C  18)      1.1238         0.032611   
    244. D(O  47,C  45,C  43,H  44)     -0.0881         0.016945   
    245. D(O  47,C  45,C  43,C  41)    179.8816         0.016945   
    246. D(O  46,C  45,C  43,H  44)    179.9918         0.016945   
    247. D(O  46,C  45,C  43,C  41)     -0.0384         0.016945   
    248. D(C  48,O  47,C  45,O  46)      0.2918         0.031345   
    249. D(C  48,O  47,C  45,C  43)   -179.6331         0.031345   
    250. D(H  51,C  48,O  47,C  45)     59.7302         0.020596   
    251. D(H  50,C  48,O  47,C  45)    -61.1801         0.020596   
    252. D(H  49,C  48,O  47,C  45)    179.2900         0.020596   
    -----------------------------------------------------------------

Number of atoms                         .... 52
Number of degrees of freedom            .... 252

         *************************************************************
         *                GEOMETRY OPTIMIZATION CYCLE   1            *
         *************************************************************
---------------------------------
CARTESIAN COORDINATES (ANGSTROEM)
---------------------------------
  C     -1.717829    0.749691   -4.116910
  C     -1.830625    1.832425   -3.243866
  C     -1.819447    1.599978   -1.883347
  N     -1.707464    0.345710   -1.400788
  C     -1.597851   -0.717024   -2.225003
  C     -1.604640   -0.536475   -3.597140
  C     -1.593201    0.150759    0.045849
  C     -2.587792   -0.899617    0.514548
  O     -3.399306   -1.440689   -0.195323
  O     -2.544561   -1.013608    1.827291
  C     -3.420611   -1.969376    2.413080
  H     -1.721166    0.910394   -5.197303
  H     -1.893602    2.398310   -1.143206
  H     -1.547425   -1.696013   -1.750488
  H     -1.518794   -1.410016   -4.244420
  H     -1.928478    1.086390    0.516026
  H     -3.184335   -2.976480    2.040932
  H     -4.467804   -1.731337    2.179479
  C      0.717154   -0.962903   -0.373346
  C     -0.084569    0.019081    0.423051
  C      0.131586   -0.010864    1.923861
  C      0.650363   -1.114846    2.595458
  C      0.861348   -1.093015    3.975390
  C      0.550133    0.054709    4.698821
  C      0.041003    1.181246    4.050771
  C     -0.163729    1.150652    2.668231
  O     -0.642866    2.197675    1.958478
  C     -0.934090    3.406836    2.620512
  N      0.343145   -2.285681   -0.404973
  O      1.013131   -3.143192   -0.996133
  H      0.300798    1.002041    0.110621
  H      0.890710   -2.015783    2.029787
  H      1.267398   -1.972947    4.479455
  H      0.707330    0.086235    5.780052
  H     -0.189605    2.078503    4.625922
  H     -0.036821    3.825066    3.105598
  H     -1.724089    3.271848    3.377486
  H     -1.287054    4.104544    1.851313
  O     -0.732383   -2.606702    0.158650
  H     -3.249140   -1.915440    3.493661
  H     -1.924362    2.856258   -3.607651
  C      1.885546   -0.591174   -1.072575
  H      2.383887   -1.407409   -1.602561
  C      2.456091    0.646414   -1.169074
  H      2.052148    1.530345   -0.670488
  C      3.656161    0.833201   -1.963597
  O      4.258305   -0.020206   -2.593311
  O      4.067110    2.117607   -1.940120
  C      5.228704    2.420298   -2.689751
  H      5.405467    3.495754   -2.567711
  H      6.098458    1.855459   -2.320757
  H      5.086923    2.184081   -3.755366

----------------------------
CARTESIAN COORDINATES (A.U.)
----------------------------
  NO LB      ZA    FRAG     MASS         X           Y           Z
   0 C     6.0000    0    12.011   -3.246226    1.416711   -7.779832
   1 C     6.0000    0    12.011   -3.459380    3.462781   -6.130018
   2 C     6.0000    0    12.011   -3.438257    3.023520   -3.559010
   3 N     7.0000    0    14.007   -3.226639    0.653297   -2.647106
   4 C     6.0000    0    12.011   -3.019501   -1.354979   -4.204646
   5 C     6.0000    0    12.011   -3.032330   -1.013791   -6.797609
   6 C     6.0000    0    12.011   -3.010714    0.284893    0.086642
   7 C     6.0000    0    12.011   -4.890218   -1.700030    0.972355
   8 O     8.0000    0    15.999   -6.423757   -2.722508   -0.369107
   9 O     8.0000    0    15.999   -4.808523   -1.915442    3.453080
  10 C     6.0000    0    12.011   -6.464018   -3.721581    4.560060
  11 H     1.0000    0     1.008   -3.252532    1.720395   -9.821479
  12 H     1.0000    0     1.008   -3.578389    4.532149   -2.160346
  13 H     1.0000    0     1.008   -2.924209   -3.205000   -3.307943
  14 H     1.0000    0     1.008   -2.870105   -2.664544   -8.020791
  15 H     1.0000    0     1.008   -3.644295    2.052980    0.975148
  16 H     1.0000    0     1.008   -6.017521   -5.624732    3.856803
  17 H     1.0000    0     1.008   -8.442926   -3.271753    4.118618
  18 C     6.0000    0    12.011    1.355225   -1.819623   -0.705522
  19 C     6.0000    0    12.011   -0.159812    0.036058    0.799451
  20 C     6.0000    0    12.011    0.248662   -0.020530    3.635570
  21 C     6.0000    0    12.011    1.229008   -2.106754    4.904705
  22 C     6.0000    0    12.011    1.627712   -2.065499    7.512398
  23 C     6.0000    0    12.011    1.039601    0.103385    8.879485
  24 C     6.0000    0    12.011    0.077484    2.232231    7.654848
  25 C     6.0000    0    12.011   -0.309403    2.174417    5.042226
  26 O     8.0000    0    15.999   -1.214841    4.153004    3.700987
  27 C     6.0000    0    12.011   -1.765174    6.437987    4.952050
  28 N     7.0000    0    14.007    0.648450   -4.319311   -0.765288
  29 O     8.0000    0    15.999    1.914540   -5.939772   -1.882419
  30 H     1.0000    0     1.008    0.568426    1.893583    0.209043
  31 H     1.0000    0     1.008    1.683198   -3.809278    3.835742
  32 H     1.0000    0     1.008    2.395035   -3.728330    8.464943
  33 H     1.0000    0     1.008    1.336660    0.162961   10.922715
  34 H     1.0000    0     1.008   -0.358302    3.927801    8.741726
  35 H     1.0000    0     1.008   -0.069582    7.228327    5.868730
  36 H     1.0000    0     1.008   -3.258056    6.182897    6.382524
  37 H     1.0000    0     1.008   -2.432180    7.756464    3.498475
  38 O     8.0000    0    15.999   -1.384003   -4.925953    0.299805
  39 H     1.0000    0     1.008   -6.139985   -3.619657    6.602062
  40 H     1.0000    0     1.008   -3.636517    5.397545   -6.817472
  41 C     6.0000    0    12.011    3.563166   -1.117157   -2.026873
  42 H     1.0000    0     1.008    4.504894   -2.659618   -3.028401
  43 C     6.0000    0    12.011    4.641339    1.221545   -2.209230
  44 H     1.0000    0     1.008    3.877998    2.891933   -1.267039
  45 C     6.0000    0    12.011    6.909143    1.574522   -3.710661
  46 O     8.0000    0    15.999    8.047030   -0.038184   -4.900648
  47 O     8.0000    0    15.999    7.685724    4.001697   -3.666295
  48 C     6.0000    0    12.011    9.880819    4.573700   -5.082893
  49 H     1.0000    0     1.008   10.214852    6.606018   -4.852271
  50 H     1.0000    0     1.008   11.524415    3.506309   -4.385595
  51 H     1.0000    0     1.008    9.612891    4.127315   -7.096613

--------------------------------
INTERNAL COORDINATES (ANGSTROEM)
--------------------------------
 C      0   0   0     0.000000000000     0.00000000     0.00000000
 C      1   0   0     1.395436017275     0.00000000     0.00000000
 C      2   1   0     1.380278415702   119.03628925     0.00000000
 N      3   2   1     1.348551666268   120.66494344   359.70010759
 C      4   3   2     1.349351299977   121.37897941     0.26949011
 C      5   4   3     1.383981206047   120.16230994   359.70296804
 C      4   3   2     1.464179133624   118.93821372   175.22186343
 C      7   4   3     1.520585331791   110.21066966   130.31046086
 O      8   7   4     1.206329440087   124.64276583   356.44328550
 O      8   7   4     1.318391842925   110.19356998   183.99772163
 C     10   8   7     1.422710379819   116.60716430   180.31328949
 H      1   2   3     1.092284589394   120.29337947   180.19429700
 H      3   2   1     1.091165269851   123.01314610   179.38767946
 H      5   4   3     1.089094453582   116.46125459   182.09551868
 H      6   5   4     1.090602958366   118.91748466   180.23995131
 H      7   4   3     1.099491903662   106.58318386    17.05173664
 H     11  10   8     1.099353877919   110.10245180    61.18060158
 H     11  10   8     1.099020096254   110.71385585   300.14850217
 C      7   4   3     2.598789665266    88.11255250   240.50728235
 C     19   7   4     1.497097367105    32.54450700   133.29389506
 C     20  19   7     1.516591686365   115.92206674   135.32388663
 C     21  20  19     1.392461260668   123.09608100   338.63342494
 C     22  21  20     1.396138813804   121.37350429   178.60606295
 C     23  22  21     1.391933032930   119.52498662   359.89657702
 C     24  23  22     1.395803629372   120.38043112   359.47197474
 C     25  24  23     1.397951371207   119.66463089     0.37718426
 O     26  25  24     1.352619217780   123.63340828   180.51252954
 C     27  26  25     1.408960879249   119.40402671     1.35730954
 N     19   7   4     1.374999867816   100.02912458   264.76061752
 O     29  19   7     1.238416933394   122.00213201   155.91862961
 H     20  19   7     1.101058850012   104.31161567   249.47826180
 H     22  21  20     1.090613514779   119.13605383   358.26318903
 H     23  22  21     1.092354544710   119.97817299   179.86068704
 H     24  23  22     1.093053182991   120.38029231   179.84423256
 H     25  24  23     1.090435163829   119.75945195   180.63338739
 H     28  27  26     1.102413905326   111.35233641    60.11338366
 H     28  27  26     1.102419982049   111.44897845   298.00845127
 H     28  27  26     1.096835056041   106.43351672   179.04708506
 O     29  19   7     1.255980034616   117.93638654   337.84330772
 H     11  10   8     1.095429912636   106.06310813   180.39790682
 H      2   1   3     1.090577903354   121.78111380   179.82127128
 C     19   7   4     1.411468564845   134.66493930    52.08888798
 H     42  19   7     1.093374815743   114.88573665   218.13474931
 C     42  19   7     1.366183630326   128.26240988    37.86836470
 H     44  42  19     1.092287489357   123.11983369     1.12376840
 C     44  42  19     1.451318085672   120.03826150   181.15599043
 O     46  44  42     1.219598551238   126.93128831   359.96157967
 O     46  44  42     1.348750912128   111.40599777   179.88163767
 C     48  46  44     1.415227578334   116.39396761   180.36686084
 H     49  48  46     1.096697099342   106.44454064   179.28996151
 H     49  48  46     1.100759596130   111.17523147   298.81987639
 H     49  48  46     1.100652375310   111.17365862    59.73024220

---------------------------
INTERNAL COORDINATES (A.U.)
---------------------------
 C      0   0   0     0.000000000000     0.00000000     0.00000000
 C      1   0   0     2.636991910059     0.00000000     0.00000000
 C      2   1   0     2.608348194240   119.03628925     0.00000000
 N      3   2   1     2.548393326690   120.66494344   359.70010759
 C      4   3   2     2.549904415407   121.37897941     0.26949011
 C      5   4   3     2.615345453923   120.16230994   359.70296804
 C      4   3   2     2.766897573551   118.93821372   175.22186343
 C      7   4   3     2.873489840343   110.21066966   130.31046086
 O      8   7   4     2.279632269051   124.64276583   356.44328550
 O      8   7   4     2.491399520324   110.19356998   183.99772163
 C     10   8   7     2.688532985745   116.60716430   180.31328949
 H      1   2   3     2.064118734257   120.29337947   180.19429700
 H      3   2   1     2.062003526866   123.01314610   179.38767946
 H      5   4   3     2.058090251242   116.46125459   182.09551868
 H      6   5   4     2.060940912156   118.91748466   180.23995131
 H      7   4   3     2.077738584386   106.58318386    17.05173664
 H     11  10   8     2.077477753532   110.10245180    61.18060158
 H     11  10   8     2.076846997597   110.71385585   300.14850217
 C      7   4   3     4.911000747018    88.11255250   240.50728235
 C     19   7   4     2.829104019644    32.54450700   133.29389506
 C     20  19   7     2.865942944211   115.92206674   135.32388663
 C     21  20  19     2.631370434758   123.09608100   338.63342494
 C     22  21  20     2.638320003027   121.37350429   178.60606295
 C     23  22  21     2.630372228996   119.52498662   359.89657702
 C     24  23  22     2.637686596247   120.38043112   359.47197474
 C     25  24  23     2.641745240121   119.66463089     0.37718426
 O     26  25  24     2.556079885082   123.63340828   180.51252954
 C     27  26  25     2.662550195189   119.40402671     1.35730954
 N     19   7   4     2.598373184350   100.02912458   264.76061752
 O     29  19   7     2.340268843725   122.00213201   155.91862961
 H     20  19   7     2.080699683852   104.31161567   249.47826180
 H     22  21  20     2.060960860886   119.13605383   358.26318903
 H     23  22  21     2.064250930646   119.97817299   179.86068704
 H     24  23  22     2.065571165663   120.38029231   179.84423256
 H     25  24  23     2.060623826434   119.75945195   180.63338739
 H     28  27  26     2.083260367293   111.35233641    60.11338366
 H     28  27  26     2.083271850635   111.44897845   298.00845127
 H     28  27  26     2.072717870002   106.43351672   179.04708506
 O     29  19   7     2.373458295097   117.93638654   337.84330772
 H     11  10   8     2.070062533788   106.06310813   180.39790682
 H      2   1   3     2.060893565044   121.78111380   179.82127128
 C     19   7   4     2.667289034196   134.66493930    52.08888798
 H     42  19   7     2.066178963482   114.88573665   218.13474931
 C     42  19   7     2.581712909962   128.26240988    37.86836470
 H     44  42  19     2.064124214393   123.11983369     1.12376840
 C     44  42  19     2.742593715127   120.03826150   181.15599043
 O     46  44  42     2.304707255166   126.93128831   359.96157967
 O     46  44  42     2.548769846798   111.40599777   179.88163767
 C     48  46  44     2.674392540224   116.39396761   180.36686084
 H     49  48  46     2.072457169622   106.44454064   179.28996151
 H     49  48  46     2.080134175972   111.17523147   298.81987639
 H     49  48  46     2.079931557985   111.17365862    59.73024220

---------------------
BASIS SET INFORMATION
---------------------
There are 4 groups of distinct atoms

 Group   1 Type C   : 11s6p2d1f contracted to 5s3p2d1f pattern {62111/411/11/1}
 Group   2 Type N   : 11s6p2d1f contracted to 5s3p2d1f pattern {62111/411/11/1}
 Group   3 Type O   : 11s6p2d1f contracted to 5s3p2d1f pattern {62111/411/11/1}
 Group   4 Type H   : 5s1p contracted to 3s1p pattern {311/1}

Atom   0C    basis set group =>   1
Atom   1C    basis set group =>   1
Atom   2C    basis set group =>   1
Atom   3N    basis set group =>   2
Atom   4C    basis set group =>   1
Atom   5C    basis set group =>   1
Atom   6C    basis set group =>   1
Atom   7C    basis set group =>   1
Atom   8O    basis set group =>   3
Atom   9O    basis set group =>   3
Atom  10C    basis set group =>   1
Atom  11H    basis set group =>   4
Atom  12H    basis set group =>   4
Atom  13H    basis set group =>   4
Atom  14H    basis set group =>   4
Atom  15H    basis set group =>   4
Atom  16H    basis set group =>   4
Atom  17H    basis set group =>   4
Atom  18C    basis set group =>   1
Atom  19C    basis set group =>   1
Atom  20C    basis set group =>   1
Atom  21C    basis set group =>   1
Atom  22C    basis set group =>   1
Atom  23C    basis set group =>   1
Atom  24C    basis set group =>   1
Atom  25C    basis set group =>   1
Atom  26O    basis set group =>   3
Atom  27C    basis set group =>   1
Atom  28N    basis set group =>   2
Atom  29O    basis set group =>   3
Atom  30H    basis set group =>   4
Atom  31H    basis set group =>   4
Atom  32H    basis set group =>   4
Atom  33H    basis set group =>   4
Atom  34H    basis set group =>   4
Atom  35H    basis set group =>   4
Atom  36H    basis set group =>   4
Atom  37H    basis set group =>   4
Atom  38O    basis set group =>   3
Atom  39H    basis set group =>   4
Atom  40H    basis set group =>   4
Atom  41C    basis set group =>   1
Atom  42H    basis set group =>   4
Atom  43C    basis set group =>   1
Atom  44H    basis set group =>   4
Atom  45C    basis set group =>   1
Atom  46O    basis set group =>   3
Atom  47O    basis set group =>   3
Atom  48C    basis set group =>   1
Atom  49H    basis set group =>   4
Atom  50H    basis set group =>   4
Atom  51H    basis set group =>   4
---------------------------------
AUXILIARY/J BASIS SET INFORMATION
---------------------------------
There are 4 groups of distinct atoms

 Group   1 Type C   : 12s5p4d2f1g contracted to 6s4p3d1f1g pattern {711111/2111/211/2/1}
 Group   2 Type N   : 12s5p4d2f1g contracted to 6s4p3d1f1g pattern {711111/2111/211/2/1}
 Group   3 Type O   : 12s5p4d2f1g contracted to 6s4p3d1f1g pattern {711111/2111/211/2/1}
 Group   4 Type H   : 5s2p1d contracted to 3s1p1d pattern {311/2/1}

Atom   0C    basis set group =>   1
Atom   1C    basis set group =>   1
Atom   2C    basis set group =>   1
Atom   3N    basis set group =>   2
Atom   4C    basis set group =>   1
Atom   5C    basis set group =>   1
Atom   6C    basis set group =>   1
Atom   7C    basis set group =>   1
Atom   8O    basis set group =>   3
Atom   9O    basis set group =>   3
Atom  10C    basis set group =>   1
Atom  11H    basis set group =>   4
Atom  12H    basis set group =>   4
Atom  13H    basis set group =>   4
Atom  14H    basis set group =>   4
Atom  15H    basis set group =>   4
Atom  16H    basis set group =>   4
Atom  17H    basis set group =>   4
Atom  18C    basis set group =>   1
Atom  19C    basis set group =>   1
Atom  20C    basis set group =>   1
Atom  21C    basis set group =>   1
Atom  22C    basis set group =>   1
Atom  23C    basis set group =>   1
Atom  24C    basis set group =>   1
Atom  25C    basis set group =>   1
Atom  26O    basis set group =>   3
Atom  27C    basis set group =>   1
Atom  28N    basis set group =>   2
Atom  29O    basis set group =>   3
Atom  30H    basis set group =>   4
Atom  31H    basis set group =>   4
Atom  32H    basis set group =>   4
Atom  33H    basis set group =>   4
Atom  34H    basis set group =>   4
Atom  35H    basis set group =>   4
Atom  36H    basis set group =>   4
Atom  37H    basis set group =>   4
Atom  38O    basis set group =>   3
Atom  39H    basis set group =>   4
Atom  40H    basis set group =>   4
Atom  41C    basis set group =>   1
Atom  42H    basis set group =>   4
Atom  43C    basis set group =>   1
Atom  44H    basis set group =>   4
Atom  45C    basis set group =>   1
Atom  46O    basis set group =>   3
Atom  47O    basis set group =>   3
Atom  48C    basis set group =>   1
Atom  49H    basis set group =>   4
Atom  50H    basis set group =>   4
Atom  51H    basis set group =>   4


           ************************************************************
           *        Program running with 24 parallel MPI-processes    *
           *              working on a common directory               *
           ************************************************************
------------------------------------------------------------------------------
                           ORCA GTO INTEGRAL CALCULATION
                           -- RI-GTO INTEGRALS CHOSEN --
------------------------------------------------------------------------------
------------------------------------------------------------------------------
                   ___                                                        
                  /   \      - P O W E R E D   B Y -                         
                 /     \                                                     
                 |  |  |   _    _      __       _____    __    __             
                 |  |  |  | |  | |    /  \     |  _  \  |  |  /  |          
                  \  \/   | |  | |   /    \    | | | |  |  | /  /          
                 / \  \   | |__| |  /  /\  \   | |_| |  |  |/  /          
                |  |  |   |  __  | /  /__\  \  |    /   |      \           
                |  |  |   | |  | | |   __   |  |    \   |  |\   \          
                \     /   | |  | | |  |  |  |  | |\  \  |  | \   \       
                 \___/    |_|  |_| |__|  |__|  |_| \__\ |__|  \__/        
                                                                              
                      - O R C A' S   B I G   F R I E N D -                    
                                      &                                       
                       - I N T E G R A L  F E E D E R -                       
                                                                              
 v1 FN, 2020, v2 2021                                                         
------------------------------------------------------------------------------


Reading SHARK input file IM_CHCHCO2Me/IM_CHCHCO2Me.SHARKINP.tmp ... ok
----------------------
SHARK INTEGRAL PACKAGE
----------------------

Number of atoms                             ...     52
Number of basis functions                   ...   1062
Number of shells                            ...    418
Maximum angular momentum                    ...      3
Integral batch strategy                     ... SHARK/LIBINT Hybrid
RI-J (if used) integral strategy            ... SPLIT-RIJ (Revised 2003 algorithm where possible)
Printlevel                                  ...      1
Contraction scheme used                     ... SEGMENTED contraction
Coulomb Range Separation                    ... NOT USED
Exchange Range Separation                   ... NOT USED
Finite Nucleus Model                        ... NOT USED
Auxiliary Coulomb fitting basis             ... AVAILABLE
   # of basis functions in Aux-J            ...   1712
   # of shells in Aux-J                     ...    560
   Maximum angular momentum in Aux-J        ...      4
Auxiliary J/K fitting basis                 ... NOT available
Auxiliary Correlation fitting basis         ... NOT available
Auxiliary 'external' fitting basis          ... NOT available
Integral threshold                          ...     2.500000e-11
Primitive cut-off                           ...     2.500000e-12
Primitive pair pre-selection threshold      ...     2.500000e-12

Calculating pre-screening integrals         ... done (  0.1 sec) Dimension = 418
Organizing shell pair data                  ... done (  0.8 sec)
Shell pair information
Total number of shell pairs                 ...     87571
Shell pairs after pre-screening             ...     57596
Total number of primitive shell pairs       ...    269004
Primitive shell pairs kept                  ...    113646
          la=0 lb=0:  14852 shell pairs
          la=1 lb=0:  16761 shell pairs
          la=1 lb=1:   4760 shell pairs
          la=2 lb=0:   8117 shell pairs
          la=2 lb=1:   4693 shell pairs
          la=2 lb=2:   1173 shell pairs
          la=3 lb=0:   3736 shell pairs
          la=3 lb=1:   2209 shell pairs
          la=3 lb=2:   1033 shell pairs
          la=3 lb=3:    262 shell pairs

Calculating one electron integrals          ... done (  0.1 sec)
Calculating RI/J V-Matrix + Cholesky decomp.... done (  0.5 sec)
Calculating Nuclear repulsion               ... done (  0.0 sec) ENN=   3118.099667657733 Eh

SHARK setup successfully completed in   3.2 seconds

Maximum memory used throughout the entire GTOINT-calculation: 86.6 MB


           ************************************************************
           *        Program running with 24 parallel MPI-processes    *
           *              working on a common directory               *
           ************************************************************
-------------------------------------------------------------------------------
                                 ORCA SCF
-------------------------------------------------------------------------------

------------
SCF SETTINGS
------------
Hamiltonian:
 Density Functional     Method          .... DFT(GTOs)
 Exchange Functional    Exchange        .... PBE
   PBE kappa parameter   XKappa         ....  0.804000
   PBE mue parameter    XMuePBE         ....  0.219520
 Correlation Functional Correlation     .... PBE
   PBE beta parameter  CBetaPBE         ....  0.066725
 LDA part of GGA corr.  LDAOpt          .... PW91-LDA
 Gradients option       PostSCFGGA      .... off
 Hybrid DFT is turned on
   Fraction HF Exchange ScalHFX         ....  0.250000
   Scaling of DF-GGA-X  ScalDFX         ....  0.750000
   Scaling of DF-GGA-C  ScalDFC         ....  1.000000
   Scaling of DF-LDA-C  ScalLDAC        ....  1.000000
   Perturbative correction              ....  0.000000
   Density functional embedding theory  .... OFF
   NL short-range parameter             ....  6.900000
 RI-approximation to the Coulomb term is turned on
   Number of AuxJ basis functions       .... 1712
   RIJ-COSX (HFX calculated with COS-X)).... on


General Settings:
 Integral files         IntName         .... IM_CHCHCO2Me/IM_CHCHCO2Me
 Hartree-Fock type      HFTyp           .... RHF
 Total Charge           Charge          ....    0
 Multiplicity           Mult            ....    1
 Number of Electrons    NEL             ....  218
 Basis Dimension        Dim             .... 1062
 Nuclear Repulsion      ENuc            ....   3118.0996676577 Eh

Convergence Acceleration:
 DIIS                   CNVDIIS         .... on
   Start iteration      DIISMaxIt       ....    12
   Startup error        DIISStart       ....  0.200000
   # of expansion vecs  DIISMaxEq       ....     5
   Bias factor          DIISBfac        ....   1.050
   Max. coefficient     DIISMaxC        ....  10.000
 Trust-Rad. Augm. Hess. CNVTRAH         .... auto
   Auto Start mean grad. ratio tolernc. ....  1.125000
   Auto Start start iteration           ....    20
   Auto Start num. interpolation iter.  ....    10
   Max. Number of Micro iterations      ....    16
   Max. Number of Macro iterations      .... Maxiter - #DIIS iter
   Number of Davidson start vectors     ....     2
   Converg. threshold I  (grad. norm)   ....   1.000e-05
   Converg. threshold II (energy diff.) ....   1.000e-08
   Grad. Scal. Fac. for Micro threshold ....   0.100
   Minimum threshold for Micro iter.    ....   0.010
   NR start threshold (gradient norm)   ....   0.001
   Initial trust radius                 ....   0.400
   Minimum AH scaling param. (alpha)    ....   1.000
   Maximum AH scaling param. (alpha)    .... 1000.000
   Orbital update algorithm             .... Taylor
   White noise on init. David. guess    .... on
   Maximum white noise                  ....   0.010
   Quad. conv. algorithm                .... NR
 SOSCF                  CNVSOSCF        .... on
   Start iteration      SOSCFMaxIt      ....   150
   Startup grad/error   SOSCFStart      ....  0.003300
 Level Shifting         CNVShift        .... on
   Level shift para.    LevelShift      ....    0.2500
   Turn off err/grad.   ShiftErr        ....    0.0010
 Zerner damping         CNVZerner       .... off
 Static damping         CNVDamp         .... on
   Fraction old density DampFac         ....    0.7000
   Max. Damping (<1)    DampMax         ....    0.9800
   Min. Damping (>=0)   DampMin         ....    0.0000
   Turn off err/grad.   DampErr         ....    0.1000
 Fernandez-Rico         CNVRico         .... off

SCF Procedure:
 Maximum # iterations   MaxIter         ....   800
 SCF integral mode      SCFMode         .... Direct
   Integral package                     .... SHARK and LIBINT hybrid scheme
 Reset frequency        DirectResetFreq ....    20
 Integral Threshold     Thresh          ....  2.500e-11 Eh
 Primitive CutOff       TCut            ....  2.500e-12 Eh

Convergence Tolerance:
 Convergence Check Mode ConvCheckMode   .... Total+1el-Energy
 Convergence forced     ConvForced      .... 0
 Energy Change          TolE            ....  1.000e-08 Eh
 1-El. energy change                    ....  1.000e-05 Eh
 Orbital Gradient       TolG            ....  1.000e-05
 Orbital Rotation angle TolX            ....  1.000e-05
 DIIS Error             TolErr          ....  5.000e-07


Diagonalization of the overlap matrix:
Smallest eigenvalue                        ... 5.860e-06
Time for diagonalization                   ...    0.378 sec
Threshold for overlap eigenvalues          ... 1.000e-08
Number of eigenvalues below threshold      ... 0
Time for construction of square roots      ...    0.190 sec
Total time needed                          ...    0.575 sec

Time for model grid setup =    0.539 sec

------------------------------
INITIAL GUESS: MODEL POTENTIAL
------------------------------
Loading Hartree-Fock densities                     ... done
Calculating cut-offs                               ... done
Initializing the effective Hamiltonian             ... done
Setting up the integral package (SHARK)            ... done
Starting the Coulomb interaction                   ... done (   0.6 sec)
Reading the grid                                   ... done
Mapping shells                                     ... done
Starting the XC term evaluation                    ... done (   0.3 sec)
  promolecular density results
     # of electrons  =    217.987354718
     EX              =   -184.122937843
     EC              =     -7.374895412
     EX+EC           =   -191.497833255
Transforming the Hamiltonian                       ... done (   0.1 sec)
Diagonalizing the Hamiltonian                      ... done (   0.2 sec)
Back transforming the eigenvectors                 ... done (   0.1 sec)
Now organizing SCF variables                       ... done
                      ------------------
                      INITIAL GUESS DONE (   2.1 sec)
                      ------------------
-------------------
DFT GRID GENERATION
-------------------

General Integration Accuracy     IntAcc      ... 4.388
Radial Grid Type                 RadialGrid  ... OptM3 with GC (2021)
Angular Grid (max. ang.)         AngularGrid ... 4 (Lebedev-302)
Angular grid pruning method      GridPruning ... 4 (adaptive)
Weight generation scheme         WeightScheme... Becke
Basis function cutoff            BFCut       ... 1.0000e-11
Integration weight cutoff        WCut        ... 1.0000e-14
Angular grids for H and He will be reduced by one unit
Partially contracted basis set               ... off
Rotationally invariant grid construction     ... off

Total number of grid points                  ...   248762
Total number of batches                      ...     3910
Average number of points per batch           ...       63
Average number of grid points per atom       ...     4784
Time for grid setup =    2.056 sec

--------------------
COSX GRID GENERATION
--------------------

GRIDX 1
-------
General Integration Accuracy     IntAcc      ... 3.816
Radial Grid Type                 RadialGrid  ... OptM3 with GC (2021)
Angular Grid (max. ang.)         AngularGrid ... 1 (Lebedev-50)
Angular grid pruning method      GridPruning ... 4 (adaptive)
Weight generation scheme         WeightScheme... Becke
Basis function cutoff            BFCut       ... 1.0000e-11
Integration weight cutoff        WCut        ... 1.0000e-14
Angular grids for H and He will be reduced by one unit
Partially contracted basis set               ... on
Rotationally invariant grid construction     ... off

Total number of grid points                  ...    31574
Total number of batches                      ...      520
Average number of points per batch           ...       60
Average number of grid points per atom       ...      607
UseSFitting                                  ... on

GRIDX 2
-------
General Integration Accuracy     IntAcc      ... 4.020
Radial Grid Type                 RadialGrid  ... OptM3 with GC (2021)
Angular Grid (max. ang.)         AngularGrid ... 2 (Lebedev-110)
Angular grid pruning method      GridPruning ... 4 (adaptive)
Weight generation scheme         WeightScheme... Becke
Basis function cutoff            BFCut       ... 1.0000e-11
Integration weight cutoff        WCut        ... 1.0000e-14
Angular grids for H and He will be reduced by one unit
Partially contracted basis set               ... on
Rotationally invariant grid construction     ... off

Total number of grid points                  ...    68301
Total number of batches                      ...     1096
Average number of points per batch           ...       62
Average number of grid points per atom       ...     1313
UseSFitting                                  ... on

GRIDX 3
-------
General Integration Accuracy     IntAcc      ... 4.338
Radial Grid Type                 RadialGrid  ... OptM3 with GC (2021)
Angular Grid (max. ang.)         AngularGrid ... 3 (Lebedev-194)
Angular grid pruning method      GridPruning ... 4 (adaptive)
Weight generation scheme         WeightScheme... Becke
Basis function cutoff            BFCut       ... 1.0000e-11
Integration weight cutoff        WCut        ... 1.0000e-14
Angular grids for H and He will be reduced by one unit
Partially contracted basis set               ... on
Rotationally invariant grid construction     ... off

Total number of grid points                  ...   149066
Total number of batches                      ...     2356
Average number of points per batch           ...       63
Average number of grid points per atom       ...     2867
UseSFitting                                  ... on

Time for X-Grid setup             =    3.664 sec


--------------------
CPCM SOLVATION MODEL
--------------------
CPCM parameters:
  Epsilon                                         ...      47.2000
  Refrac                                          ...       1.4790
  Rsolv                                           ...       1.3000
  Surface type                                    ... GAUSSIAN VDW
  Epsilon function type                           ...         CPCM
Radii:
 Radius for C  used is    3.8550 Bohr (=   2.0400 Ang.)
 Radius for N  used is    3.5149 Bohr (=   1.8600 Ang.)
 Radius for O  used is    3.4469 Bohr (=   1.8240 Ang.)
 Radius for H  used is    2.4944 Bohr (=   1.3200 Ang.)
Calculating surface                               ...        done! (  0.0s)
GEPOL surface points                              ...         2635
GEPOL Volume                                      ...    3169.1577
GEPOL Surface-area                                ...    1575.8986
Calculating surface distance matrix               ...        done! (  0.1s)
Performing Cholesky decomposition & store         ...        done! (  0.5s)
Overall time for CPCM initialization              ...                 0.6s
--------------
SCF ITERATIONS
--------------
ITER       Energy         Delta-E        Max-DP      RMS-DP      [F,P]     Damp
               ***  Starting incremental Fock matrix formation  ***
  0  -1447.7047581037   0.000000000000 0.14540009  0.00074625  0.2751766 0.7000
  1  -1448.0094976887  -0.304739585052 0.13040796  0.00066420  0.1145120 0.7000
                               ***Turning on DIIS***
  2  -1448.1300243583  -0.120526669540 0.18961280  0.00127176  0.0363375 0.0000
  3  -1448.3315448965  -0.201520538184 0.13577409  0.00051485  0.0588766 0.0000
  4  -1448.3666799562  -0.035135059730 0.03667738  0.00021157  0.0139134 0.0000
  5  -1448.3692478017  -0.002567845506 0.02759869  0.00007791  0.0047860 0.0000
                      *** Initiating the SOSCF procedure ***
                           *** Shutting down DIIS ***
                      *** Re-Reading the Fockian *** 
                      *** Removing any level shift *** 
ITER      Energy       Delta-E        Grad      Rot      Max-DP    RMS-DP
  6  -1448.36939241  -0.0001446065  0.000366  0.000366  0.005803  0.000021
               *** Restarting incremental Fock matrix formation ***
  7  -1448.36936385   0.0000285557  0.000211  0.001338  0.004110  0.000030
  8  -1448.36936326   0.0000005909  0.000401  0.000586  0.000838  0.000009
  9  -1448.36936858  -0.0000053168  0.000091  0.000249  0.001230  0.000008
 10  -1448.36936831   0.0000002676  0.000111  0.000155  0.000908  0.000002
 11  -1448.36936877  -0.0000004639  0.000012  0.000039  0.000315  0.000002
 12  -1448.36936879  -0.0000000161  0.000017  0.000026  0.000125  0.000001
                  ***Gradient check signals convergence***
              ***Rediagonalizing the Fockian in SOSCF/NRSCF***

               *****************************************************
               *                     SUCCESS                       *
               *           SCF CONVERGED AFTER  13 CYCLES          *
               *****************************************************

Old exchange energy                            =    -46.872658756 Eh
New exchange energy                            =    -46.872698485 Eh
Exchange energy change after final integration =     -0.000039730 Eh
Total energy after final integration           =  -1448.369408527 Eh
Final COS-X integration done in                =    25.942 sec

----------------
TOTAL SCF ENERGY
----------------

Total Energy       :        -1448.36940853 Eh          -39412.13528 eV

Components:
Nuclear Repulsion  :         3118.09966766 Eh           84847.80554 eV
Electronic Energy  :        -4566.46907618 Eh         -124259.94082 eV
One Electron Energy:        -8180.56901712 Eh         -222604.59995 eV
Two Electron Energy:         3614.09994093 Eh           98344.65914 eV
Max COSX asymmetry :            0.00000152 Eh               0.00004 eV
CPCM Dielectric    :           -0.06671024 Eh              -1.81528 eV

Virial components:
Potential Energy   :        -2889.94999176 Eh          -78639.53723 eV
Kinetic Energy     :         1441.58058324 Eh           39227.40195 eV
Virial Ratio       :            2.00470929


DFT components:
N(Alpha)           :      108.999733031103 electrons
N(Beta)            :      108.999733031103 electrons
N(Total)           :      217.999466062207 electrons
E(X)               :     -140.408576288570 Eh       
E(C)               :       -7.368906499831 Eh       
E(XC)              :     -147.777482788401 Eh       
DFET-embed. en.    :        0.000000000000 Eh       
CPCM Solvation Model Properties:
Surface-charge          :           -0.03206659
Charge-correction       :           -0.00033605 Eh              -0.00914 eV
Free-energy (cav+disp)  :  This term is not implemented in the current solvation scheme

---------------
SCF CONVERGENCE
---------------

  Last Energy change         ...   -6.3612e-09  Tolerance :   1.0000e-08
  Last MAX-Density change    ...    2.6645e-15  Tolerance :   1.0000e-07
  Last RMS-Density change    ...    1.2658e-17  Tolerance :   5.0000e-09
  Last Orbital Gradient      ...    2.3035e-06  Tolerance :   1.0000e-05
  Last Orbital Rotation      ...    5.1764e-06  Tolerance :   1.0000e-05

             **** THE GBW FILE WAS UPDATED (IM_CHCHCO2Me/IM_CHCHCO2Me.gbw) ****
             **** DENSITY IM_CHCHCO2Me/IM_CHCHCO2Me.scfp WAS UPDATED ****
             **** ENERGY FILE WAS UPDATED (IM_CHCHCO2Me/IM_CHCHCO2Me.en.tmp) ****
             **** THE GBW FILE WAS UPDATED (IM_CHCHCO2Me/IM_CHCHCO2Me.gbw) ****
             **** DENSITY IM_CHCHCO2Me/IM_CHCHCO2Me.scfp WAS UPDATED ****
----------------
ORBITAL ENERGIES
----------------

  NO   OCC          E(Eh)            E(eV) 
   0   2.0000     -19.264289      -524.2079 
   1   2.0000     -19.248946      -523.7905 
   2   2.0000     -19.246360      -523.7201 
   3   2.0000     -19.204970      -522.5938 
   4   2.0000     -19.199316      -522.4400 
   5   2.0000     -19.196254      -522.3566 
   6   2.0000     -19.180037      -521.9154 
   7   2.0000     -14.581593      -396.7853 
   8   2.0000     -14.513305      -394.9271 
   9   2.0000     -10.369590      -282.1709 
  10   2.0000     -10.339639      -281.3559 
  11   2.0000     -10.315467      -280.6981 
  12   2.0000     -10.312618      -280.6206 
  13   2.0000     -10.307286      -280.4755 
  14   2.0000     -10.291858      -280.0557 
  15   2.0000     -10.281310      -279.7687 
  16   2.0000     -10.273285      -279.5503 
  17   2.0000     -10.270438      -279.4728 
  18   2.0000     -10.270029      -279.4617 
  19   2.0000     -10.269072      -279.4357 
  20   2.0000     -10.267129      -279.3828 
  21   2.0000     -10.264986      -279.3245 
  22   2.0000     -10.255049      -279.0541 
  23   2.0000     -10.243427      -278.7378 
  24   2.0000     -10.242143      -278.7029 
  25   2.0000     -10.230825      -278.3949 
  26   2.0000     -10.229305      -278.3535 
  27   2.0000     -10.227890      -278.3150 
  28   2.0000     -10.222719      -278.1743 
  29   2.0000     -10.217997      -278.0458 
  30   2.0000      -1.222903       -33.2769 
  31   2.0000      -1.159076       -31.5400 
  32   2.0000      -1.131154       -30.7803 
  33   2.0000      -1.111737       -30.2519 
  34   2.0000      -1.082284       -29.4504 
  35   2.0000      -1.061578       -28.8870 
  36   2.0000      -1.038627       -28.2625 
  37   2.0000      -1.035744       -28.1840 
  38   2.0000      -0.906484       -24.6667 
  39   2.0000      -0.886825       -24.1317 
  40   2.0000      -0.870052       -23.6753 
  41   2.0000      -0.841899       -22.9092 
  42   2.0000      -0.828767       -22.5519 
  43   2.0000      -0.799248       -21.7486 
  44   2.0000      -0.790716       -21.5165 
  45   2.0000      -0.774983       -21.0884 
  46   2.0000      -0.754681       -20.5359 
  47   2.0000      -0.743032       -20.2189 
  48   2.0000      -0.725740       -19.7484 
  49   2.0000      -0.712636       -19.3918 
  50   2.0000      -0.707654       -19.2562 
  51   2.0000      -0.679233       -18.4829 
  52   2.0000      -0.654651       -17.8140 
  53   2.0000      -0.626897       -17.0587 
  54   2.0000      -0.617329       -16.7984 
  55   2.0000      -0.608627       -16.5616 
  56   2.0000      -0.585471       -15.9315 
  57   2.0000      -0.575071       -15.6485 
  58   2.0000      -0.566488       -15.4149 
  59   2.0000      -0.559723       -15.2308 
  60   2.0000      -0.557185       -15.1618 
  61   2.0000      -0.549088       -14.9414 
  62   2.0000      -0.543007       -14.7760 
  63   2.0000      -0.529881       -14.4188 
  64   2.0000      -0.523974       -14.2581 
  65   2.0000      -0.521024       -14.1778 
  66   2.0000      -0.513274       -13.9669 
  67   2.0000      -0.507537       -13.8108 
  68   2.0000      -0.505095       -13.7443 
  69   2.0000      -0.499230       -13.5847 
  70   2.0000      -0.495319       -13.4783 
  71   2.0000      -0.494476       -13.4554 
  72   2.0000      -0.490161       -13.3380 
  73   2.0000      -0.489805       -13.3283 
  74   2.0000      -0.484196       -13.1757 
  75   2.0000      -0.480461       -13.0740 
  76   2.0000      -0.467750       -12.7281 
  77   2.0000      -0.456323       -12.4172 
  78   2.0000      -0.448385       -12.2012 
  79   2.0000      -0.440400       -11.9839 
  80   2.0000      -0.430968       -11.7272 
  81   2.0000      -0.430265       -11.7081 
  82   2.0000      -0.423352       -11.5200 
  83   2.0000      -0.419795       -11.4232 
  84   2.0000      -0.415911       -11.3175 
  85   2.0000      -0.411332       -11.1929 
  86   2.0000      -0.407620       -11.0919 
  87   2.0000      -0.402759       -10.9596 
  88   2.0000      -0.391535       -10.6542 
  89   2.0000      -0.382866       -10.4183 
  90   2.0000      -0.377457       -10.2711 
  91   2.0000      -0.373768       -10.1707 
  92   2.0000      -0.366454        -9.9717 
  93   2.0000      -0.362479        -9.8635 
  94   2.0000      -0.347577        -9.4581 
  95   2.0000      -0.342541        -9.3210 
  96   2.0000      -0.340871        -9.2756 
  97   2.0000      -0.332037        -9.0352 
  98   2.0000      -0.324461        -8.8290 
  99   2.0000      -0.319253        -8.6873 
 100   2.0000      -0.314787        -8.5658 
 101   2.0000      -0.312853        -8.5132 
 102   2.0000      -0.304727        -8.2920 
 103   2.0000      -0.302271        -8.2252 
 104   2.0000      -0.291476        -7.9315 
 105   2.0000      -0.280126        -7.6226 
 106   2.0000      -0.265950        -7.2369 
 107   2.0000      -0.239032        -6.5044 
 108   2.0000      -0.209591        -5.7033 
 109   0.0000      -0.085981        -2.3397 
 110   0.0000      -0.059521        -1.6197 
 111   0.0000      -0.048325        -1.3150 
 112   0.0000      -0.015130        -0.4117 
 113   0.0000       0.000816         0.0222 
 114   0.0000       0.007005         0.1906 
 115   0.0000       0.031414         0.8548 
 116   0.0000       0.043112         1.1731 
 117   0.0000       0.058805         1.6002 
 118   0.0000       0.062337         1.6963 
 119   0.0000       0.066032         1.7968 
 120   0.0000       0.067741         1.8433 
 121   0.0000       0.080151         2.1810 
 122   0.0000       0.082008         2.2315 
 123   0.0000       0.086953         2.3661 
 124   0.0000       0.087790         2.3889 
 125   0.0000       0.092540         2.5181 
 126   0.0000       0.097841         2.6624 
 127   0.0000       0.098939         2.6923 
 128   0.0000       0.105299         2.8653 
 129   0.0000       0.107648         2.9292 
 130   0.0000       0.110511         3.0072 
 131   0.0000       0.111057         3.0220 
 132   0.0000       0.117621         3.2006 
 133   0.0000       0.120925         3.2905 
 134   0.0000       0.125983         3.4282 
 135   0.0000       0.129982         3.5370 
 136   0.0000       0.132667         3.6100 
 137   0.0000       0.134251         3.6531 
 138   0.0000       0.140973         3.8361 
 139   0.0000       0.142482         3.8771 
 140   0.0000       0.144196         3.9238 
 141   0.0000       0.146925         3.9980 
 142   0.0000       0.149134         4.0581 
 143   0.0000       0.153311         4.1718 
 144   0.0000       0.159480         4.3397 
 145   0.0000       0.161076         4.3831 
 146   0.0000       0.163676         4.4539 
 147   0.0000       0.172043         4.6815 
 148   0.0000       0.186786         5.0827 
 149   0.0000       0.191452         5.2097 
 150   0.0000       0.193123         5.2551 
 151   0.0000       0.198419         5.3993 
 152   0.0000       0.203383         5.5343 
 153   0.0000       0.206440         5.6175 
 154   0.0000       0.207946         5.6585 
 155   0.0000       0.212694         5.7877 
 156   0.0000       0.213243         5.8026 
 157   0.0000       0.218225         5.9382 
 158   0.0000       0.219611         5.9759 
 159   0.0000       0.223505         6.0819 
 160   0.0000       0.226166         6.1543 
 161   0.0000       0.229403         6.2424 
 162   0.0000       0.231762         6.3066 
 163   0.0000       0.236403         6.4329 
 164   0.0000       0.239018         6.5040 
 165   0.0000       0.243048         6.6137 
 166   0.0000       0.244354         6.6492 
 167   0.0000       0.248971         6.7748 
 168   0.0000       0.249207         6.7813 
 169   0.0000       0.259209         7.0534 
 170   0.0000       0.260317         7.0836 
 171   0.0000       0.264916         7.2087 
 172   0.0000       0.268638         7.3100 
 173   0.0000       0.276765         7.5312 
 174   0.0000       0.277937         7.5631 
 175   0.0000       0.281771         7.6674 
 176   0.0000       0.287189         7.8148 
 177   0.0000       0.295856         8.0506 
 178   0.0000       0.297120         8.0851 
 179   0.0000       0.301316         8.1992 
 180   0.0000       0.302381         8.2282 
 181   0.0000       0.310263         8.4427 
 182   0.0000       0.313958         8.5432 
 183   0.0000       0.316696         8.6177 
 184   0.0000       0.316927         8.6240 
 185   0.0000       0.321587         8.7508 
 186   0.0000       0.322171         8.7667 
 187   0.0000       0.325578         8.8594 
 188   0.0000       0.330095         8.9823 
 189   0.0000       0.330997         9.0069 
 190   0.0000       0.338184         9.2025 
 191   0.0000       0.339744         9.2449 
 192   0.0000       0.340540         9.2666 
 193   0.0000       0.347222         9.4484 
 194   0.0000       0.353522         9.6198 
 195   0.0000       0.354464         9.6455 
 196   0.0000       0.357792         9.7360 
 197   0.0000       0.363342         9.8870 
[...]
 61:    813.63   0.003793   19.17  0.001455  ( 0.000441 -0.029026  0.024736)
 62:    825.30   0.015660   79.14  0.005921  (-0.060798 -0.033344  0.033363)
 63:    840.18   0.017938   90.65  0.006663  ( 0.069938  0.039602 -0.014249)
 64:    844.90   0.019097   96.51  0.007054  ( 0.007016 -0.034751  0.076136)
 65:    862.65   0.010371   52.41  0.003752  (-0.054226 -0.012354 -0.025664)
 66:    873.15   0.000671    3.39  0.000240  ( 0.000011 -0.010285  0.011581)
 67:    883.73   0.000511    2.58  0.000181  (-0.009341 -0.009336  0.002478)
 68:    929.12   0.002552   12.90  0.000857  (-0.013663  0.011451  0.023224)
 69:    939.07   0.011665   58.95  0.003876  ( 0.004308 -0.058301 -0.021418)
 70:    954.90   0.000314    1.58  0.000102  ( 0.009951  0.001482 -0.001110)
 71:    966.89   0.000177    0.89  0.000057  (-0.004784  0.004966  0.003094)
 72:    984.80   0.000434    2.20  0.000138  ( 0.006544  0.009339 -0.002763)
 73:    990.21   0.002949   14.90  0.000929  ( 0.016469  0.021561 -0.013906)
 74:   1019.06   0.002841   14.35  0.000870  ( 0.012495  0.024726 -0.010117)
 75:   1020.90   0.007631   38.56  0.002333  (-0.016232  0.018824 -0.041409)
 76:   1036.68   0.002735   13.82  0.000823  (-0.020783  0.009301  0.017461)
 77:   1049.08   0.000210    1.06  0.000062  ( 0.000086 -0.005789  0.005369)
 78:   1061.29   0.003105   15.69  0.000913  ( 0.027313  0.010985 -0.006800)
 79:   1071.79   0.011722   59.24  0.003413  (-0.030677  0.011423  0.048388)
 80:   1076.63   0.007011   35.43  0.002032  ( 0.030526 -0.015138 -0.029515)
 81:   1080.70   0.056155  283.79  0.016215  (-0.055517 -0.109889  0.032524)
 82:   1086.38   0.007348   37.13  0.002111  ( 0.003943  0.041848 -0.018547)
 83:   1087.51   0.012171   61.51  0.003493  ( 0.041034  0.042331  0.004104)
 84:   1130.23   0.004447   22.47  0.001228  ( 0.017817  0.027267  0.012919)
 85:   1135.63   0.006839   34.56  0.001879  (-0.022916  0.031180  0.019546)
 86:   1168.78   0.071828  362.99  0.019178  (-0.083468 -0.106453  0.029646)
 87:   1170.30   0.014378   72.66  0.003834  (-0.030414 -0.052844  0.010786)
 88:   1170.56   0.000168    0.85  0.000045  (-0.004502  0.001058 -0.004843)
 89:   1171.92   0.003137   15.85  0.000835  (-0.018728 -0.020160  0.008834)
 90:   1173.96   0.006216   31.41  0.001652  (-0.029486 -0.014273  0.024065)
 91:   1176.36   0.002464   12.45  0.000654  ( 0.001507 -0.025151  0.004344)
 92:   1187.86   0.496182  2507.50  0.130352  (-0.231017 -0.258555  0.100661)
 93:   1201.63   0.004663   23.56  0.001211  (-0.022533  0.000735  0.026508)
 94:   1208.26   0.026423  133.53  0.006825  (-0.054986 -0.059016  0.017838)
 95:   1209.27   0.016191   81.82  0.004178  (-0.036535 -0.042250  0.032532)
 96:   1215.41   0.001268    6.41  0.000326  ( 0.015116 -0.001664  0.009717)
 97:   1229.22   0.006386   32.27  0.001621  (-0.010928  0.000593  0.038747)
 98:   1231.47   0.011799   59.63  0.002990  ( 0.005625  0.027353 -0.047012)
 99:   1260.04   0.082288  415.85  0.020380  ( 0.104205  0.096867  0.011731)
100:   1269.25   0.032616  164.83  0.008019  ( 0.003831  0.061400  0.065073)
101:   1278.30   0.201379  1017.69  0.049161  ( 0.082226  0.174661 -0.109059)
102:   1291.08   0.035958  181.72  0.008691  (-0.082657 -0.002273  0.043058)
103:   1296.06   0.043063  217.62  0.010369  ( 0.004017 -0.088589  0.050045)
104:   1307.11   0.037361  188.81  0.008920  ( 0.026359 -0.089252 -0.016093)
105:   1319.98   0.008588   43.40  0.002030  (-0.008565 -0.015710  0.041355)
106:   1344.92   0.119343  603.11  0.027691  ( 0.106554  0.093964 -0.086651)
107:   1371.60   0.049507  250.19  0.011264  (-0.062240 -0.080434  0.030337)
108:   1379.63   0.024118  121.88  0.005455  (-0.039469 -0.059334  0.019418)
109:   1386.44   0.005032   25.43  0.001133  (-0.000160 -0.033193 -0.005559)
110:   1404.61   0.098012  495.31  0.021775  (-0.128258 -0.010369  0.072234)
111:   1422.82   0.078067  394.52  0.017122  (-0.022771 -0.126009  0.026934)
112:   1431.40   0.060245  304.45  0.013134  ( 0.042467  0.106177  0.007561)
113:   1462.93   0.010199   51.54  0.002176  (-0.029176  0.005628  0.035953)
114:   1464.28   0.003713   18.76  0.000791  ( 0.015767 -0.007363  0.022102)
115:   1465.59   0.011328   57.25  0.002412  ( 0.034663 -0.032765 -0.011704)
116:   1465.92   0.003610   18.24  0.000769  ( 0.018770 -0.020281 -0.002209)
117:   1471.66   0.014245   71.99  0.003021  ( 0.032470  0.022077 -0.038456)
118:   1473.64   0.002686   13.57  0.000569  ( 0.010098  0.008173  0.019999)
119:   1473.93   0.003079   15.56  0.000652  ( 0.024278  0.007273 -0.003091)
120:   1476.94   0.004405   22.26  0.000931  ( 0.005078 -0.029591 -0.005421)
121:   1484.49   0.005617   28.39  0.001181  ( 0.014825 -0.026642  0.015851)
122:   1486.94   0.009050   45.74  0.001899  (-0.037154  0.008292  0.021218)
123:   1498.72   0.017869   90.30  0.003721  ( 0.036553 -0.048748  0.002844)
124:   1528.03   0.016312   82.43  0.003331  (-0.015053  0.050222  0.024133)
125:   1533.96   0.005977   30.21  0.001216  ( 0.017725 -0.029368 -0.006272)
126:   1535.46   0.032747  165.49  0.006655  ( 0.035249 -0.063790  0.036657)
127:   1635.61   0.174161  880.14  0.033229  ( 0.161106  0.027857 -0.080607)
128:   1645.00   0.014281   72.17  0.002709  ( 0.039220  0.021399 -0.026703)
129:   1648.54   0.014473   73.14  0.002740  (-0.035504 -0.037141  0.009988)
130:   1664.71   0.014723   74.40  0.002760  (-0.000767  0.045062 -0.026996)
131:   1696.41   0.019286   97.46  0.003548  ( 0.000956  0.013197 -0.058075)
132:   1723.76   0.104459  527.89  0.018911  (-0.073906  0.092332  0.070168)
133:   1787.62   0.108995  550.81  0.019027  ( 0.080963  0.035825  0.105776)
134:   3039.49   0.012841   64.89  0.001318  ( 0.009997 -0.030624 -0.016750)
135:   3061.32   0.010704   54.10  0.001091  (-0.025865 -0.012210  0.016526)
136:   3070.92   0.000658    3.33  0.000067  (-0.002697  0.007432 -0.002096)
137:   3073.24   0.006538   33.04  0.000664  ( 0.017594  0.014339 -0.012194)
138:   3111.83   0.007397   37.38  0.000742  ( 0.024783  0.010905 -0.002945)
139:   3118.08   0.004907   24.80  0.000491  ( 0.009360  0.016956  0.010770)
140:   3138.21   0.006102   30.83  0.000607  (-0.014499  0.003901 -0.019527)
141:   3157.80   0.003630   18.35  0.000359  ( 0.013172 -0.013436 -0.002170)
142:   3166.01   0.003734   18.87  0.000368  ( 0.006532 -0.011552  0.013853)
143:   3173.78   0.004059   20.51  0.000399  (-0.000917 -0.019654 -0.003470)
144:   3191.04   0.002069   10.46  0.000202  (-0.003332 -0.001433 -0.013756)
145:   3193.05   0.000534    2.70  0.000052  ( 0.000275 -0.002804 -0.006650)
146:   3202.43   0.001510    7.63  0.000147  ( 0.004730 -0.009549 -0.005793)
147:   3208.54   0.002989   15.10  0.000291  (-0.004533  0.007083 -0.014831)
148:   3212.01   0.001121    5.66  0.000109  ( 0.008496  0.001331 -0.005910)
149:   3222.98   0.000090    0.46  0.000009  ( 0.000478  0.000137  0.002911)
150:   3228.24   0.002297   11.61  0.000222  (-0.005897  0.013684 -0.000084)
151:   3231.07   0.000370    1.87  0.000036  (-0.001435  0.001513 -0.005602)
152:   3239.71   0.000445    2.25  0.000043  ( 0.000338 -0.002522 -0.006030)
153:   3242.64   0.001182    5.97  0.000114  (-0.000486 -0.003491 -0.010066)
154:   3250.82   0.001627    8.22  0.000156  (-0.001527  0.012379  0.000778)
155:   3268.24   0.003908   19.75  0.000373  ( 0.007613 -0.013275  0.011789)

* The epsilon (eps) is given for a Dirac delta lineshape.
** The dipole moment derivative (T) already includes vibrational overlap.

The first frequency considered to be a vibration is 6
The total number of vibrations considered is 150


--------------------------
THERMOCHEMISTRY AT 298.15K
--------------------------

Temperature         ... 298.15 K
Pressure            ... 1.00 atm
Total Mass          ... 414.41 AMU

Throughout the following assumptions are being made:
  (1) The electronic state is orbitally nondegenerate
  (2) There are no thermally accessible electronically excited states
  (3) Hindered rotations indicated by low frequency modes are not
      treated as such but are treated as vibrations and this may
      cause some error
  (4) All equations used are the standard statistical mechanics
      equations for an ideal gas
  (5) All vibrations are strictly harmonic

freq.      10.25  E(vib)   ...       0.58 
freq.      26.34  E(vib)   ...       0.56 
freq.      33.31  E(vib)   ...       0.55 
freq.      43.63  E(vib)   ...       0.53 
freq.      45.94  E(vib)   ...       0.53 
freq.      60.33  E(vib)   ...       0.51 
freq.      70.56  E(vib)   ...       0.50 
freq.      76.55  E(vib)   ...       0.49 
freq.      85.26  E(vib)   ...       0.48 
freq.      92.12  E(vib)   ...       0.47 
freq.      94.65  E(vib)   ...       0.47 
freq.      99.10  E(vib)   ...       0.46 
freq.     106.81  E(vib)   ...       0.45 
freq.     130.52  E(vib)   ...       0.43 
freq.     146.87  E(vib)   ...       0.41 
freq.     150.75  E(vib)   ...       0.40 
freq.     159.04  E(vib)   ...       0.39 
freq.     162.32  E(vib)   ...       0.39 
freq.     171.30  E(vib)   ...       0.38 
freq.     179.41  E(vib)   ...       0.37 
freq.     205.26  E(vib)   ...       0.35 
freq.     212.42  E(vib)   ...       0.34 
freq.     234.96  E(vib)   ...       0.32 
freq.     252.76  E(vib)   ...       0.30 
freq.     259.86  E(vib)   ...       0.30 
freq.     261.95  E(vib)   ...       0.29 
freq.     268.90  E(vib)   ...       0.29 
freq.     297.98  E(vib)   ...       0.27 
freq.     302.32  E(vib)   ...       0.26 
freq.     312.16  E(vib)   ...       0.25 
freq.     347.01  E(vib)   ...       0.23 
freq.     359.37  E(vib)   ...       0.22 
freq.     376.03  E(vib)   ...       0.21 
freq.     421.18  E(vib)   ...       0.18 
freq.     437.09  E(vib)   ...       0.17 
freq.     462.50  E(vib)   ...       0.16 
freq.     485.84  E(vib)   ...       0.15 
freq.     505.37  E(vib)   ...       0.14 
freq.     507.91  E(vib)   ...       0.14 
freq.     551.24  E(vib)   ...       0.12 
freq.     576.86  E(vib)   ...       0.11 
freq.     590.90  E(vib)   ...       0.10 
freq.     606.80  E(vib)   ...       0.10 
freq.     638.84  E(vib)   ...       0.09 
freq.     657.69  E(vib)   ...       0.08 
freq.     660.68  E(vib)   ...       0.08 
freq.     684.95  E(vib)   ...       0.07 
freq.     699.38  E(vib)   ...       0.07 
freq.     712.49  E(vib)   ...       0.07 
freq.     749.53  E(vib)   ...       0.06 
freq.     755.62  E(vib)   ...       0.06 
freq.     761.61  E(vib)   ...       0.06 
freq.     768.62  E(vib)   ...       0.06 
freq.     788.33  E(vib)   ...       0.05 
freq.     796.61  E(vib)   ...       0.05 
freq.     813.63  E(vib)   ...       0.05 
freq.     825.30  E(vib)   ...       0.04 
freq.     840.18  E(vib)   ...       0.04 
freq.     844.90  E(vib)   ...       0.04 
freq.     862.65  E(vib)   ...       0.04 
freq.     873.15  E(vib)   ...       0.04 
freq.     883.73  E(vib)   ...       0.04 
freq.     929.12  E(vib)   ...       0.03 
freq.     939.07  E(vib)   ...       0.03 
freq.     954.90  E(vib)   ...       0.03 
freq.     966.89  E(vib)   ...       0.03 
freq.     984.80  E(vib)   ...       0.02 
freq.     990.21  E(vib)   ...       0.02 
freq.    1019.06  E(vib)   ...       0.02 
freq.    1020.90  E(vib)   ...       0.02 
freq.    1036.68  E(vib)   ...       0.02 
freq.    1049.08  E(vib)   ...       0.02 
freq.    1061.29  E(vib)   ...       0.02 
freq.    1071.79  E(vib)   ...       0.02 
freq.    1076.63  E(vib)   ...       0.02 
freq.    1080.70  E(vib)   ...       0.02 
freq.    1086.38  E(vib)   ...       0.02 
freq.    1087.51  E(vib)   ...       0.02 
freq.    1130.23  E(vib)   ...       0.01 
freq.    1135.63  E(vib)   ...       0.01 
freq.    1168.78  E(vib)   ...       0.01 
freq.    1170.30  E(vib)   ...       0.01 
freq.    1170.56  E(vib)   ...       0.01 
freq.    1171.92  E(vib)   ...       0.01 
freq.    1173.96  E(vib)   ...       0.01 
freq.    1176.36  E(vib)   ...       0.01 
freq.    1187.86  E(vib)   ...       0.01 
freq.    1201.63  E(vib)   ...       0.01 
freq.    1208.26  E(vib)   ...       0.01 
freq.    1209.27  E(vib)   ...       0.01 
freq.    1215.41  E(vib)   ...       0.01 
freq.    1229.22  E(vib)   ...       0.01 
freq.    1231.47  E(vib)   ...       0.01 
freq.    1260.04  E(vib)   ...       0.01 
freq.    1269.25  E(vib)   ...       0.01 
freq.    1278.30  E(vib)   ...       0.01 
freq.    1291.08  E(vib)   ...       0.01 
freq.    1296.06  E(vib)   ...       0.01 
freq.    1307.11  E(vib)   ...       0.01 
freq.    1319.98  E(vib)   ...       0.01 
freq.    1344.92  E(vib)   ...       0.01 
freq.    1371.60  E(vib)   ...       0.01 
freq.    1379.63  E(vib)   ...       0.01 
freq.    1386.44  E(vib)   ...       0.00 
freq.    1404.61  E(vib)   ...       0.00 
freq.    1422.82  E(vib)   ...       0.00 
freq.    1431.40  E(vib)   ...       0.00 
freq.    1462.93  E(vib)   ...       0.00 
freq.    1464.28  E(vib)   ...       0.00 
freq.    1465.59  E(vib)   ...       0.00 
freq.    1465.92  E(vib)   ...       0.00 
freq.    1471.66  E(vib)   ...       0.00 
freq.    1473.64  E(vib)   ...       0.00 
freq.    1473.93  E(vib)   ...       0.00 
freq.    1476.94  E(vib)   ...       0.00 
freq.    1484.49  E(vib)   ...       0.00 
freq.    1486.94  E(vib)   ...       0.00 
freq.    1498.72  E(vib)   ...       0.00 
freq.    1528.03  E(vib)   ...       0.00 
freq.    1533.96  E(vib)   ...       0.00 
freq.    1535.46  E(vib)   ...       0.00 
freq.    1635.61  E(vib)   ...       0.00 
freq.    1645.00  E(vib)   ...       0.00 
freq.    1648.54  E(vib)   ...       0.00 
freq.    1664.71  E(vib)   ...       0.00 
freq.    1696.41  E(vib)   ...       0.00 
freq.    1723.76  E(vib)   ...       0.00 
freq.    1787.62  E(vib)   ...       0.00 
freq.    3039.49  E(vib)   ...       0.00 
freq.    3061.32  E(vib)   ...       0.00 
freq.    3070.92  E(vib)   ...       0.00 
freq.    3073.24  E(vib)   ...       0.00 
freq.    3111.83  E(vib)   ...       0.00 
freq.    3118.08  E(vib)   ...       0.00 
freq.    3138.21  E(vib)   ...       0.00 
freq.    3157.80  E(vib)   ...       0.00 
freq.    3166.01  E(vib)   ...       0.00 
freq.    3173.78  E(vib)   ...       0.00 
freq.    3191.04  E(vib)   ...       0.00 
freq.    3193.05  E(vib)   ...       0.00 
freq.    3202.43  E(vib)   ...       0.00 
freq.    3208.54  E(vib)   ...       0.00 
freq.    3212.01  E(vib)   ...       0.00 
freq.    3222.98  E(vib)   ...       0.00 
freq.    3228.24  E(vib)   ...       0.00 
freq.    3231.07  E(vib)   ...       0.00 
freq.    3239.71  E(vib)   ...       0.00 
freq.    3242.64  E(vib)   ...       0.00 
freq.    3250.82  E(vib)   ...       0.00 
freq.    3268.24  E(vib)   ...       0.00 

------------
INNER ENERGY
------------

The inner energy is: U= E(el) + E(ZPE) + E(vib) + E(rot) + E(trans)
    E(el)   - is the total energy from the electronic structure calculation
              = E(kin-el) + E(nuc-el) + E(el-el) + E(nuc-nuc)
    E(ZPE)  - the the zero temperature vibrational energy from the frequency calculation
    E(vib)  - the the finite temperature correction to E(ZPE) due to population
              of excited vibrational states
    E(rot)  - is the rotational thermal energy
    E(trans)- is the translational thermal energy

Summary of contributions to the inner energy U:
Electronic energy                ...  -1448.43708398 Eh
Zero point energy                ...      0.41172038 Eh     258.36 kcal/mol
Thermal vibrational correction   ...      0.02561845 Eh      16.08 kcal/mol
Thermal rotational correction    ...      0.00141627 Eh       0.89 kcal/mol
Thermal translational correction ...      0.00141627 Eh       0.89 kcal/mol
-----------------------------------------------------------------------
Total thermal energy                  -1447.99691261 Eh


Summary of corrections to the electronic energy:
(perhaps to be used in another calculation)
Total thermal correction                  0.02845099 Eh      17.85 kcal/mol
Non-thermal (ZPE) correction              0.41172038 Eh     258.36 kcal/mol
-----------------------------------------------------------------------
Total correction                          0.44017137 Eh     276.21 kcal/mol


--------
ENTHALPY
--------

The enthalpy is H = U + kB*T
                kB is Boltzmann's constant
Total free energy                 ...  -1447.99691261 Eh 
Thermal Enthalpy correction       ...      0.00094421 Eh       0.59 kcal/mol
-----------------------------------------------------------------------
Total Enthalpy                    ...  -1447.99596840 Eh


Note: Only C1 symmetry has been detected, increase convergence thresholds 
      if your molecule has a higher symmetry. Symmetry factor of 1.0 is   
      used for the rotational entropy correction. 
 

Note: Rotational entropy computed according to Herzberg 
Infrared and Raman Spectra, Chapter V,1, Van Nostrand Reinhold, 1945 
Point Group:  C1, Symmetry Number:   1  
Rotational constants in cm-1:     0.006239     0.004434     0.003677 

Vibrational entropy computed according to the QRRHO of S. Grimme
Chem.Eur.J. 2012 18 9955


-------
ENTROPY
-------

The entropy contributions are T*S = T*(S(el)+S(vib)+S(rot)+S(trans))
     S(el)   - electronic entropy
     S(vib)  - vibrational entropy
     S(rot)  - rotational entropy
     S(trans)- translational entropy
The entropies will be listed as multiplied by the temperature to get
units of energy

Electronic entropy                ...      0.00000000 Eh      0.00 kcal/mol
Vibrational entropy               ...      0.04685014 Eh     29.40 kcal/mol
Rotational entropy                ...      0.01711200 Eh     10.74 kcal/mol
Translational entropy             ...      0.02088475 Eh     13.11 kcal/mol
-----------------------------------------------------------------------
Final entropy term                ...      0.08484688 Eh     53.24 kcal/mol

In case the symmetry of your molecule has not been determined correctly
or in case you have a reason to use a different symmetry number we print 
out the resulting rotational entropy values for sn=1,12 :
 --------------------------------------------------------
|  sn= 1 | S(rot)=       0.01711200 Eh     10.74 kcal/mol|
|  sn= 2 | S(rot)=       0.01645754 Eh     10.33 kcal/mol|
|  sn= 3 | S(rot)=       0.01607471 Eh     10.09 kcal/mol|
|  sn= 4 | S(rot)=       0.01580308 Eh      9.92 kcal/mol|
|  sn= 5 | S(rot)=       0.01559240 Eh      9.78 kcal/mol|
|  sn= 6 | S(rot)=       0.01542025 Eh      9.68 kcal/mol|
|  sn= 7 | S(rot)=       0.01527470 Eh      9.59 kcal/mol|
|  sn= 8 | S(rot)=       0.01514863 Eh      9.51 kcal/mol|
|  sn= 9 | S(rot)=       0.01503742 Eh      9.44 kcal/mol|
|  sn=10 | S(rot)=       0.01493794 Eh      9.37 kcal/mol|
|  sn=11 | S(rot)=       0.01484795 Eh      9.32 kcal/mol|
|  sn=12 | S(rot)=       0.01476579 Eh      9.27 kcal/mol|
 --------------------------------------------------------


-------------------
GIBBS FREE ENERGY
-------------------

The Gibbs free energy is G = H - T*S

Total enthalpy                    ...  -1447.99596840 Eh 
Total entropy correction          ...     -0.08484688 Eh    -53.24 kcal/mol
-----------------------------------------------------------------------
Final Gibbs free energy         ...  -1448.08081528 Eh

For completeness - the Gibbs free energy minus the electronic energy
G-E(el)                           ...      0.35626869 Eh    223.56 kcal/mol


Timings for individual modules:

Sum of individual times         ...     9092.295 sec (= 151.538 min)
GTO integral calculation        ...       53.028 sec (=   0.884 min)   0.6 %
SCF iterations                  ...     2647.226 sec (=  44.120 min)  29.1 %
SCF Gradient evaluation         ...      745.761 sec (=  12.429 min)   8.2 %
Geometry relaxation             ...        4.152 sec (=   0.069 min)   0.0 %
Analytical frequency calculation...     5642.127 sec (=  94.035 min)  62.1 %
                             ****ORCA TERMINATED NORMALLY****
TOTAL RUN TIME: 0 days 2 hours 32 minutes 23 seconds 217 msec
