
                                 *****************
                                 * O   R   C   A *
                                 *****************

                                            #,                                       
                                            ###                                      
                                            ####                                     
                                            #####                                    
                                            ######                                   
                                           ########,                                 
                                     ,,################,,,,,                         
                               ,,#################################,,                 
                          ,,##########################################,,             
                       ,#########################################, ''#####,          
                    ,#############################################,,   '####,        
                  ,##################################################,,,,####,       
                ,###########''''           ''''###############################       
              ,#####''   ,,,,##########,,,,          '''####'''          '####       
            ,##' ,,,,###########################,,,                        '##       
           ' ,,###''''                  '''############,,,                           
         ,,##''                                '''############,,,,        ,,,,,,###''
      ,#''                                            '''#######################'''  
     '                                                          ''''####''''         
             ,#######,   #######,   ,#######,      ##                                
            ,#'     '#,  ##    ##  ,#'     '#,    #''#        ######   ,####,        
            ##       ##  ##   ,#'  ##            #'  '#       #        #'  '#        
            ##       ##  #######   ##           ,######,      #####,   #    #        
            '#,     ,#'  ##    ##  '#,     ,#' ,#      #,         ##   #,  ,#        
             '#######'   ##     ##  '#######'  #'      '#     #####' # '####'        



                  #######################################################
                  #                        -***-                        #
                  #          Department of theory and spectroscopy      #
                  #    Directorship and core code : Frank Neese         #
                  #        Max Planck Institute fuer Kohlenforschung    #
                  #                Kaiser Wilhelm Platz 1               #
                  #                 D-45470 Muelheim/Ruhr               #
                  #                      Germany                        #
                  #                                                     #
                  #                  All rights reserved                #
                  #                        -***-                        #
                  #######################################################


                         Program Version 5.0.4 -  RELEASE  -


 With contributions from (in alphabetic order):
   Daniel Aravena         : Magnetic Suceptibility
   Michael Atanasov       : Ab Initio Ligand Field Theory (pilot matlab implementation)
   Alexander A. Auer      : GIAO ZORA, VPT2 properties, NMR spectrum
   Ute Becker             : Parallelization
   Giovanni Bistoni       : ED, misc. LED, open-shell LED, HFLD
   Martin Brehm           : Molecular dynamics
   Dmytro Bykov           : SCF Hessian
   Vijay G. Chilkuri      : MRCI spin determinant printing, contributions to CSF-ICE
   Dipayan Datta          : RHF DLPNO-CCSD density
   Achintya Kumar Dutta   : EOM-CC, STEOM-CC
   Dmitry Ganyushin       : Spin-Orbit,Spin-Spin,Magnetic field MRCI
   Miquel Garcia          : C-PCM and meta-GGA Hessian, CC/C-PCM, Gaussian charge scheme
   Yang Guo               : DLPNO-NEVPT2, F12-NEVPT2, CIM, IAO-localization
   Andreas Hansen         : Spin unrestricted coupled pair/coupled cluster methods
   Benjamin Helmich-Paris : MC-RPA, TRAH-SCF, COSX integrals
   Lee Huntington         : MR-EOM, pCC
   Robert Izsak           : Overlap fitted RIJCOSX, COSX-SCS-MP3, EOM
   Marcus Kettner         : VPT2
   Christian Kollmar      : KDIIS, OOCD, Brueckner-CCSD(T), CCSD density, CASPT2, CASPT2-K
   Simone Kossmann        : Meta GGA functionals, TD-DFT gradient, OOMP2, MP2 Hessian
   Martin Krupicka        : Initial AUTO-CI
   Lucas Lang             : DCDCAS
   Marvin Lechner         : AUTO-CI (C++ implementation), FIC-MRCC
   Dagmar Lenk            : GEPOL surface, SMD
   Dimitrios Liakos       : Extrapolation schemes; Compound Job, initial MDCI parallelization
   Dimitrios Manganas     : Further ROCIS development; embedding schemes
   Dimitrios Pantazis     : SARC Basis sets
   Anastasios Papadopoulos: AUTO-CI, single reference methods and gradients
   Taras Petrenko         : DFT Hessian,TD-DFT gradient, ASA, ECA, R-Raman, ABS, FL, XAS/XES, NRVS
   Peter Pinski           : DLPNO-MP2, DLPNO-MP2 Gradient
   Christoph Reimann      : Effective Core Potentials
   Marius Retegan         : Local ZFS, SOC
   Christoph Riplinger    : Optimizer, TS searches, QM/MM, DLPNO-CCSD(T), (RO)-DLPNO pert. Triples
   Tobias Risthaus        : Range-separated hybrids, TD-DFT gradient, RPA, STAB
   Michael Roemelt        : Original ROCIS implementation
   Masaaki Saitow         : Open-shell DLPNO-CCSD energy and density
   Barbara Sandhoefer     : DKH picture change effects
   Avijit Sen             : IP-ROCIS
   Kantharuban Sivalingam : CASSCF convergence, NEVPT2, FIC-MRCI
   Bernardo de Souza      : ESD, SOC TD-DFT
   Georgi Stoychev        : AutoAux, RI-MP2 NMR, DLPNO-MP2 response
   Willem Van den Heuvel  : Paramagnetic NMR
   Boris Wezisla          : Elementary symmetry handling
   Frank Wennmohs         : Technical directorship


 We gratefully acknowledge several colleagues who have allowed us to
 interface, adapt or use parts of their codes:
   Stefan Grimme, W. Hujo, H. Kruse, P. Pracht,  : VdW corrections, initial TS optimization,
                  C. Bannwarth, S. Ehlert          DFT functionals, gCP, sTDA/sTD-DF
   Ed Valeev, F. Pavosevic, A. Kumar             : LibInt (2-el integral package), F12 methods
   Garnet Chan, S. Sharma, J. Yang, R. Olivares  : DMRG
   Ulf Ekstrom                                   : XCFun DFT Library
   Mihaly Kallay                                 : mrcc  (arbitrary order and MRCC methods)
   Jiri Pittner, Ondrej Demel                    : Mk-CCSD
   Frank Weinhold                                : gennbo (NPA and NBO analysis)
   Christopher J. Cramer and Donald G. Truhlar   : smd solvation model
   Lars Goerigk                                  : TD-DFT with DH, B97 family of functionals
   V. Asgeirsson, H. Jonsson                     : NEB implementation
   FAccTs GmbH                                   : IRC, NEB, NEB-TS, DLPNO-Multilevel, CI-OPT
                                                   MM, QMMM, 2- and 3-layer-ONIOM, Crystal-QMMM,
                                                   LR-CPCM, SF, NACMEs, symmetry and pop. for TD-DFT,
                                                   nearIR, NL-DFT gradient (VV10), updates on ESD,
                                                   ML-optimized integration grids
   S Lehtola, MJT Oliveira, MAL Marques          : LibXC Library
   Liviu Ungur et al                             : ANISO software


 Your calculation uses the libint2 library for the computation of 2-el integrals
 For citations please refer to: http://libint.valeyev.net

 Your ORCA version has been built with support for libXC version: 5.1.0
 For citations please refer to: https://tddft.org/programs/libxc/

 This ORCA versions uses:
   CBLAS   interface :  Fast vector & matrix operations
   LAPACKE interface :  Fast linear algebra routines
   SCALAPACK package :  Parallel linear algebra routines
   Shared memory     :  Shared parallel matrices
   BLAS/LAPACK       :  OpenBLAS 0.3.15  USE64BITINT DYNAMIC_ARCH NO_AFFINITY Haswell SINGLE_THREADED
        Core in use  :  Haswell
   Copyright (c) 2011-2014, The OpenBLAS Project


Your calculation utilizes the atom-pairwise dispersion correction
with the Becke-Johnson damping scheme (D3BJ)
Cite in your paper:
S.Grimme, S.Ehrlich, L.Goerigk, J Comput Chem, (2011), 32, 1456–1465 
S.Grimme, J.Antony, S.Ehrlich and H.Krieg, J.Chem.Phys., 132, (2010), 154104 
   

================================================================================

----- Orbital basis set information -----
Your calculation utilizes the basis: def2-TZVP
   F. Weigend and R. Ahlrichs, Phys. Chem. Chem. Phys. 7, 3297 (2005).

----- AuxJ basis set information -----
Your calculation utilizes the auxiliary basis: def2/J
   F. Weigend, Phys. Chem. Chem. Phys. 8, 1057 (2006).

================================================================================
                                        WARNINGS
                       Please study these warnings very carefully!
================================================================================


WARNING: Geometry Optimization
  ===> : Switching off AutoStart
         For restart on a previous wavefunction, please use MOREAD

INFO   : the flag for use of the SHARK integral package has been found!

================================================================================
                                       INPUT FILE
================================================================================
NAME = IM_CN/IM_CN.inp
|  1> %pal nprocs 24 end
|  2> ! PBE0 D3BJ def2-TZVP TightSCF OPT FREQ TightOpt
|  3> ! CPCM(dmso)
|  4> %scf
|  5> MaxIter 800
|  6> end
|  7> 
|  8> %geom
|  9> MaxIter 800
| 10> MaxStep 0.15
| 11> end
| 12> 
| 13> *xyz 0 1
| 14> C      -1.70517200     -4.01919000      0.58038100
| 15> C      -0.72466900     -3.56645200      1.45991500
| 16> C       0.05768100     -2.48379300      1.10335800
| 17> N      -0.12353100     -1.87381700     -0.08578500
| 18> C      -1.07161700     -2.29171100     -0.94930400
| 19> C      -1.87828200     -3.36888100     -0.64040200
| 20> C       0.66152400     -0.68207500     -0.42312200
| 21> C       2.14408100     -1.01974400     -0.45742100
| 22> O       2.65793300     -1.94548300      0.11878700
| 23> O       2.76969400     -0.17575300     -1.25647500
| 24> C       4.19418100     -0.22665400     -1.25603100
| 25> H      -2.33527100     -4.87076600      0.84621100
| 26> H       0.83897700     -2.08459400      1.74719800
| 27> H      -1.15780000     -1.73033600     -1.88043900
| 28> H      -2.63678800     -3.68522900     -1.35728100
| 29> H       0.36631900     -0.37824200     -1.43233300
| 30> H       4.56081800      0.10997100     -0.27579400
| 31> H       4.52344300      0.45968300     -2.04332400
| 32> H      -0.56086900     -4.04205400      2.42756000
| 33> C       1.04269900      1.74465000      0.29001700
| 34> C       0.28677000      0.47958700      0.55654200
| 35> C      -1.21283900      0.66928900      0.61413900
| 36> C      -1.86334700      0.58914700      1.84633200
| 37> C      -3.24087200      0.77712700      1.96041100
| 38> C      -3.98540200      1.04809200      0.81596800
| 39> C      -3.36540400      1.12465100     -0.43135800
| 40> C      -1.98448600      0.93014400     -0.53824300
| 41> O      -1.31906000      0.95823200     -1.71262100
| 42> C      -1.98106100      1.40123800     -2.87547800
| 43> N       2.31661800      1.84817200      0.78083800
| 44> O       2.97982300      2.87924800      0.59622300
| 45> H       0.61534900      0.15374900      1.55506100
| 46> H      -1.26604700      0.37835400      2.73768900
| 47> H      -3.72486000      0.71198100      2.93710400
| 48> H      -5.06563100      1.19972900      0.88392400
| 49> H      -3.96299100      1.33251300     -1.31921500
| 50> H      -1.22926400      1.41095500     -3.67379300
| 51> H      -2.38005100      2.41916600     -2.73781800
| 52> H      -2.80084800      0.72131600     -3.15876700
| 53> O       2.79298800      0.87954700      1.41099000
| 54> H       4.54662700     -1.24640800     -1.46113000
| 55> C       0.54170200      2.85251700     -0.40598600
| 56> N       0.09805100      3.77063200     -0.97622700
| 57> *
| 58> 
| 59>                          ****END OF INPUT****
================================================================================

                       *****************************
                       * Geometry Optimization Run *
                       *****************************

Geometry optimization settings:
Update method            Update   .... BFGS
Choice of coordinates    CoordSys .... Z-matrix Internals
Initial Hessian          InHess   .... Almoef's Model

Convergence Tolerances:
Energy Change            TolE     ....  1.0000e-06 Eh
Max. Gradient            TolMAXG  ....  1.0000e-04 Eh/bohr
RMS Gradient             TolRMSG  ....  3.0000e-05 Eh/bohr
Max. Displacement        TolMAXD  ....  1.0000e-03 bohr
RMS Displacement         TolRMSD  ....  6.0000e-04 bohr
Strict Convergence                ....  False
------------------------------------------------------------------------------
                        ORCA OPTIMIZATION COORDINATE SETUP
------------------------------------------------------------------------------

The optimization will be done in new redundant internal coordinates
Making redundant internal coordinates   ...  (new redundants) done
Evaluating the initial hessian          ...  (Almloef) done
Evaluating the coordinates              ...  done
Calculating the B-matrix                .... done
Calculating the G-matrix                .... done
Diagonalizing the G-matrix              .... done
Small eigenvalue found = 3.315e-03
Small eigenvalue found = 5.623e-03
Small eigenvalue found = 6.685e-03
Small eigenvalue found = 9.868e-03
Small eigenvalue found = 1.489e-02
Small eigenvalue found = 1.737e-02
Small eigenvalue found = 2.584e-02
The first mode is                       ....   89
The number of degrees of freedom        ....  123

    -----------------------------------------------------------------
                    Redundant Internal Coordinates


    -----------------------------------------------------------------
         Definition                    Initial Value    Approx d2E/dq
    -----------------------------------------------------------------
      1. B(C   1,C   0)                  1.3928         0.618365   
      2. B(C   2,C   1)                  1.3825         0.642209   
      3. B(N   3,C   2)                  1.3487         0.651298   
      4. B(C   4,N   3)                  1.3488         0.651123   
      5. B(C   5,C   4)                  1.3807         0.646433   
      6. B(C   5,C   0)                  1.3940         0.615728   
      7. B(C   6,N   3)                  1.4664         0.422639   
      8. B(C   7,C   6)                  1.5209         0.386258   
      9. B(O   8,C   7)                  1.2054         1.102431   
     10. B(O   9,C   7)                  1.3199         0.723897   
     11. B(C  10,O   9)                  1.4254         0.491364   
     12. B(H  11,C   0)                  1.0922         0.357219   
     13. B(H  12,C   2)                  1.0883         0.362407   
     14. B(H  13,C   4)                  1.0907         0.359202   
     15. B(H  14,C   5)                  1.0906         0.359359   
     16. B(H  15,C   6)                  1.0945         0.354174   
     17. B(H  16,C  10)                  1.0994         0.347922   
     18. B(H  17,C  10)                  1.0951         0.353382   
     19. B(H  18,C   1)                  1.0906         0.359334   
     20. B(C  20,C  19)                  1.4976         0.420772   
     21. B(C  20,C   6)                  1.5651         0.328341   
     22. B(C  21,C  20)                  1.5127         0.398150   
     23. B(C  22,C  21)                  1.3957         0.611926   
     24. B(C  23,C  22)                  1.3950         0.613505   
     25. B(C  24,C  23)                  1.3919         0.620360   
     26. B(C  25,C  24)                  1.3950         0.613380   
     27. B(C  26,C  25)                  1.3986         0.605278   
     28. B(C  26,C  21)                  1.4112         0.577996   
     29. B(O  27,C  26)                  1.3501         0.647960   
     30. B(C  28,O  27)                  1.4095         0.520881   
     31. B(N  29,C  19)                  1.3691         0.604209   
     32. B(O  30,N  29)                  1.2398         0.870337   
     33. B(H  31,C  20)                  1.1005         0.346431   
     34. B(H  32,C  22)                  1.0935         0.355514   
     35. B(H  33,C  23)                  1.0920         0.357492   
     36. B(H  34,C  24)                  1.0929         0.356238   
     37. B(H  35,C  25)                  1.0902         0.359793   
     38. B(H  36,C  28)                  1.0966         0.351434   
     39. B(H  37,C  28)                  1.1020         0.344618   
     40. B(H  38,C  28)                  1.1021         0.344459   
     41. B(O  39,N  29)                  1.2499         0.838552   
     42. B(H  40,C  10)                  1.0983         0.349333   
     43. B(C  41,C  19)                  1.4010         0.600062   
     44. B(N  42,C  41)                  1.1683         1.263502   
     45. A(C   1,C   0,C   5)          119.2618         0.433321   
     46. A(C   1,C   0,H  11)          120.3896         0.352272   
     47. A(C   5,C   0,H  11)          120.3478         0.352018   
     48. A(C   2,C   1,H  18)          119.0355         0.354891   
     49. A(C   0,C   1,H  18)          121.6194         0.352624   
     50. A(C   0,C   1,C   2)          119.3444         0.436618   
     51. A(N   3,C   2,H  12)          116.8844         0.354054   
     52. A(C   1,C   2,H  12)          122.7482         0.355404   
     53. A(C   1,C   2,N   3)          120.3671         0.437830   
     54. A(C   2,N   3,C   6)          119.8979         0.403701   
     55. A(C   2,N   3,C   4)          121.2523         0.436041   
     56. A(C   4,N   3,C   6)          118.7402         0.403682   
     57. A(C   5,C   4,H  13)          123.1186         0.355264   
     58. A(N   3,C   4,C   5)          120.6074         0.438327   
     59. A(N   3,C   4,H  13)          116.2730         0.353506   
     60. A(C   0,C   5,C   4)          119.1647         0.436797   
     61. A(C   0,C   5,H  14)          121.7843         0.352373   
     62. A(C   4,C   5,H  14)          119.0506         0.355290   
     63. A(C   7,C   6,C  20)          114.3495         0.357474   
     64. A(N   3,C   6,C  20)          109.3304         0.360745   
     65. A(H  15,C   6,C  20)          107.8503         0.316687   
     66. A(N   3,C   6,H  15)          107.0569         0.328093   
     67. A(N   3,C   6,C   7)          110.2803         0.370923   
     68. A(C   7,C   6,H  15)          107.6829         0.325215   
     69. A(C   6,C   7,O   9)          109.4943         0.407440   
     70. A(C   6,C   7,O   8)          125.1176         0.439246   
     71. A(O   8,C   7,O   9)          125.3376         0.489433   
     72. A(C   7,O   9,C  10)          116.7855         0.422501   
     73. A(O   9,C  10,H  40)          110.7203         0.335618   
     74. A(H  16,C  10,H  17)          110.4160         0.288422   
     75. A(O   9,C  10,H  17)          106.1328         0.336262   
     76. A(O   9,C  10,H  16)          108.8220         0.335392   
     77. A(H  17,C  10,H  40)          110.5594         0.288605   
     78. A(H  16,C  10,H  40)          110.1085         0.287903   
     79. A(C  20,C  19,N  29)          118.0167         0.400656   
     80. A(N  29,C  19,C  41)          116.8104         0.426726   
     81. A(C  20,C  19,C  41)          125.1620         0.402752   
     82. A(C  21,C  20,H  31)          107.3718         0.325655   
     83. A(C  19,C  20,H  31)          105.1215         0.328633   
     84. A(C   6,C  20,H  31)          106.0617         0.315551   
     85. A(C  19,C  20,C  21)          113.6558         0.374933   
     86. A(C   6,C  20,C  21)          110.7498         0.359323   
     87. A(C   6,C  20,C  19)          113.2478         0.362726   
     88. A(C  22,C  21,C  26)          118.4705         0.427624   
     89. A(C  20,C  21,C  26)          122.2880         0.396236   
     90. A(C  20,C  21,C  22)          119.2412         0.400228   
     91. A(C  23,C  22,H  32)          119.9153         0.351518   
     92. A(C  21,C  22,H  32)          118.4340         0.351365   
     93. A(C  21,C  22,C  23)          121.6499         0.432225   
     94. A(C  24,C  23,H  33)          120.6592         0.352510   
     95. A(C  22,C  23,H  33)          120.1845         0.351848   
     96. A(C  22,C  23,C  24)          119.1563         0.433290   
     97. A(C  25,C  24,H  34)          119.1600         0.351627   
     98. A(C  23,C  24,H  34)          120.3018         0.352300   
     99. A(C  23,C  24,C  25)          120.5377         0.433274   
    100. A(C  26,C  25,H  35)          120.3621         0.351427   
    101. A(C  24,C  25,H  35)          119.6704         0.352218   
    102. A(C  24,C  25,C  26)          119.9671         0.431361   
    103. A(C  25,C  26,O  27)          123.3815         0.432785   
    104. A(C  21,C  26,O  27)          116.4016         0.429215   
    105. A(C  21,C  26,C  25)          120.2104         0.426788   
    106. A(C  26,O  27,C  28)          119.5171         0.418563   
    107. A(H  36,C  28,H  38)          109.1650         0.287722   
    108. A(O  27,C  28,H  38)          111.5630         0.338102   
    109. A(H  36,C  28,H  37)          109.3279         0.287743   
    110. A(O  27,C  28,H  37)          110.9357         0.338128   
    111. A(O  27,C  28,H  36)          106.3428         0.339235   
    112. A(H  37,C  28,H  38)          109.4313         0.286843   
    113. A(C  19,N  29,O  30)          120.4804         0.450300   
    114. A(O  30,N  29,O  39)          121.0444         0.474856   
    115. A(C  19,N  29,O  39)          118.4744         0.447270   
    116. L(C  19,C  41,N  42,N  29, 2) 181.5517         0.488099   
    117. L(C  19,C  41,N  42,N  29, 1) 181.1457         0.488099   
    118. D(C   2,C   1,C   0,H  11)   -179.7803         0.026451   
    119. D(H  18,C   1,C   0,C   5)    179.5722         0.026451   
    120. D(C   2,C   1,C   0,C   5)     -0.1150         0.026451   
    121. D(H  18,C   1,C   0,H  11)     -0.0931         0.026451   
    122. D(N   3,C   2,C   1,H  18)   -179.8818         0.028669   
    123. D(H  12,C   2,C   1,C   0)   -179.9841         0.028669   
    124. D(H  12,C   2,C   1,H  18)      0.3206         0.028669   
    125. D(N   3,C   2,C   1,C   0)     -0.1864         0.028669   
    126. D(C   4,N   3,C   2,H  12)   -179.6619         0.034630   
    127. D(C   6,N   3,C   2,H  12)     -3.5147         0.034630   
    128. D(C   4,N   3,C   2,C   1)      0.5289         0.034630   
    129. D(C   6,N   3,C   2,C   1)    176.6761         0.034630   
    130. D(C   5,C   4,N   3,C   6)   -176.7510         0.034610   
    131. D(C   5,C   4,N   3,C   2)     -0.5603         0.034610   
    132. D(H  13,C   4,N   3,C   2)    179.0852         0.034610   
    133. D(H  13,C   4,N   3,C   6)      2.8945         0.034610   
    134. D(H  14,C   5,C   4,H  13)      0.3801         0.029073   
    135. D(C   0,C   5,C   4,H  13)   -179.3740         0.029073   
    136. D(H  14,C   5,C   0,H  11)      0.0041         0.026212   
    137. D(C   0,C   5,C   4,N   3)      0.2465         0.029073   
    138. D(H  14,C   5,C   0,C   1)   -179.6614         0.026212   
    139. D(H  14,C   5,C   4,N   3)   -179.9994         0.029073   
    140. D(C   4,C   5,C   0,H  11)    179.7512         0.026212   
    141. D(C   4,C   5,C   0,C   1)      0.0857         0.026212   
    142. D(C  20,C   6,N   3,C   4)    111.4995         0.015230   
    143. D(C  20,C   6,N   3,C   2)    -64.7442         0.015230   
    144. D(H  15,C   6,N   3,C   4)     -5.0787         0.015230   
    145. D(C   7,C   6,N   3,C   2)     61.7994         0.015230   
    146. D(H  15,C   6,N   3,C   2)    178.6776         0.015230   
    147. D(C   7,C   6,N   3,C   4)   -121.9570         0.015230   
    148. D(O   8,C   7,C   6,N   3)    -23.1905         0.011112   
    149. D(O   9,C   7,C   6,C  20)    -81.9838         0.011112   
    150. D(O   9,C   7,C   6,H  15)     37.8460         0.011112   
    151. D(O   9,C   7,C   6,N   3)    154.3347         0.011112   
    152. D(O   8,C   7,C   6,C  20)    100.4911         0.011112   
    153. D(O   8,C   7,C   6,H  15)   -139.6791         0.011112   
    154. D(C  10,O   9,C   7,O   8)    -11.2488         0.039504   
    155. D(C  10,O   9,C   7,C   6)    171.2328         0.039504   
    156. D(H  40,C  10,O   9,C   7)     54.2352         0.019068   
    157. D(H  17,C  10,O   9,C   7)    174.2532         0.019068   
    158. D(H  16,C  10,O   9,C   7)    -66.9147         0.019068   
    159. D(H  31,C  20,C  19,C  41)   -144.3611         0.013090   
    160. D(C  21,C  20,C  19,C  41)    -27.2303         0.013090   
    161. D(C  21,C  20,C  19,N  29)    151.5287         0.013090   
    162. D(C   6,C  20,C  19,C  41)    100.2978         0.013090   
    163. D(C   6,C  20,C  19,N  29)    -80.9432         0.013090   
    164. D(H  31,C  20,C   6,H  15)   -178.7765         0.008788   
    165. D(H  31,C  20,C   6,C   7)    -59.0404         0.008788   
    166. D(H  31,C  20,C   6,N   3)     65.1496         0.008788   
    167. D(C  21,C  20,C   6,H  15)     65.0348         0.008788   
    168. D(C  21,C  20,C   6,C   7)   -175.2291         0.008788   
    169. D(C  21,C  20,C   6,N   3)    -51.0392         0.008788   
    170. D(C  19,C  20,C   6,H  15)    -63.9964         0.008788   
    171. D(H  31,C  20,C  19,N  29)     34.3979         0.013090   
    172. D(C  19,C  20,C   6,N   3)    179.9296         0.008788   
    173. D(C  19,C  20,C   6,C   7)     55.7396         0.008788   
    174. D(C  26,C  21,C  20,H  31)   -172.2265         0.011770   
    175. D(C  26,C  21,C  20,C  19)     71.9596         0.011770   
    176. D(C  26,C  21,C  20,C   6)    -56.8524         0.011770   
    177. D(C  22,C  21,C  20,H  31)      7.9716         0.011770   
    178. D(C  22,C  21,C  20,C  19)   -107.8422         0.011770   
    179. D(C  22,C  21,C  20,C   6)    123.3457         0.011770   
    180. D(C  23,C  22,C  21,C  20)    178.9590         0.025871   
    181. D(H  32,C  22,C  21,C  26)    179.4753         0.025871   
    182. D(H  32,C  22,C  21,C  20)     -0.7152         0.025871   
    183. D(C  23,C  22,C  21,C  26)     -0.8504         0.025871   
    184. D(H  33,C  23,C  22,H  32)     -0.1479         0.026012   
    185. D(H  33,C  23,C  22,C  21)   -179.8175         0.026012   
    186. D(C  24,C  23,C  22,H  32)    179.8324         0.026012   
    187. D(C  24,C  23,C  22,C  21)      0.1629         0.026012   
    188. D(H  34,C  24,C  23,H  33)      0.0521         0.026632   
    189. D(H  34,C  24,C  23,C  22)   -179.9282         0.026632   
    190. D(C  25,C  24,C  23,H  33)   -179.7030         0.026632   
    191. D(C  25,C  24,C  23,C  22)      0.3167         0.026632   
    192. D(H  35,C  25,C  24,H  34)     -0.0782         0.026001   
    193. D(H  35,C  25,C  24,C  23)    179.6797         0.026001   
    194. D(C  26,C  25,C  24,H  34)   -179.8438         0.026001   
    195. D(C  26,C  25,C  24,C  23)     -0.0859         0.026001   
    196. D(O  27,C  26,C  25,H  35)     -1.3389         0.025280   
    197. D(O  27,C  26,C  25,C  24)    178.4250         0.025280   
    198. D(C  21,C  26,C  25,H  35)    179.6161         0.025280   
    199. D(C  21,C  26,C  25,C  24)     -0.6200         0.025280   
    200. D(O  27,C  26,C  21,C  22)   -178.0371         0.022945   
    201. D(O  27,C  26,C  21,C  20)      2.1595         0.022945   
    202. D(C  25,C  26,C  21,C  22)      1.0725         0.022945   
    203. D(C  25,C  26,C  21,C  20)   -178.7308         0.022945   
    204. D(C  28,O  27,C  26,C  25)     10.0682         0.031013   
    205. D(C  28,O  27,C  26,C  21)   -170.8532         0.031013   
    206. D(H  38,C  28,O  27,C  26)    -65.3968         0.021514   
    207. D(H  37,C  28,O  27,C  26)     56.8917         0.021514   
    208. D(H  36,C  28,O  27,C  26)    175.6734         0.021514   
    209. D(O  39,N  29,C  19,C  41)    179.7553         0.029446   
    210. D(O  39,N  29,C  19,C  20)      0.8920         0.029446   
    211. D(O  30,N  29,C  19,C  41)     -0.5600         0.029446   
    212. D(O  30,N  29,C  19,C  20)   -179.4233         0.029446   
    -----------------------------------------------------------------

Number of atoms                         .... 43
Number of degrees of freedom            .... 212

         *************************************************************
         *                GEOMETRY OPTIMIZATION CYCLE   1            *
         *************************************************************
---------------------------------
CARTESIAN COORDINATES (ANGSTROEM)
---------------------------------
  C     -1.705172   -4.019190    0.580381
  C     -0.724669   -3.566452    1.459915
  C      0.057681   -2.483793    1.103358
  N     -0.123531   -1.873817   -0.085785
  C     -1.071617   -2.291711   -0.949304
  C     -1.878282   -3.368881   -0.640402
  C      0.661524   -0.682075   -0.423122
  C      2.144081   -1.019744   -0.457421
  O      2.657933   -1.945483    0.118787
  O      2.769694   -0.175753   -1.256475
  C      4.194181   -0.226654   -1.256031
  H     -2.335271   -4.870766    0.846211
  H      0.838977   -2.084594    1.747198
  H     -1.157800   -1.730336   -1.880439
  H     -2.636788   -3.685229   -1.357281
  H      0.366319   -0.378242   -1.432333
  H      4.560818    0.109971   -0.275794
  H      4.523443    0.459683   -2.043324
  H     -0.560869   -4.042054    2.427560
  C      1.042699    1.744650    0.290017
  C      0.286770    0.479587    0.556542
  C     -1.212839    0.669289    0.614139
  C     -1.863347    0.589147    1.846332
  C     -3.240872    0.777127    1.960411
  C     -3.985402    1.048092    0.815968
  C     -3.365404    1.124651   -0.431358
  C     -1.984486    0.930144   -0.538243
  O     -1.319060    0.958232   -1.712621
  C     -1.981061    1.401238   -2.875478
  N      2.316618    1.848172    0.780838
  O      2.979823    2.879248    0.596223
  H      0.615349    0.153749    1.555061
  H     -1.266047    0.378354    2.737689
  H     -3.724860    0.711981    2.937104
  H     -5.065631    1.199729    0.883924
  H     -3.962991    1.332513   -1.319215
  H     -1.229264    1.410955   -3.673793
  H     -2.380051    2.419166   -2.737818
  H     -2.800848    0.721316   -3.158767
  O      2.792988    0.879547    1.410990
  H      4.546627   -1.246408   -1.461130
  C      0.541702    2.852517   -0.405986
  N      0.098051    3.770632   -0.976227

----------------------------
CARTESIAN COORDINATES (A.U.)
----------------------------
  NO LB      ZA    FRAG     MASS         X           Y           Z
   0 C     6.0000    0    12.011   -3.222308   -7.595168    1.096761
   1 C     6.0000    0    12.011   -1.369426   -6.739618    2.758840
   2 C     6.0000    0    12.011    0.109001   -4.693689    2.085044
   3 N     7.0000    0    14.007   -0.233440   -3.541001   -0.162110
   4 C     6.0000    0    12.011   -2.025063   -4.330706   -1.793925
   5 C     6.0000    0    12.011   -3.549439   -6.366262   -1.210184
   6 C     6.0000    0    12.011    1.250099   -1.288935   -0.799585
   7 C     6.0000    0    12.011    4.051726   -1.927037   -0.864400
   8 O     8.0000    0    15.999    5.022765   -3.676430    0.224475
   9 O     8.0000    0    15.999    5.233963   -0.332125   -2.374394
  10 C     6.0000    0    12.011    7.925853   -0.428314   -2.373555
  11 H     1.0000    0     1.008   -4.413023   -9.204414    1.599107
  12 H     1.0000    0     1.008    1.585437   -3.939312    3.301726
  13 H     1.0000    0     1.008   -2.187925   -3.269861   -3.553515
  14 H     1.0000    0     1.008   -4.982807   -6.964074   -2.564889
  15 H     1.0000    0     1.008    0.692243   -0.714774   -2.706717
  16 H     1.0000    0     1.008    8.618697    0.207815   -0.521175
  17 H     1.0000    0     1.008    8.548068    0.868675   -3.861323
  18 H     1.0000    0     1.008   -1.059889   -7.638375    4.587424
  19 C     6.0000    0    12.011    1.970416    3.296911    0.548053
  20 C     6.0000    0    12.011    0.541917    0.906288    1.051712
  21 C     6.0000    0    12.011   -2.291934    1.264773    1.160555
  22 C     6.0000    0    12.011   -3.521216    1.113326    3.489062
  23 C     6.0000    0    12.011   -6.124361    1.468557    3.704640
  24 C     6.0000    0    12.011   -7.531318    1.980607    1.541956
  25 C     6.0000    0    12.011   -6.359692    2.125282   -0.815148
  26 C     6.0000    0    12.011   -3.750135    1.757717   -1.017132
  27 O     8.0000    0    15.999   -2.492662    1.810796   -3.236385
  28 C     6.0000    0    12.011   -3.743663    2.647956   -5.433866
  29 N     7.0000    0    14.007    4.377774    3.492539    1.475570
  30 O     8.0000    0    15.999    5.631049    5.440990    1.126698
  31 H     1.0000    0     1.008    1.162841    0.290544    2.938639
  32 H     1.0000    0     1.008   -2.392482    0.714985    5.173482
  33 H     1.0000    0     1.008   -7.038965    1.345449    5.550322
  34 H     1.0000    0     1.008   -9.572655    2.267159    1.670374
  35 H     1.0000    0     1.008   -7.488968    2.518085   -2.492955
  36 H     1.0000    0     1.008   -2.322972    2.666319   -6.942463
  37 H     1.0000    0     1.008   -4.497645    4.571561   -5.173726
  38 H     1.0000    0     1.008   -5.292836    1.363090   -5.969205
  39 O     8.0000    0    15.999    5.277982    1.662103    2.666385
  40 H     1.0000    0     1.008    8.591880   -2.355370   -2.761136
  41 C     6.0000    0    12.011    1.023668    5.390476   -0.767202
  42 N     7.0000    0    14.007    0.185290    7.125462   -1.844802

--------------------------------
INTERNAL COORDINATES (ANGSTROEM)
--------------------------------
 C      0   0   0     0.000000000000     0.00000000     0.00000000
 C      1   0   0     1.392816530204     0.00000000     0.00000000
 C      2   1   0     1.382517604600   119.34442627     0.00000000
 N      3   2   1     1.348691804664   120.36710374   359.81358370
 C      4   3   2     1.348765184157   121.25231026     0.52888331
 C      5   4   3     1.380733166375   120.60742875   359.43971934
 C      4   3   2     1.466409424123   119.89793564   176.67609370
 C      7   4   3     1.520911579682   110.28031938    61.79937636
 O      8   7   4     1.205426162521   125.11760964   336.80951748
 O      8   7   4     1.319924137504   109.49427326   154.33465286
 C     10   8   7     1.425396198292   116.78550472   171.23279635
 H      1   2   3     1.092186807500   120.38959329   180.21973794
 H      3   2   1     1.088261561766   122.74816667   180.01592080
 H      5   4   3     1.090679507619   116.27295553   179.08523887
 H      6   5   4     1.090560823513   119.05056496   180.00055228
 H      7   4   3     1.094516937482   107.05686477   178.67764209
 H     11  10   8     1.099365115220   108.82201814   293.08530794
 H     11  10   8     1.095126572622   106.13283631   174.25324474
 H      2   1   3     1.090579913821   121.61935731   179.68719356
 C      7   4   3     2.557900670388   141.87444385   295.31718356
 C     20   7   4     1.497614310373    34.20813952   359.89233442
 C     21  20   7     1.512657071545   113.65583500   232.47191538
 C     22  21  20     1.395665786454   119.24115819   252.15779116
 C     23  22  21     1.394964381003   121.64987231   178.95903699
 C     24  23  22     1.391939916941   119.15631652     0.16290960
 C     25  24  23     1.395020053892   120.53772120     0.31671540
 C     26  25  24     1.398639302679   119.96713606   359.91411530
 O     27  26  25     1.350090509597   123.38152908   178.42502170
 C     28  27  26     1.409516244137   119.51711385    10.06817714
 N     20   7   4     1.369120767897   108.07963842   113.38877760
 O     30  20   7     1.239774692445   120.48038724   144.84239794
 H     21  20   7     1.100533849932   105.12147520   115.34111624
 H     23  22  21     1.093489039862   118.43402844   359.28479288
 H     24  23  22     1.091978755155   120.18449282   180.18254958
 H     25  24  23     1.092934805991   120.30182272   180.07181867
 H     26  25  24     1.090232491748   119.67037765   179.67971574
 H     29  28  27     1.096631199868   106.34281489   175.67337473
 H     29  28  27     1.101962208465   110.93568532    56.89169642
 H     29  28  27     1.102087704756   111.56296647   294.60317378
 O     30  20   7     1.249901720388   118.47443436   325.15771039
 H     11  10   8     1.098263175761   110.72032312    54.23515561
 C     20   7   4     1.400995167624   123.94692045   255.73445182
 N     42  20   7     1.168304823711   178.60828211    74.52486369

---------------------------
INTERNAL COORDINATES (A.U.)
---------------------------
 C      0   0   0     0.000000000000     0.00000000     0.00000000
 C      1   0   0     2.632041796884     0.00000000     0.00000000
 C      2   1   0     2.612579648020   119.34442627     0.00000000
 N      3   2   1     2.548658149880   120.36710374   359.81358370
 C      4   3   2     2.548796817024   121.25231026     0.52888331
 C      5   4   3     2.609207548471   120.60742875   359.43971934
 C      4   3   2     2.771112211794   119.89793564   176.67609370
 C      7   4   3     2.874106359509   110.28031938    61.79937636
 O      8   7   4     2.277925321827   125.11760964   336.80951748
 O      8   7   4     2.494295137435   109.49427326   154.33465286
 C     10   8   7     2.693608447105   116.78550472   171.23279635
 H      1   2   3     2.063933953257   120.38959329   180.21973794
 H      3   2   1     2.056516313811   122.74816667   180.01592080
 H      5   4   3     2.061085569279   116.27295553   179.08523887
 H      6   5   4     2.060861288823   119.05056496   180.00055228
 H      7   4   3     2.068337260779   107.05686477   178.67764209
 H     11  10   8     2.077498988953   108.82201814   293.08530794
 H     11  10   8     2.069489304235   106.13283631   174.25324474
 H      2   1   3     2.060897364276   121.61935731   179.68719356
 C      7   4   3     4.833731744807   141.87444385   295.31718356
 C     20   7   4     2.830080900847    34.20813952   359.89233442
 C     21  20   7     2.858507599759   113.65583500   232.47191538
 C     22  21  20     2.637426110881   119.24115819   252.15779116
 C     23  22  21     2.636100646670   121.64987231   178.95903699
 C     24  23  22     2.630385237892   119.15631652     0.16290960
 C     25  24  23     2.636205853184   120.53772120     0.31671540
 C     26  25  24     2.643045242202   119.96713606   359.91411530
 O     27  26  25     2.551301319145   123.38152908   178.42502170
 C     28  27  26     2.663599682732   119.51711385    10.06817714
 N     20   7   4     2.587263295589   108.07963842   113.38877760
 O     30  20   7     2.342834636487   120.48038724   144.84239794
 H     21  20   7     2.079707577481   105.12147520   115.34111624
 H     23  22  21     2.066394815783   118.43402844   359.28479288
 H     24  23  22     2.063540791302   120.18449282   180.18254958
 H     25  24  23     2.065347465553   120.30182272   180.07181867
 H     26  25  24     2.060240831705   119.67037765   179.67971574
 H     29  28  27     2.072332637663   106.34281489   175.67337473
 H     29  28  27     2.082406783929   110.93568532    56.89169642
 H     29  28  27     2.082643937550   111.56296647   294.60317378
 O     30  20   7     2.361971945850   118.47443436   325.15771039
 H     11  10   8     2.075416625159   110.72032312    54.23515561
 C     20   7   4     2.647497181757   123.94692045   255.73445182
 N     42  20   7     2.207776157753   178.60828211    74.52486369

---------------------
BASIS SET INFORMATION
---------------------
There are 4 groups of distinct atoms

 Group   1 Type C   : 11s6p2d1f contracted to 5s3p2d1f pattern {62111/411/11/1}
 Group   2 Type N   : 11s6p2d1f contracted to 5s3p2d1f pattern {62111/411/11/1}
 Group   3 Type O   : 11s6p2d1f contracted to 5s3p2d1f pattern {62111/411/11/1}
 Group   4 Type H   : 5s1p contracted to 3s1p pattern {311/1}

Atom   0C    basis set group =>   1
Atom   1C    basis set group =>   1
Atom   2C    basis set group =>   1
Atom   3N    basis set group =>   2
Atom   4C    basis set group =>   1
Atom   5C    basis set group =>   1
Atom   6C    basis set group =>   1
Atom   7C    basis set group =>   1
Atom   8O    basis set group =>   3
Atom   9O    basis set group =>   3
Atom  10C    basis set group =>   1
Atom  11H    basis set group =>   4
Atom  12H    basis set group =>   4
Atom  13H    basis set group =>   4
Atom  14H    basis set group =>   4
Atom  15H    basis set group =>   4
Atom  16H    basis set group =>   4
Atom  17H    basis set group =>   4
Atom  18H    basis set group =>   4
Atom  19C    basis set group =>   1
Atom  20C    basis set group =>   1
Atom  21C    basis set group =>   1
Atom  22C    basis set group =>   1
Atom  23C    basis set group =>   1
Atom  24C    basis set group =>   1
Atom  25C    basis set group =>   1
Atom  26C    basis set group =>   1
Atom  27O    basis set group =>   3
Atom  28C    basis set group =>   1
Atom  29N    basis set group =>   2
Atom  30O    basis set group =>   3
Atom  31H    basis set group =>   4
Atom  32H    basis set group =>   4
Atom  33H    basis set group =>   4
Atom  34H    basis set group =>   4
Atom  35H    basis set group =>   4
Atom  36H    basis set group =>   4
Atom  37H    basis set group =>   4
Atom  38H    basis set group =>   4
Atom  39O    basis set group =>   3
Atom  40H    basis set group =>   4
Atom  41C    basis set group =>   1
Atom  42N    basis set group =>   2
---------------------------------
AUXILIARY/J BASIS SET INFORMATION
---------------------------------
There are 4 groups of distinct atoms

 Group   1 Type C   : 12s5p4d2f1g contracted to 6s4p3d1f1g pattern {711111/2111/211/2/1}
 Group   2 Type N   : 12s5p4d2f1g contracted to 6s4p3d1f1g pattern {711111/2111/211/2/1}
 Group   3 Type O   : 12s5p4d2f1g contracted to 6s4p3d1f1g pattern {711111/2111/211/2/1}
 Group   4 Type H   : 5s2p1d contracted to 3s1p1d pattern {311/2/1}

Atom   0C    basis set group =>   1
Atom   1C    basis set group =>   1
Atom   2C    basis set group =>   1
Atom   3N    basis set group =>   2
Atom   4C    basis set group =>   1
Atom   5C    basis set group =>   1
Atom   6C    basis set group =>   1
Atom   7C    basis set group =>   1
Atom   8O    basis set group =>   3
Atom   9O    basis set group =>   3
Atom  10C    basis set group =>   1
Atom  11H    basis set group =>   4
Atom  12H    basis set group =>   4
Atom  13H    basis set group =>   4
Atom  14H    basis set group =>   4
Atom  15H    basis set group =>   4
Atom  16H    basis set group =>   4
Atom  17H    basis set group =>   4
Atom  18H    basis set group =>   4
Atom  19C    basis set group =>   1
Atom  20C    basis set group =>   1
Atom  21C    basis set group =>   1
Atom  22C    basis set group =>   1
Atom  23C    basis set group =>   1
Atom  24C    basis set group =>   1
Atom  25C    basis set group =>   1
Atom  26C    basis set group =>   1
Atom  27O    basis set group =>   3
Atom  28C    basis set group =>   1
Atom  29N    basis set group =>   2
Atom  30O    basis set group =>   3
Atom  31H    basis set group =>   4
Atom  32H    basis set group =>   4
Atom  33H    basis set group =>   4
Atom  34H    basis set group =>   4
Atom  35H    basis set group =>   4
Atom  36H    basis set group =>   4
Atom  37H    basis set group =>   4
Atom  38H    basis set group =>   4
Atom  39O    basis set group =>   3
Atom  40H    basis set group =>   4
Atom  41C    basis set group =>   1
Atom  42N    basis set group =>   2


           ************************************************************
           *        Program running with 24 parallel MPI-processes    *
           *              working on a common directory               *
           ************************************************************
------------------------------------------------------------------------------
                           ORCA GTO INTEGRAL CALCULATION
                           -- RI-GTO INTEGRALS CHOSEN --
------------------------------------------------------------------------------
------------------------------------------------------------------------------
                   ___                                                        
                  /   \      - P O W E R E D   B Y -                         
                 /     \                                                     
                 |  |  |   _    _      __       _____    __    __             
                 |  |  |  | |  | |    /  \     |  _  \  |  |  /  |          
                  \  \/   | |  | |   /    \    | | | |  |  | /  /          
                 / \  \   | |__| |  /  /\  \   | |_| |  |  |/  /          
                |  |  |   |  __  | /  /__\  \  |    /   |      \           
                |  |  |   | |  | | |   __   |  |    \   |  |\   \          
                \     /   | |  | | |  |  |  |  | |\  \  |  | \   \       
                 \___/    |_|  |_| |__|  |__|  |_| \__\ |__|  \__/        
                                                                              
                      - O R C A' S   B I G   F R I E N D -                    
                                      &                                       
                       - I N T E G R A L  F E E D E R -                       
                                                                              
 v1 FN, 2020, v2 2021                                                         
------------------------------------------------------------------------------


Reading SHARK input file IM_CN/IM_CN.SHARKINP.tmp ... ok
----------------------
SHARK INTEGRAL PACKAGE
----------------------

Number of atoms                             ...     43
Number of basis functions                   ...    908
Number of shells                            ...    354
Maximum angular momentum                    ...      3
Integral batch strategy                     ... SHARK/LIBINT Hybrid
RI-J (if used) integral strategy            ... SPLIT-RIJ (Revised 2003 algorithm where possible)
Printlevel                                  ...      1
Contraction scheme used                     ... SEGMENTED contraction
Coulomb Range Separation                    ... NOT USED
Exchange Range Separation                   ... NOT USED
Finite Nucleus Model                        ... NOT USED
Auxiliary Coulomb fitting basis             ... AVAILABLE
   # of basis functions in Aux-J            ...   1461
   # of shells in Aux-J                     ...    475
   Maximum angular momentum in Aux-J        ...      4
Auxiliary J/K fitting basis                 ... NOT available
Auxiliary Correlation fitting basis         ... NOT available
Auxiliary 'external' fitting basis          ... NOT available
Integral threshold                          ...     2.500000e-11
Primitive cut-off                           ...     2.500000e-12
Primitive pair pre-selection threshold      ...     2.500000e-12

Calculating pre-screening integrals         ... done (  0.1 sec) Dimension = 354
Organizing shell pair data                  ... done (  1.3 sec)
Shell pair information
Total number of shell pairs                 ...     62835
Shell pairs after pre-screening             ...     45753
Total number of primitive shell pairs       ...    194376
Primitive shell pairs kept                  ...     92215
          la=0 lb=0:  11450 shell pairs
          la=1 lb=0:  13046 shell pairs
          la=1 lb=1:   3738 shell pairs
          la=2 lb=0:   6600 shell pairs
          la=2 lb=1:   3861 shell pairs
          la=2 lb=2:   1013 shell pairs
          la=3 lb=0:   3065 shell pairs
          la=3 lb=1:   1831 shell pairs
          la=3 lb=2:    914 shell pairs
          la=3 lb=3:    235 shell pairs

Calculating one electron integrals          ... done (  0.1 sec)
Calculating RI/J V-Matrix + Cholesky decomp.... done (  0.2 sec)
Calculating Nuclear repulsion               ... done (  0.0 sec) ENN=   2476.837200668608 Eh

SHARK setup successfully completed in   3.2 seconds

Maximum memory used throughout the entire GTOINT-calculation: 69.2 MB


           ************************************************************
           *        Program running with 24 parallel MPI-processes    *
           *              working on a common directory               *
           ************************************************************
-------------------------------------------------------------------------------
                                 ORCA SCF
-------------------------------------------------------------------------------

------------
SCF SETTINGS
------------
Hamiltonian:
 Density Functional     Method          .... DFT(GTOs)
 Exchange Functional    Exchange        .... PBE
   PBE kappa parameter   XKappa         ....  0.804000
   PBE mue parameter    XMuePBE         ....  0.219520
 Correlation Functional Correlation     .... PBE
   PBE beta parameter  CBetaPBE         ....  0.066725
 LDA part of GGA corr.  LDAOpt          .... PW91-LDA
 Gradients option       PostSCFGGA      .... off
 Hybrid DFT is turned on
   Fraction HF Exchange ScalHFX         ....  0.250000
   Scaling of DF-GGA-X  ScalDFX         ....  0.750000
   Scaling of DF-GGA-C  ScalDFC         ....  1.000000
   Scaling of DF-LDA-C  ScalLDAC        ....  1.000000
   Perturbative correction              ....  0.000000
   Density functional embedding theory  .... OFF
   NL short-range parameter             ....  6.900000
 RI-approximation to the Coulomb term is turned on
   Number of AuxJ basis functions       .... 1461
   RIJ-COSX (HFX calculated with COS-X)).... on


General Settings:
 Integral files         IntName         .... IM_CN/IM_CN
 Hartree-Fock type      HFTyp           .... RHF
 Total Charge           Charge          ....    0
 Multiplicity           Mult            ....    1
 Number of Electrons    NEL             ....  186
 Basis Dimension        Dim             ....  908
 Nuclear Repulsion      ENuc            ....   2476.8372006686 Eh

Convergence Acceleration:
 DIIS                   CNVDIIS         .... on
   Start iteration      DIISMaxIt       ....    12
   Startup error        DIISStart       ....  0.200000
   # of expansion vecs  DIISMaxEq       ....     5
   Bias factor          DIISBfac        ....   1.050
   Max. coefficient     DIISMaxC        ....  10.000
 Trust-Rad. Augm. Hess. CNVTRAH         .... auto
   Auto Start mean grad. ratio tolernc. ....  1.125000
   Auto Start start iteration           ....    20
   Auto Start num. interpolation iter.  ....    10
   Max. Number of Micro iterations      ....    16
   Max. Number of Macro iterations      .... Maxiter - #DIIS iter
   Number of Davidson start vectors     ....     2
   Converg. threshold I  (grad. norm)   ....   1.000e-05
   Converg. threshold II (energy diff.) ....   1.000e-08
   Grad. Scal. Fac. for Micro threshold ....   0.100
   Minimum threshold for Micro iter.    ....   0.010
   NR start threshold (gradient norm)   ....   0.001
   Initial trust radius                 ....   0.400
   Minimum AH scaling param. (alpha)    ....   1.000
   Maximum AH scaling param. (alpha)    .... 1000.000
   Orbital update algorithm             .... Taylor
   White noise on init. David. guess    .... on
   Maximum white noise                  ....   0.010
   Quad. conv. algorithm                .... NR
 SOSCF                  CNVSOSCF        .... on
   Start iteration      SOSCFMaxIt      ....   150
   Startup grad/error   SOSCFStart      ....  0.003300
 Level Shifting         CNVShift        .... on
   Level shift para.    LevelShift      ....    0.2500
   Turn off err/grad.   ShiftErr        ....    0.0010
 Zerner damping         CNVZerner       .... off
 Static damping         CNVDamp         .... on
   Fraction old density DampFac         ....    0.7000
   Max. Damping (<1)    DampMax         ....    0.9800
   Min. Damping (>=0)   DampMin         ....    0.0000
   Turn off err/grad.   DampErr         ....    0.1000
 Fernandez-Rico         CNVRico         .... off

SCF Procedure:
 Maximum # iterations   MaxIter         ....   800
 SCF integral mode      SCFMode         .... Direct
   Integral package                     .... SHARK and LIBINT hybrid scheme
 Reset frequency        DirectResetFreq ....    20
 Integral Threshold     Thresh          ....  2.500e-11 Eh
 Primitive CutOff       TCut            ....  2.500e-12 Eh

Convergence Tolerance:
 Convergence Check Mode ConvCheckMode   .... Total+1el-Energy
 Convergence forced     ConvForced      .... 0
 Energy Change          TolE            ....  1.000e-08 Eh
 1-El. energy change                    ....  1.000e-05 Eh
 Orbital Gradient       TolG            ....  1.000e-05
 Orbital Rotation angle TolX            ....  1.000e-05
 DIIS Error             TolErr          ....  5.000e-07


Diagonalization of the overlap matrix:
Smallest eigenvalue                        ... 5.752e-06
Time for diagonalization                   ...    0.254 sec
Threshold for overlap eigenvalues          ... 1.000e-08
Number of eigenvalues below threshold      ... 0
Time for construction of square roots      ...    0.194 sec
Total time needed                          ...    0.455 sec

Time for model grid setup =    0.337 sec

------------------------------
INITIAL GUESS: MODEL POTENTIAL
------------------------------
Loading Hartree-Fock densities                     ... done
Calculating cut-offs                               ... done
Initializing the effective Hamiltonian             ... done
Setting up the integral package (SHARK)            ... done
Starting the Coulomb interaction                   ... done (   0.4 sec)
Reading the grid                                   ... done
Mapping shells                                     ... done
Starting the XC term evaluation                    ... done (   0.3 sec)
  promolecular density results
     # of electrons  =    185.980543868
     EX              =   -157.464715597
     EC              =     -6.286775310
     EX+EC           =   -163.751490907
Transforming the Hamiltonian                       ... done (   0.1 sec)
Diagonalizing the Hamiltonian                      ... done (   0.3 sec)
Back transforming the eigenvectors                 ... done (   0.1 sec)
Now organizing SCF variables                       ... done
                      ------------------
                      INITIAL GUESS DONE (   1.7 sec)
                      ------------------
-------------------
DFT GRID GENERATION
-------------------

General Integration Accuracy     IntAcc      ... 4.388
Radial Grid Type                 RadialGrid  ... OptM3 with GC (2021)
Angular Grid (max. ang.)         AngularGrid ... 4 (Lebedev-302)
Angular grid pruning method      GridPruning ... 4 (adaptive)
Weight generation scheme         WeightScheme... Becke
Basis function cutoff            BFCut       ... 1.0000e-11
Integration weight cutoff        WCut        ... 1.0000e-14
Angular grids for H and He will be reduced by one unit
Partially contracted basis set               ... off
Rotationally invariant grid construction     ... off

Total number of grid points                  ...   208969
Total number of batches                      ...     3286
Average number of points per batch           ...       63
Average number of grid points per atom       ...     4860
Time for grid setup =    1.512 sec

--------------------
COSX GRID GENERATION
--------------------

GRIDX 1
-------
General Integration Accuracy     IntAcc      ... 3.816
Radial Grid Type                 RadialGrid  ... OptM3 with GC (2021)
Angular Grid (max. ang.)         AngularGrid ... 1 (Lebedev-50)
Angular grid pruning method      GridPruning ... 4 (adaptive)
Weight generation scheme         WeightScheme... Becke
Basis function cutoff            BFCut       ... 1.0000e-11
Integration weight cutoff        WCut        ... 1.0000e-14
Angular grids for H and He will be reduced by one unit
Partially contracted basis set               ... on
Rotationally invariant grid construction     ... off

Total number of grid points                  ...    26502
Total number of batches                      ...      435
Average number of points per batch           ...       60
Average number of grid points per atom       ...      616
UseSFitting                                  ... on

GRIDX 2
-------
General Integration Accuracy     IntAcc      ... 4.020
Radial Grid Type                 RadialGrid  ... OptM3 with GC (2021)
Angular Grid (max. ang.)         AngularGrid ... 2 (Lebedev-110)
Angular grid pruning method      GridPruning ... 4 (adaptive)
Weight generation scheme         WeightScheme... Becke
Basis function cutoff            BFCut       ... 1.0000e-11
Integration weight cutoff        WCut        ... 1.0000e-14
Angular grids for H and He will be reduced by one unit
Partially contracted basis set               ... on
Rotationally invariant grid construction     ... off

Total number of grid points                  ...    57755
Total number of batches                      ...      925
Average number of points per batch           ...       62
Average number of grid points per atom       ...     1343
UseSFitting                                  ... on

GRIDX 3
-------
General Integration Accuracy     IntAcc      ... 4.338
Radial Grid Type                 RadialGrid  ... OptM3 with GC (2021)
Angular Grid (max. ang.)         AngularGrid ... 3 (Lebedev-194)
Angular grid pruning method      GridPruning ... 4 (adaptive)
Weight generation scheme         WeightScheme... Becke
Basis function cutoff            BFCut       ... 1.0000e-11
Integration weight cutoff        WCut        ... 1.0000e-14
Angular grids for H and He will be reduced by one unit
Partially contracted basis set               ... on
Rotationally invariant grid construction     ... off

Total number of grid points                  ...   126099
Total number of batches                      ...     1992
Average number of points per batch           ...       63
Average number of grid points per atom       ...     2933
UseSFitting                                  ... on

Time for X-Grid setup             =    2.722 sec


--------------------
CPCM SOLVATION MODEL
--------------------
CPCM parameters:
  Epsilon                                         ...      47.2000
  Refrac                                          ...       1.4790
  Rsolv                                           ...       1.3000
  Surface type                                    ... GAUSSIAN VDW
  Epsilon function type                           ...         CPCM
Radii:
 Radius for C  used is    3.8550 Bohr (=   2.0400 Ang.)
 Radius for N  used is    3.5149 Bohr (=   1.8600 Ang.)
 Radius for O  used is    3.4469 Bohr (=   1.8240 Ang.)
 Radius for H  used is    2.4944 Bohr (=   1.3200 Ang.)
Calculating surface                               ...        done! (  0.0s)
GEPOL surface points                              ...         2174
GEPOL Volume                                      ...    2708.1574
GEPOL Surface-area                                ...    1327.2990
Calculating surface distance matrix               ...        done! (  0.1s)
Performing Cholesky decomposition & store         ...        done! (  0.3s)
Overall time for CPCM initialization              ...                 0.4s
--------------
SCF ITERATIONS
--------------
ITER       Energy         Delta-E        Max-DP      RMS-DP      [F,P]     Damp
               ***  Starting incremental Fock matrix formation  ***
  0  -1234.9122759777   0.000000000000 0.12067160  0.00078815  0.2630788 0.7000
  1  -1235.1743354741  -0.262059496426 0.11971428  0.00070238  0.1050138 0.7000
                               ***Turning on DIIS***
  2  -1235.2747953207  -0.100459846579 0.16555108  0.00116535  0.0362512 0.0000
  3  -1235.4490766911  -0.174281370421 0.12122863  0.00060859  0.0508129 0.0000
  4  -1235.4763424225  -0.027265731382 0.03602486  0.00020400  0.0182939 0.0000
                      *** Initiating the SOSCF procedure ***
                           *** Shutting down DIIS ***
                      *** Re-Reading the Fockian *** 
                      *** Removing any level shift *** 
ITER      Energy       Delta-E        Grad      Rot      Max-DP    RMS-DP
  5  -1235.47932902  -0.0029865956  0.000655  0.000655  0.015349  0.000076
               *** Restarting incremental Fock matrix formation ***
  6  -1235.47937160  -0.0000425824  0.000493  0.001816  0.004278  0.000028
  7  -1235.47935102   0.0000205759  0.001032  0.000943  0.002634  0.000016
  8  -1235.47938786  -0.0000368389  0.000172  0.000360  0.000508  0.000005
  9  -1235.47938670   0.0000011609  0.000255  0.000242  0.000288  0.000003
 10  -1235.47938852  -0.0000018203  0.000023  0.000067  0.000319  0.000002
 11  -1235.47938849   0.0000000368  0.000028  0.000040  0.000123  0.000001
 12  -1235.47938855  -0.0000000643  0.000004  0.000023  0.000147  0.000001
 13  -1235.47938857  -0.0000000154  0.000007  0.000015  0.000072  0.000001
                  ***Gradient check signals convergence***
              ***Rediagonalizing the Fockian in SOSCF/NRSCF***

               *****************************************************
               *                     SUCCESS                       *
               *           SCF CONVERGED AFTER  14 CYCLES          *
               *****************************************************

Old exchange energy                            =    -40.062320717 Eh
New exchange energy                            =    -40.062258030 Eh
Exchange energy change after final integration =      0.000062687 Eh
Total energy after final integration           =  -1235.479325858 Eh
Final COS-X integration done in                =    18.855 sec

----------------
TOTAL SCF ENERGY
----------------

Total Energy       :        -1235.47932586 Eh          -33619.10162 eV

Components:
Nuclear Repulsion  :         2476.83720067 Eh           67398.16669 eV
Electronic Energy  :        -3712.31652653 Eh         -101017.26831 eV
One Electron Energy:        -6609.13252393 Eh         -179843.63905 eV
Two Electron Energy:         2896.81599740 Eh           78826.37074 eV
Max COSX asymmetry :            0.00000272 Eh               0.00007 eV
CPCM Dielectric    :           -0.07879118 Eh              -2.14402 eV

Virial components:
Potential Energy   :        -2465.12822519 Eh          -67079.54927 eV
Kinetic Energy     :         1229.64889933 Eh           33460.44765 eV
Virial Ratio       :            2.00474154


DFT components:
N(Alpha)           :       93.000172552448 electrons
N(Beta)            :       93.000172552448 electrons
N(Total)           :      186.000345104897 electrons
E(X)               :     -120.025212545930 Eh       
E(C)               :       -6.282805770413 Eh       
E(XC)              :     -126.308018316342 Eh       
DFET-embed. en.    :        0.000000000000 Eh       
CPCM Solvation Model Properties:
Surface-charge          :           -0.02880162
Charge-correction       :           -0.00033131 Eh              -0.00902 eV
Free-energy (cav+disp)  :  This term is not implemented in the current solvation scheme

---------------
SCF CONVERGENCE
---------------

  Last Energy change         ...    2.0252e-08  Tolerance :   1.0000e-08
  Last MAX-Density change    ...    1.6653e-15  Tolerance :   1.0000e-07
  Last RMS-Density change    ...    1.3526e-17  Tolerance :   5.0000e-09
  Last Orbital Gradient      ...    1.1018e-06  Tolerance :   1.0000e-05
  Last Orbital Rotation      ...    4.0484e-06  Tolerance :   1.0000e-05

             **** THE GBW FILE WAS UPDATED (IM_CN/IM_CN.gbw) ****
             **** DENSITY IM_CN/IM_CN.scfp WAS UPDATED ****
             **** ENERGY FILE WAS UPDATED (IM_CN/IM_CN.en.tmp) ****
             **** THE GBW FILE WAS UPDATED (IM_CN/IM_CN.gbw) ****
             **** DENSITY IM_CN/IM_CN.scfp WAS UPDATED ****
----------------
ORBITAL ENERGIES
----------------

  NO   OCC          E(Eh)            E(eV) 
   0   2.0000     -19.270020      -524.3639 
   1   2.0000     -19.250383      -523.8295 
   2   2.0000     -19.211584      -522.7738 
   3   2.0000     -19.198626      -522.4212 
   4   2.0000     -19.195961      -522.3487 
   5   2.0000     -14.585885      -396.9021 
   6   2.0000     -14.517322      -395.0364 
   7   2.0000     -14.371274      -391.0622 
   8   2.0000     -10.372919      -282.2615 
   9   2.0000     -10.317565      -280.7552 
  10   2.0000     -10.316252      -280.7195 
  11   2.0000     -10.307180      -280.4726 
  12   2.0000     -10.298445      -280.2349 
  13   2.0000     -10.283624      -279.8316 
  14   2.0000     -10.274816      -279.5919 
  15   2.0000     -10.273063      -279.5443 
  16   2.0000     -10.272866      -279.5389 
  17   2.0000     -10.272711      -279.5347 
  18   2.0000     -10.271029      -279.4889 
  19   2.0000     -10.266617      -279.3688 
  20   2.0000     -10.263677      -279.2889 
  21   2.0000     -10.247958      -278.8611 
  22   2.0000     -10.237081      -278.5651 
  23   2.0000     -10.235797      -278.5302 
  24   2.0000     -10.232113      -278.4300 
  25   2.0000     -10.227436      -278.3027 
  26   2.0000      -1.224495       -33.3202 
  27   2.0000      -1.162567       -31.6351 
  28   2.0000      -1.115078       -30.3428 
  29   2.0000      -1.085248       -29.5311 
  30   2.0000      -1.067275       -29.0420 
  31   2.0000      -1.040764       -28.3206 
  32   2.0000      -0.928109       -25.2551 
  33   2.0000      -0.907309       -24.6891 
  34   2.0000      -0.889899       -24.2154 
  35   2.0000      -0.866054       -23.5665 
  36   2.0000      -0.844917       -22.9914 
  37   2.0000      -0.821635       -22.3578 
  38   2.0000      -0.798162       -21.7191 
  39   2.0000      -0.781585       -21.2680 
  40   2.0000      -0.754775       -20.5385 
  41   2.0000      -0.730027       -19.8650 
  42   2.0000      -0.715437       -19.4680 
  43   2.0000      -0.709032       -19.2937 
  44   2.0000      -0.680331       -18.5128 
  45   2.0000      -0.651358       -17.7243 
  46   2.0000      -0.631031       -17.1712 
  47   2.0000      -0.619063       -16.8456 
  48   2.0000      -0.611736       -16.6462 
  49   2.0000      -0.578694       -15.7471 
  50   2.0000      -0.568491       -15.4694 
  51   2.0000      -0.560748       -15.2587 
  52   2.0000      -0.555166       -15.1068 
  53   2.0000      -0.551238       -14.9999 
  54   2.0000      -0.544818       -14.8252 
  55   2.0000      -0.533501       -14.5173 
  56   2.0000      -0.525015       -14.2864 
  57   2.0000      -0.512875       -13.9560 
  58   2.0000      -0.507832       -13.8188 
  59   2.0000      -0.503042       -13.6885 
  60   2.0000      -0.498445       -13.5634 
  61   2.0000      -0.494764       -13.4632 
  62   2.0000      -0.493288       -13.4230 
  63   2.0000      -0.486825       -13.2472 
  64   2.0000      -0.476939       -12.9782 
  65   2.0000      -0.462986       -12.5985 
  66   2.0000      -0.456468       -12.4211 
  67   2.0000      -0.452022       -12.3001 
  68   2.0000      -0.438340       -11.9278 
  69   2.0000      -0.429329       -11.6826 
  70   2.0000      -0.419003       -11.4017 
  71   2.0000      -0.417342       -11.3565 
  72   2.0000      -0.413133       -11.2419 
  73   2.0000      -0.402606       -10.9555 
  74   2.0000      -0.396139       -10.7795 
  75   2.0000      -0.386000       -10.5036 
  76   2.0000      -0.385193       -10.4816 
  77   2.0000      -0.380999       -10.3675 
  78   2.0000      -0.373628       -10.1669 
  79   2.0000      -0.369436       -10.0529 
  80   2.0000      -0.355345        -9.6694 
  81   2.0000      -0.350917        -9.5489 
  82   2.0000      -0.347210        -9.4481 
  83   2.0000      -0.337128        -9.1737 
  84   2.0000      -0.334761        -9.1093 
  85   2.0000      -0.324413        -8.8277 
  86   2.0000      -0.313786        -8.5385 
  87   2.0000      -0.310253        -8.4424 
  88   2.0000      -0.303234        -8.2514 
  89   2.0000      -0.280528        -7.6336 
  90   2.0000      -0.274134        -7.4596 
  91   2.0000      -0.245190        -6.6720 
  92   2.0000      -0.223942        -6.0938 
  93   0.0000      -0.088777        -2.4157 
  94   0.0000      -0.052933        -1.4404 
  95   0.0000      -0.033752        -0.9184 
  96   0.0000      -0.021458        -0.5839 
  97   0.0000      -0.005478        -0.1491 
  98   0.0000       0.000347         0.0094 
  99   0.0000       0.024581         0.6689 
 100   0.0000       0.042652         1.1606 
 101   0.0000       0.057352         1.5606 
 102   0.0000       0.061273         1.6673 
 103   0.0000       0.065844         1.7917 
 104   0.0000       0.077763         2.1160 
 105   0.0000       0.086264         2.3474 
 106   0.0000       0.086367         2.3502 
 107   0.0000       0.088967         2.4209 
 108   0.0000       0.095514         2.5991 
 109   0.0000       0.097362         2.6493 
 110   0.0000       0.100203         2.7267 
 111   0.0000       0.105317         2.8658 
 112   0.0000       0.113040         3.0760 
 113   0.0000       0.115679         3.1478 
 114   0.0000       0.123727         3.3668 
 115   0.0000       0.126433         3.4404 
 116   0.0000       0.129617         3.5271 
 117   0.0000       0.130404         3.5485 
 118   0.0000       0.135086         3.6759 
 119   0.0000       0.140563         3.8249 
 120   0.0000       0.144601         3.9348 
 121   0.0000       0.148285         4.0350 
 122   0.0000       0.151388         4.1195 
 123   0.0000       0.152879         4.1601 
 124   0.0000       0.162798         4.4300 
 125   0.0000       0.166279         4.5247 
 126   0.0000       0.176472         4.8021 
 127   0.0000       0.184847         5.0299 
 128   0.0000       0.194081         5.2812 
 129   0.0000       0.194667         5.2972 
 130   0.0000       0.201656         5.4874 
 131   0.0000       0.205675         5.5967 
 132   0.0000       0.207932         5.6581 
 133   0.0000       0.210635         5.7317 
 134   0.0000       0.216907         5.9023 
 135   0.0000       0.217631         5.9220 
 136   0.0000       0.224776         6.1165 
 137   0.0000       0.230565         6.2740 
 138   0.0000       0.232583         6.3289 
 139   0.0000       0.235843         6.4176 
 140   0.0000       0.241291         6.5659 
 141   0.0000       0.245660         6.6847 
 142   0.0000       0.248664         6.7665 
 143   0.0000       0.252041         6.8584 
 144   0.0000       0.252380         6.8676 
 145   0.0000       0.257956         7.0193 
 146   0.0000       0.260506         7.0887 
 147   0.0000       0.268694         7.3115 
 148   0.0000       0.274294         7.4639 
 149   0.0000       0.277207         7.5432 
 150   0.0000       0.279802         7.6138 
 151   0.0000       0.284800         7.7498 
 152   0.0000       0.291252         7.9254 
 153   0.0000       0.296686         8.0732 
 154   0.0000       0.300896         8.1878 
 155   0.0000       0.306374         8.3369 
 156   0.0000       0.307642         8.3714 
 157   0.0000       0.311418         8.4741 
 158   0.0000       0.315910         8.5963 
 159   0.0000       0.322090         8.7645 
 160   0.0000       0.324449         8.8287 
 161   0.0000       0.330615         8.9965 
 162   0.0000       0.337117         9.1734 
 163   0.0000       0.344338         9.3699 
 164   0.0000       0.347542         9.4571 
 165   0.0000       0.351154         9.5554 
 166   0.0000       0.353852         9.6288 
 167   0.0000       0.356787         9.7087 
 168   0.0000       0.361352         9.8329 
 169   0.0000       0.362550         9.8655 
 170   0.0000       0.366609         9.9759 
 171   0.0000       0.375136        10.2080 
 172   0.0000       0.376782        10.2528 
 173   0.0000       0.380535        10.3549 
 174   0.0000       0.386266        10.5108 
 175   0.0000       0.389811        10.6073 
 176   0.0000       0.390003        10.6125 
 177   0.0000       0.397102        10.8057 
 178   0.0000       0.404062        10.9951 
 179   0.0000       0.409447        11.1416 
 180   0.0000       0.414621        11.2824 
 181   0.0000       0.416528        11.3343 
 182   0.0000       0.416852        11.3431 
 183   0.0000       0.419618        11.4184 
 184   0.0000       0.421288        11.4638 
 185   0.0000       0.426441        11.6041 
 186   0.0000       0.427869        11.6429 
 187   0.0000       0.437361        11.9012 
 188   0.0000       0.439348        11.9553 
 189   0.0000       0.442498        12.0410 
 190   0.0000       0.445586        12.1250 
 191   0.0000       0.452227        12.3057 
 192   0.0000       0.453256        12.3337 
 193   0.0000       0.459571        12.5056 
 194   0.0000       0.462799        12.5934 
 195   0.0000       0.466186        12.6856 
 196   0.0000       0.468877        12.7588 
 197   0.0000       0.469955        12.7881 
 198   0.0000       0.472058        12.8454 
 199   0.0000       0.476704        12.9718 
 200   0.0000       0.480812        13.0836 
 201   0.0000       0.487135        13.2556 
 202   0.0000       0.489770        13.3273 
 203   0.0000       0.492103        13.3908 
 204   0.0000       0.498214        13.5571 
 205   0.0000       0.499193        13.5837 
 206   0.0000       0.502223        13.6662 
 207   0.0000       0.508453        13.8357 
 208   0.0000       0.511995        13.9321 
 209   0.0000       0.515868        14.0375 
 210   0.0000       0.516422        14.0526 
 211   0.0000       0.519794        14.1443 
 212   0.0000       0.523858        14.2549 
 213   0.0000       0.530089        14.4245 
 214   0.0000       0.537739        14.6326 
 215   0.0000       0.543880        14.7997 
 216   0.0000       0.547105        14.8875 
 217   0.0000       0.557953        15.1827 
 218   0.0000       0.566422        15.4131 
 219   0.0000       0.569466        15.4959 
 220   0.0000       0.573511        15.6060 
 221   0.0000       0.579857        15.7787 
 222   0.0000       0.583567        15.8797 
 223   0.0000       0.589647        16.0451 
 224   0.0000       0.597453        16.2575 
 225   0.0000       0.603758        16.4291 
 226   0.0000       0.611641        16.6436 
 227   0.0000       0.614200        16.7132 
 228   0.0000       0.622982        16.9522 
 229   0.0000       0.630966        17.1694 
 230   0.0000       0.635795        17.3009 
 231   0.0000       0.638270        17.3682 
 232   0.0000       0.644541        17.5389 
 233   0.0000       0.649302        17.6684 
 234   0.0000       0.656999        17.8778 
 235   0.0000       0.665508        18.1094 
 236   0.0000       0.669772        18.2254 
 237   0.0000       0.672240        18.2926 
 238   0.0000       0.678500        18.4629 
 239   0.0000       0.682634        18.5754 
 240   0.0000       0.687578        18.7100 
 241   0.0000       0.690787        18.7973 
 242   0.0000       0.699351        19.0303 
 243   0.0000       0.706847        19.2343 
 244   0.0000       0.717515        19.5246 
 245   0.0000       0.721329        19.6284 
 246   0.0000       0.723606        19.6903 
 247   0.0000       0.728438        19.8218 
 248   0.0000       0.736812        20.0497 
 249   0.0000       0.742807        20.2128 
 250   0.0000       0.747538        20.3415 
 251   0.0000       0.749918        20.4063 
 252   0.0000       0.753933        20.5156 
 253   0.0000       0.755505        20.5583 
 254   0.0000       0.762564        20.7504 
 255   0.0000       0.766523        20.8582 
 256   0.0000       0.773396        21.0452 
 257   0.0000       0.777032        21.1441 
 258   0.0000       0.783014        21.3069 
 259   0.0000       0.795001        21.6331 
 260   0.0000       0.798219        21.7206 
 261   0.0000       0.801618        21.8131 
 262   0.0000       0.809186        22.0191 
 263   0.0000       0.815378        22.1876 
 264   0.0000       0.827091        22.5063 
 265   0.0000       0.829789        22.5797 
 266   0.0000       0.833454        22.6794 
 267   0.0000       0.843025        22.9399 
 268   0.0000       0.848610        23.0919 
 269   0.0000       0.856423        23.3045 
 270   0.0000       0.864887        23.5348 
 271   0.0000       0.877162        23.8688 
 272   0.0000       0.879219        23.9248 
 273   0.0000       0.882289        24.0083 
 274   0.0000       0.887930        24.1618 
 275   0.0000       0.896516        24.3954 
 276   0.0000       0.902455        24.5571 
 277   0.0000       0.907342        24.6900 
 278   0.0000       0.917004        24.9530 
 279   0.0000       0.918632        24.9972 
 280   0.0000       0.922234        25.0953 
 281   0.0000       0.934943        25.4411 
 282   0.0000       0.944881        25.7115 
 283   0.0000       0.950932        25.8762 
 284   0.0000       0.958354        26.0781 
 285   0.0000       0.963711        26.2239 
 286   0.0000       0.966697        26.3052 
 287   0.0000       0.981200        26.6998 
 288   0.0000       0.983528        26.7632 
 289   0.0000       0.989680        26.9306 
 290   0.0000       1.000218        27.2173 
 291   0.0000       1.014255        27.5993 
 292   0.0000       1.017527        27.6883 
 293   0.0000       1.026327        27.9278 
 294   0.0000       1.031194        28.0602 
 295   0.0000       1.038402        28.2564 
 296   0.0000       1.045921        28.4610 
 297   0.0000       1.054677        28.6992 
 298   0.0000       1.057321        28.7712 
 299   0.0000       1.069649        29.1066 
 300   0.0000       1.073747        29.2181 
 301   0.0000       1.083537        29.4845 
 302   0.0000       1.094816        29.7914 
 303   0.0000       1.099342        29.9146 
 304   0.0000       1.104606        30.0578 
 305   0.0000       1.108773        30.1713 
 306   0.0000       1.119009        30.4498 
 307   0.0000       1.125959        30.6389 
 308   0.0000       1.126842        30.6629 
 309   0.0000       1.134172        30.8624 
 310   0.0000       1.137875        30.9632 
 311   0.0000       1.144881        31.1538 
 312   0.0000       1.154712        31.4213 
 313   0.0000       1.157218        31.4895 
 314   0.0000       1.165509        31.7151 
 315   0.0000       1.172757        31.9123 
 316   0.0000       1.177658        32.0457 
 317   0.0000       1.181557        32.1518 
 318   0.0000       1.194018        32.4909 
 319   0.0000       1.200876        32.6775 
 320   0.0000       1.203485        32.7485 
 321   0.0000       1.210238        32.9323 
 322   0.0000       1.218265        33.1507 
 323   0.0000       1.226908        33.3859 
 324   0.0000       1.236857        33.6566 
 325   0.0000       1.242991        33.8235 
 326   0.0000       1.250557        34.0294 
 327   0.0000       1.256804        34.1994 
 328   0.0000       1.266056        34.4511 
 329   0.0000       1.267491        34.4902 
 330   0.0000       1.272209        34.6186 
 331   0.0000       1.277556        34.7641 
 332   0.0000       1.285422        34.9781 
 333   0.0000       1.293881        35.2083 
 334   0.0000       1.300872        35.3985 
 335   0.0000       1.306293        35.5460 
[...]
 19:    163.90   0.001330    6.72  0.002533  ( 0.029996  0.038171 -0.013261)
 20:    172.22   0.001163    5.88  0.002108  ( 0.031018  0.011889 -0.031691)
 21:    185.95   0.000900    4.55  0.001511  (-0.012031  0.036309  0.006933)
 22:    200.91   0.001377    6.96  0.002139  (-0.027006 -0.035443  0.012392)
 23:    229.78   0.002175   10.99  0.002954  (-0.008585 -0.041895 -0.033535)
 24:    246.89   0.000476    2.40  0.000601  (-0.002475  0.023618 -0.006114)
 25:    268.88   0.001712    8.65  0.001987  ( 0.022282  0.020311 -0.032826)
 26:    278.65   0.002831   14.31  0.003170  ( 0.033639  0.015226 -0.042508)
 27:    287.15   0.001353    6.84  0.001470  ( 0.020623  0.030635  0.010328)
 28:    296.55   0.000103    0.52  0.000108  ( 0.009942 -0.000947 -0.002887)
 29:    316.29   0.000160    0.81  0.000158  (-0.004706 -0.006862 -0.009429)
 30:    331.38   0.000086    0.43  0.000081  (-0.001942  0.001271  0.008698)
 31:    367.22   0.004196   21.20  0.003566  ( 0.055043  0.015765 -0.016948)
 32:    409.82   0.000206    1.04  0.000157  (-0.011040 -0.005786  0.001229)
 33:    439.31   0.000560    2.83  0.000398  (-0.012789  0.015233 -0.001586)
 34:    469.84   0.000471    2.38  0.000313  (-0.010503  0.010712 -0.009377)
 35:    501.22   0.001192    6.03  0.000742  ( 0.006157 -0.023331 -0.012653)
 36:    502.19   0.001651    8.34  0.001026  ( 0.011007  0.030071  0.000498)
 37:    531.23   0.003901   19.71  0.002291  ( 0.017110 -0.038035 -0.023496)
 38:    562.04   0.001132    5.72  0.000628  (-0.001546 -0.015258 -0.019830)
 39:    568.70   0.003693   18.66  0.002026  ( 0.042765  0.011357 -0.008280)
 40:    578.10   0.002649   13.38  0.001430  (-0.022916  0.026244  0.014692)
 41:    581.75   0.003140   15.87  0.001684  (-0.017247 -0.008290  0.036303)
 42:    623.15   0.003045   15.39  0.001525  ( 0.031408  0.023196  0.000754)
 43:    637.76   0.000900    4.55  0.000440  (-0.012216  0.016751 -0.003230)
 44:    657.27   0.000419    2.12  0.000199  ( 0.004996  0.013112 -0.001504)
 45:    695.84   0.016437   83.07  0.007372  (-0.062947  0.046165  0.035753)
 46:    722.54   0.002228   11.26  0.000962  (-0.023372  0.015109 -0.013706)
 47:    735.39   0.015765   79.67  0.006690  (-0.019155  0.077642  0.017170)
 48:    756.81   0.004845   24.49  0.001998  (-0.043342 -0.010927  0.000180)
 49:    770.54   0.016946   85.64  0.006863  (-0.019393 -0.080465 -0.003493)
 50:    786.25   0.009156   46.27  0.003634  ( 0.026472 -0.043753 -0.031922)
 51:    793.77   0.003020   15.26  0.001187  ( 0.014168 -0.004751 -0.031047)
 52:    802.78   0.000158    0.80  0.000061  (-0.004373  0.006493 -0.000083)
 53:    803.16   0.003379   17.08  0.001313  ( 0.026420 -0.007402 -0.023666)
 54:    844.56   0.000324    1.64  0.000120  ( 0.007312  0.006406  0.005027)
 55:    874.31   0.000204    1.03  0.000073  ( 0.004385 -0.007281  0.000858)
 56:    876.31   0.002484   12.55  0.000885  (-0.005985 -0.028498  0.006060)
 57:    885.99   0.001208    6.11  0.000426  ( 0.006258  0.008319 -0.017809)
 58:    914.50   0.002227   11.25  0.000760  ( 0.027525  0.001074  0.001009)
 59:    961.19   0.003369   17.02  0.001094  ( 0.021827  0.022209  0.011140)
 60:    967.35   0.002688   13.58  0.000867  (-0.025915  0.005384 -0.012907)
 61:    983.52   0.002163   10.93  0.000686  ( 0.022586  0.011279  0.006997)
 62:    993.58   0.000043    0.22  0.000013  (-0.003396  0.001076 -0.000833)
 63:   1012.14   0.000018    0.09  0.000006  ( 0.001580  0.001232 -0.001248)
 64:   1027.32   0.009600   48.51  0.002916  (-0.033616  0.038895  0.016526)
 65:   1051.52   0.000053    0.27  0.000016  ( 0.001849 -0.003381 -0.000981)
 66:   1056.98   0.001695    8.57  0.000501  ( 0.021800  0.005026  0.000025)
 67:   1064.40   0.001656    8.37  0.000485  (-0.021302 -0.005553  0.000933)
 68:   1071.96   0.013611   68.78  0.003962  ( 0.039644 -0.009221  0.048017)
 69:   1085.90   0.001356    6.85  0.000390  (-0.006447 -0.018375  0.003241)
 70:   1087.82   0.006167   31.16  0.001769  ( 0.003246  0.008141 -0.041136)
 71:   1134.14   0.005026   25.40  0.001383  (-0.010541  0.002629 -0.035564)
 72:   1145.47   0.008426   42.58  0.002296  (-0.009945  0.022740 -0.040982)
 73:   1169.01   0.003171   16.03  0.000847  ( 0.015354 -0.003245  0.024501)
 74:   1170.19   0.012622   63.78  0.003366  ( 0.044966 -0.004508  0.036382)
 75:   1171.01   0.000120    0.61  0.000032  (-0.000798  0.005607 -0.000065)
 76:   1175.93   0.000977    4.94  0.000259  ( 0.007181 -0.002846  0.014131)
 77:   1177.23   0.001411    7.13  0.000374  (-0.013792 -0.002949 -0.013238)
 78:   1203.93   0.004536   22.92  0.001176  (-0.024778 -0.015430 -0.017993)
 79:   1207.59   0.006486   32.78  0.001676  ( 0.020343  0.020298 -0.029158)
 80:   1214.33   0.006125   30.95  0.001574  ( 0.038177  0.003750 -0.010125)
 81:   1224.13   0.001823    9.21  0.000465  ( 0.014505  0.015395 -0.004164)
 82:   1229.11   0.015046   76.04  0.003820  (-0.021438 -0.055093  0.018037)
 83:   1238.20   0.001018    5.15  0.000257  ( 0.013741  0.007394  0.003626)
 84:   1270.19   0.071848  363.09  0.017652  (-0.119175 -0.045707  0.036880)
 85:   1290.15   0.043343  219.04  0.010484  ( 0.009244 -0.016769  0.100584)
 86:   1307.93   0.045237  228.61  0.010793  (-0.054935 -0.006784  0.087916)
 87:   1332.09   0.027555  139.25  0.006455  (-0.068475 -0.015920  0.038897)
 88:   1345.49   0.012398   62.66  0.002876  (-0.050258  0.015130 -0.010994)
 89:   1354.75   0.020392  103.05  0.004697  (-0.009730  0.006394 -0.067540)
 90:   1368.15   0.006994   35.35  0.001595  ( 0.026496 -0.029659  0.003693)
 91:   1379.01   0.009946   50.26  0.002251  ( 0.002142 -0.037669  0.028760)
 92:   1384.93   0.010918   55.17  0.002460  (-0.040857  0.016128 -0.023036)
 93:   1417.67   0.327098  1653.02  0.072002  (-0.249582  0.004262 -0.098451)
 94:   1429.82   0.005270   26.63  0.001150  ( 0.027643  0.018601 -0.006328)
 95:   1443.65   0.114667  579.48  0.024787  (-0.014819 -0.152265  0.037183)
 96:   1465.37   0.004932   24.92  0.001050  (-0.010545 -0.018883 -0.024136)
 97:   1465.90   0.009046   45.72  0.001926  ( 0.032297  0.019608 -0.022323)
 98:   1467.61   0.012938   65.38  0.002751  (-0.047047  0.012352  0.019623)
 99:   1472.49   0.006723   33.98  0.001425  ( 0.031229  0.017852 -0.011443)
100:   1474.83   0.003236   16.36  0.000685  ( 0.008866  0.024578 -0.001452)
101:   1483.14   0.004422   22.35  0.000930  ( 0.020036 -0.002292 -0.022884)
102:   1497.97   0.012073   61.01  0.002515  ( 0.001309 -0.000032 -0.050133)
103:   1530.05   0.014974   75.67  0.003054  ( 0.008365 -0.014237  0.052739)
104:   1538.51   0.031891  161.17  0.006469  ( 0.020929 -0.000803 -0.077653)
105:   1541.21   0.004545   22.97  0.000920  ( 0.023913  0.018655 -0.000615)
106:   1646.73   0.000192    0.97  0.000036  ( 0.003858  0.004560 -0.000837)
107:   1647.40   0.007948   40.17  0.001506  (-0.013349  0.000602 -0.036429)
108:   1664.27   0.012440   62.87  0.002333  (-0.027415  0.003664  0.039593)
109:   1697.45   0.014595   73.76  0.002683  ( 0.031775  0.039769 -0.009587)
110:   1798.63   0.100321  506.98  0.017406  ( 0.030043 -0.110585  0.065377)
111:   2288.56   0.094050  475.29  0.012824  (-0.058778  0.080264 -0.054104)
112:   3040.81   0.012046   60.88  0.001236  (-0.016289  0.006788 -0.030411)
113:   3076.12   0.005746   29.04  0.000583  ( 0.023540 -0.002037 -0.004958)
114:   3093.28   0.000831    4.20  0.000084  ( 0.002966  0.007598 -0.004157)
115:   3113.94   0.006665   33.68  0.000668  ( 0.005688  0.025048  0.002860)
116:   3163.99   0.002482   12.54  0.000245  (-0.000284  0.010729  0.011384)
117:   3168.90   0.003589   18.14  0.000353  (-0.013269  0.001077  0.013273)
118:   3179.55   0.004064   20.54  0.000399  (-0.016247  0.006751 -0.009450)
119:   3187.93   0.000618    3.12  0.000060  ( 0.005872 -0.001450  0.004890)
120:   3194.63   0.001745    8.82  0.000170  (-0.003016 -0.010167  0.007614)
121:   3197.86   0.001593    8.05  0.000155  (-0.011824  0.002295 -0.003225)
122:   3216.11   0.002507   12.67  0.000243  ( 0.008547 -0.000211 -0.013046)
123:   3223.33   0.000011    0.05  0.000001  ( 0.000470  0.000732 -0.000521)
124:   3233.45   0.000234    1.18  0.000023  (-0.002758  0.000934 -0.003753)
125:   3241.96   0.000132    0.67  0.000013  (-0.001882 -0.001926 -0.002333)
126:   3244.39   0.000968    4.89  0.000093  (-0.005261 -0.007366  0.003347)
127:   3260.47   0.002570   12.99  0.000246  ( 0.003885 -0.005963  0.013975)
128:   3272.44   0.002578   13.03  0.000246  ( 0.010401  0.001969  0.011566)

* The epsilon (eps) is given for a Dirac delta lineshape.
** The dipole moment derivative (T) already includes vibrational overlap.

The first frequency considered to be a vibration is 6
The total number of vibrations considered is 123


--------------------------
THERMOCHEMISTRY AT 298.15K
--------------------------

Temperature         ... 298.15 K
Pressure            ... 1.00 atm
Total Mass          ... 355.35 AMU

Throughout the following assumptions are being made:
  (1) The electronic state is orbitally nondegenerate
  (2) There are no thermally accessible electronically excited states
  (3) Hindered rotations indicated by low frequency modes are not
      treated as such but are treated as vibrations and this may
      cause some error
  (4) All equations used are the standard statistical mechanics
      equations for an ideal gas
  (5) All vibrations are strictly harmonic

freq.      10.74  E(vib)   ...       0.58 
freq.      35.47  E(vib)   ...       0.54 
freq.      43.26  E(vib)   ...       0.53 
freq.      46.51  E(vib)   ...       0.53 
freq.      61.50  E(vib)   ...       0.51 
freq.      75.71  E(vib)   ...       0.49 
freq.      85.03  E(vib)   ...       0.48 
freq.      90.91  E(vib)   ...       0.47 
freq.     102.46  E(vib)   ...       0.46 
freq.     108.36  E(vib)   ...       0.45 
freq.     121.31  E(vib)   ...       0.44 
freq.     149.85  E(vib)   ...       0.40 
freq.     152.36  E(vib)   ...       0.40 
freq.     163.90  E(vib)   ...       0.39 
freq.     172.22  E(vib)   ...       0.38 
freq.     185.95  E(vib)   ...       0.37 
freq.     200.91  E(vib)   ...       0.35 
freq.     229.78  E(vib)   ...       0.32 
freq.     246.89  E(vib)   ...       0.31 
freq.     268.88  E(vib)   ...       0.29 
freq.     278.65  E(vib)   ...       0.28 
freq.     287.15  E(vib)   ...       0.27 
freq.     296.55  E(vib)   ...       0.27 
freq.     316.29  E(vib)   ...       0.25 
freq.     331.38  E(vib)   ...       0.24 
freq.     367.22  E(vib)   ...       0.22 
freq.     409.82  E(vib)   ...       0.19 
freq.     439.31  E(vib)   ...       0.17 
freq.     469.84  E(vib)   ...       0.16 
freq.     501.22  E(vib)   ...       0.14 
freq.     502.19  E(vib)   ...       0.14 
freq.     531.23  E(vib)   ...       0.13 
freq.     562.04  E(vib)   ...       0.11 
freq.     568.70  E(vib)   ...       0.11 
freq.     578.10  E(vib)   ...       0.11 
freq.     581.75  E(vib)   ...       0.11 
freq.     623.15  E(vib)   ...       0.09 
freq.     637.76  E(vib)   ...       0.09 
freq.     657.27  E(vib)   ...       0.08 
freq.     695.84  E(vib)   ...       0.07 
freq.     722.54  E(vib)   ...       0.07 
freq.     735.39  E(vib)   ...       0.06 
freq.     756.81  E(vib)   ...       0.06 
freq.     770.54  E(vib)   ...       0.05 
freq.     786.25  E(vib)   ...       0.05 
freq.     793.77  E(vib)   ...       0.05 
freq.     802.78  E(vib)   ...       0.05 
freq.     803.16  E(vib)   ...       0.05 
freq.     844.56  E(vib)   ...       0.04 
freq.     874.31  E(vib)   ...       0.04 
freq.     876.31  E(vib)   ...       0.04 
freq.     885.99  E(vib)   ...       0.04 
freq.     914.50  E(vib)   ...       0.03 
freq.     961.19  E(vib)   ...       0.03 
freq.     967.35  E(vib)   ...       0.03 
freq.     983.52  E(vib)   ...       0.02 
freq.     993.58  E(vib)   ...       0.02 
freq.    1012.14  E(vib)   ...       0.02 
freq.    1027.32  E(vib)   ...       0.02 
freq.    1051.52  E(vib)   ...       0.02 
freq.    1056.98  E(vib)   ...       0.02 
freq.    1064.40  E(vib)   ...       0.02 
freq.    1071.96  E(vib)   ...       0.02 
freq.    1085.90  E(vib)   ...       0.02 
freq.    1087.82  E(vib)   ...       0.02 
freq.    1134.14  E(vib)   ...       0.01 
freq.    1145.47  E(vib)   ...       0.01 
freq.    1169.01  E(vib)   ...       0.01 
freq.    1170.19  E(vib)   ...       0.01 
freq.    1171.01  E(vib)   ...       0.01 
freq.    1175.93  E(vib)   ...       0.01 
freq.    1177.23  E(vib)   ...       0.01 
freq.    1203.93  E(vib)   ...       0.01 
freq.    1207.59  E(vib)   ...       0.01 
freq.    1214.33  E(vib)   ...       0.01 
freq.    1224.13  E(vib)   ...       0.01 
freq.    1229.11  E(vib)   ...       0.01 
freq.    1238.20  E(vib)   ...       0.01 
freq.    1270.19  E(vib)   ...       0.01 
freq.    1290.15  E(vib)   ...       0.01 
freq.    1307.93  E(vib)   ...       0.01 
freq.    1332.09  E(vib)   ...       0.01 
freq.    1345.49  E(vib)   ...       0.01 
freq.    1354.75  E(vib)   ...       0.01 
freq.    1368.15  E(vib)   ...       0.01 
freq.    1379.01  E(vib)   ...       0.01 
freq.    1384.93  E(vib)   ...       0.00 
freq.    1417.67  E(vib)   ...       0.00 
freq.    1429.82  E(vib)   ...       0.00 
freq.    1443.65  E(vib)   ...       0.00 
freq.    1465.37  E(vib)   ...       0.00 
freq.    1465.90  E(vib)   ...       0.00 
freq.    1467.61  E(vib)   ...       0.00 
freq.    1472.49  E(vib)   ...       0.00 
freq.    1474.83  E(vib)   ...       0.00 
freq.    1483.14  E(vib)   ...       0.00 
freq.    1497.97  E(vib)   ...       0.00 
freq.    1530.05  E(vib)   ...       0.00 
freq.    1538.51  E(vib)   ...       0.00 
freq.    1541.21  E(vib)   ...       0.00 
freq.    1646.73  E(vib)   ...       0.00 
freq.    1647.40  E(vib)   ...       0.00 
freq.    1664.27  E(vib)   ...       0.00 
freq.    1697.45  E(vib)   ...       0.00 
freq.    1798.63  E(vib)   ...       0.00 
freq.    2288.56  E(vib)   ...       0.00 
freq.    3040.81  E(vib)   ...       0.00 
freq.    3076.12  E(vib)   ...       0.00 
freq.    3093.28  E(vib)   ...       0.00 
freq.    3113.94  E(vib)   ...       0.00 
freq.    3163.99  E(vib)   ...       0.00 
freq.    3168.90  E(vib)   ...       0.00 
freq.    3179.55  E(vib)   ...       0.00 
freq.    3187.93  E(vib)   ...       0.00 
freq.    3194.63  E(vib)   ...       0.00 
freq.    3197.86  E(vib)   ...       0.00 
freq.    3216.11  E(vib)   ...       0.00 
freq.    3223.33  E(vib)   ...       0.00 
freq.    3233.45  E(vib)   ...       0.00 
freq.    3241.96  E(vib)   ...       0.00 
freq.    3244.39  E(vib)   ...       0.00 
freq.    3260.47  E(vib)   ...       0.00 
freq.    3272.44  E(vib)   ...       0.00 

------------
INNER ENERGY
------------

The inner energy is: U= E(el) + E(ZPE) + E(vib) + E(rot) + E(trans)
    E(el)   - is the total energy from the electronic structure calculation
              = E(kin-el) + E(nuc-el) + E(el-el) + E(nuc-nuc)
    E(ZPE)  - the the zero temperature vibrational energy from the frequency calculation
    E(vib)  - the the finite temperature correction to E(ZPE) due to population
              of excited vibrational states
    E(rot)  - is the rotational thermal energy
    E(trans)- is the translational thermal energy

Summary of contributions to the inner energy U:
Electronic energy                ...  -1235.53932173 Eh
Zero point energy                ...      0.33418765 Eh     209.71 kcal/mol
Thermal vibrational correction   ...      0.02077587 Eh      13.04 kcal/mol
Thermal rotational correction    ...      0.00141627 Eh       0.89 kcal/mol
Thermal translational correction ...      0.00141627 Eh       0.89 kcal/mol
-----------------------------------------------------------------------
Total thermal energy                  -1235.18152567 Eh


Summary of corrections to the electronic energy:
(perhaps to be used in another calculation)
Total thermal correction                  0.02360841 Eh      14.81 kcal/mol
Non-thermal (ZPE) correction              0.33418765 Eh     209.71 kcal/mol
-----------------------------------------------------------------------
Total correction                          0.35779606 Eh     224.52 kcal/mol


--------
ENTHALPY
--------

The enthalpy is H = U + kB*T
                kB is Boltzmann's constant
Total free energy                 ...  -1235.18152567 Eh 
Thermal Enthalpy correction       ...      0.00094421 Eh       0.59 kcal/mol
-----------------------------------------------------------------------
Total Enthalpy                    ...  -1235.18058146 Eh


Note: Only C1 symmetry has been detected, increase convergence thresholds 
      if your molecule has a higher symmetry. Symmetry factor of 1.0 is   
      used for the rotational entropy correction. 
 

Note: Rotational entropy computed according to Herzberg 
Infrared and Raman Spectra, Chapter V,1, Van Nostrand Reinhold, 1945 
Point Group:  C1, Symmetry Number:   1  
Rotational constants in cm-1:     0.008820     0.007327     0.005278 

Vibrational entropy computed according to the QRRHO of S. Grimme
Chem.Eur.J. 2012 18 9955


-------
ENTROPY
-------

The entropy contributions are T*S = T*(S(el)+S(vib)+S(rot)+S(trans))
     S(el)   - electronic entropy
     S(vib)  - vibrational entropy
     S(rot)  - rotational entropy
     S(trans)- translational entropy
The entropies will be listed as multiplied by the temperature to get
units of energy

Electronic entropy                ...      0.00000000 Eh      0.00 kcal/mol
Vibrational entropy               ...      0.03768214 Eh     23.65 kcal/mol
Rotational entropy                ...      0.01654077 Eh     10.38 kcal/mol
Translational entropy             ...      0.02066698 Eh     12.97 kcal/mol
-----------------------------------------------------------------------
Final entropy term                ...      0.07488989 Eh     46.99 kcal/mol

In case the symmetry of your molecule has not been determined correctly
or in case you have a reason to use a different symmetry number we print 
out the resulting rotational entropy values for sn=1,12 :
 --------------------------------------------------------
|  sn= 1 | S(rot)=       0.01654077 Eh     10.38 kcal/mol|
|  sn= 2 | S(rot)=       0.01588632 Eh      9.97 kcal/mol|
|  sn= 3 | S(rot)=       0.01550348 Eh      9.73 kcal/mol|
|  sn= 4 | S(rot)=       0.01523186 Eh      9.56 kcal/mol|
|  sn= 5 | S(rot)=       0.01502117 Eh      9.43 kcal/mol|
|  sn= 6 | S(rot)=       0.01484903 Eh      9.32 kcal/mol|
|  sn= 7 | S(rot)=       0.01470348 Eh      9.23 kcal/mol|
|  sn= 8 | S(rot)=       0.01457740 Eh      9.15 kcal/mol|
|  sn= 9 | S(rot)=       0.01446619 Eh      9.08 kcal/mol|
|  sn=10 | S(rot)=       0.01436671 Eh      9.02 kcal/mol|
|  sn=11 | S(rot)=       0.01427672 Eh      8.96 kcal/mol|
|  sn=12 | S(rot)=       0.01419457 Eh      8.91 kcal/mol|
 --------------------------------------------------------


-------------------
GIBBS FREE ENERGY
-------------------

The Gibbs free energy is G = H - T*S

Total enthalpy                    ...  -1235.18058146 Eh 
Total entropy correction          ...     -0.07488989 Eh    -46.99 kcal/mol
-----------------------------------------------------------------------
Final Gibbs free energy         ...  -1235.25547136 Eh

For completeness - the Gibbs free energy minus the electronic energy
G-E(el)                           ...      0.28385038 Eh    178.12 kcal/mol


Timings for individual modules:

Sum of individual times         ...     5834.188 sec (=  97.236 min)
GTO integral calculation        ...       36.496 sec (=   0.608 min)   0.6 %
SCF iterations                  ...     1879.322 sec (=  31.322 min)  32.2 %
SCF Gradient evaluation         ...      477.233 sec (=   7.954 min)   8.2 %
Geometry relaxation             ...        2.049 sec (=   0.034 min)   0.0 %
Analytical frequency calculation...     3439.088 sec (=  57.318 min)  58.9 %
                             ****ORCA TERMINATED NORMALLY****
TOTAL RUN TIME: 0 days 1 hours 37 minutes 51 seconds 442 msec
