
                                 *****************
                                 * O   R   C   A *
                                 *****************

                                            #,                                       
                                            ###                                      
                                            ####                                     
                                            #####                                    
                                            ######                                   
                                           ########,                                 
                                     ,,################,,,,,                         
                               ,,#################################,,                 
                          ,,##########################################,,             
                       ,#########################################, ''#####,          
                    ,#############################################,,   '####,        
                  ,##################################################,,,,####,       
                ,###########''''           ''''###############################       
              ,#####''   ,,,,##########,,,,          '''####'''          '####       
            ,##' ,,,,###########################,,,                        '##       
           ' ,,###''''                  '''############,,,                           
         ,,##''                                '''############,,,,        ,,,,,,###''
      ,#''                                            '''#######################'''  
     '                                                          ''''####''''         
             ,#######,   #######,   ,#######,      ##                                
            ,#'     '#,  ##    ##  ,#'     '#,    #''#        ######   ,####,        
            ##       ##  ##   ,#'  ##            #'  '#       #        #'  '#        
            ##       ##  #######   ##           ,######,      #####,   #    #        
            '#,     ,#'  ##    ##  '#,     ,#' ,#      #,         ##   #,  ,#        
             '#######'   ##     ##  '#######'  #'      '#     #####' # '####'        



                  #######################################################
                  #                        -***-                        #
                  #          Department of theory and spectroscopy      #
                  #    Directorship and core code : Frank Neese         #
                  #        Max Planck Institute fuer Kohlenforschung    #
                  #                Kaiser Wilhelm Platz 1               #
                  #                 D-45470 Muelheim/Ruhr               #
                  #                      Germany                        #
                  #                                                     #
                  #                  All rights reserved                #
                  #                        -***-                        #
                  #######################################################


                         Program Version 5.0.4 -  RELEASE  -


 With contributions from (in alphabetic order):
   Daniel Aravena         : Magnetic Suceptibility
   Michael Atanasov       : Ab Initio Ligand Field Theory (pilot matlab implementation)
   Alexander A. Auer      : GIAO ZORA, VPT2 properties, NMR spectrum
   Ute Becker             : Parallelization
   Giovanni Bistoni       : ED, misc. LED, open-shell LED, HFLD
   Martin Brehm           : Molecular dynamics
   Dmytro Bykov           : SCF Hessian
   Vijay G. Chilkuri      : MRCI spin determinant printing, contributions to CSF-ICE
   Dipayan Datta          : RHF DLPNO-CCSD density
   Achintya Kumar Dutta   : EOM-CC, STEOM-CC
   Dmitry Ganyushin       : Spin-Orbit,Spin-Spin,Magnetic field MRCI
   Miquel Garcia          : C-PCM and meta-GGA Hessian, CC/C-PCM, Gaussian charge scheme
   Yang Guo               : DLPNO-NEVPT2, F12-NEVPT2, CIM, IAO-localization
   Andreas Hansen         : Spin unrestricted coupled pair/coupled cluster methods
   Benjamin Helmich-Paris : MC-RPA, TRAH-SCF, COSX integrals
   Lee Huntington         : MR-EOM, pCC
   Robert Izsak           : Overlap fitted RIJCOSX, COSX-SCS-MP3, EOM
   Marcus Kettner         : VPT2
   Christian Kollmar      : KDIIS, OOCD, Brueckner-CCSD(T), CCSD density, CASPT2, CASPT2-K
   Simone Kossmann        : Meta GGA functionals, TD-DFT gradient, OOMP2, MP2 Hessian
   Martin Krupicka        : Initial AUTO-CI
   Lucas Lang             : DCDCAS
   Marvin Lechner         : AUTO-CI (C++ implementation), FIC-MRCC
   Dagmar Lenk            : GEPOL surface, SMD
   Dimitrios Liakos       : Extrapolation schemes; Compound Job, initial MDCI parallelization
   Dimitrios Manganas     : Further ROCIS development; embedding schemes
   Dimitrios Pantazis     : SARC Basis sets
   Anastasios Papadopoulos: AUTO-CI, single reference methods and gradients
   Taras Petrenko         : DFT Hessian,TD-DFT gradient, ASA, ECA, R-Raman, ABS, FL, XAS/XES, NRVS
   Peter Pinski           : DLPNO-MP2, DLPNO-MP2 Gradient
   Christoph Reimann      : Effective Core Potentials
   Marius Retegan         : Local ZFS, SOC
   Christoph Riplinger    : Optimizer, TS searches, QM/MM, DLPNO-CCSD(T), (RO)-DLPNO pert. Triples
   Tobias Risthaus        : Range-separated hybrids, TD-DFT gradient, RPA, STAB
   Michael Roemelt        : Original ROCIS implementation
   Masaaki Saitow         : Open-shell DLPNO-CCSD energy and density
   Barbara Sandhoefer     : DKH picture change effects
   Avijit Sen             : IP-ROCIS
   Kantharuban Sivalingam : CASSCF convergence, NEVPT2, FIC-MRCI
   Bernardo de Souza      : ESD, SOC TD-DFT
   Georgi Stoychev        : AutoAux, RI-MP2 NMR, DLPNO-MP2 response
   Willem Van den Heuvel  : Paramagnetic NMR
   Boris Wezisla          : Elementary symmetry handling
   Frank Wennmohs         : Technical directorship


 We gratefully acknowledge several colleagues who have allowed us to
 interface, adapt or use parts of their codes:
   Stefan Grimme, W. Hujo, H. Kruse, P. Pracht,  : VdW corrections, initial TS optimization,
                  C. Bannwarth, S. Ehlert          DFT functionals, gCP, sTDA/sTD-DF
   Ed Valeev, F. Pavosevic, A. Kumar             : LibInt (2-el integral package), F12 methods
   Garnet Chan, S. Sharma, J. Yang, R. Olivares  : DMRG
   Ulf Ekstrom                                   : XCFun DFT Library
   Mihaly Kallay                                 : mrcc  (arbitrary order and MRCC methods)
   Jiri Pittner, Ondrej Demel                    : Mk-CCSD
   Frank Weinhold                                : gennbo (NPA and NBO analysis)
   Christopher J. Cramer and Donald G. Truhlar   : smd solvation model
   Lars Goerigk                                  : TD-DFT with DH, B97 family of functionals
   V. Asgeirsson, H. Jonsson                     : NEB implementation
   FAccTs GmbH                                   : IRC, NEB, NEB-TS, DLPNO-Multilevel, CI-OPT
                                                   MM, QMMM, 2- and 3-layer-ONIOM, Crystal-QMMM,
                                                   LR-CPCM, SF, NACMEs, symmetry and pop. for TD-DFT,
                                                   nearIR, NL-DFT gradient (VV10), updates on ESD,
                                                   ML-optimized integration grids
   S Lehtola, MJT Oliveira, MAL Marques          : LibXC Library
   Liviu Ungur et al                             : ANISO software


 Your calculation uses the libint2 library for the computation of 2-el integrals
 For citations please refer to: http://libint.valeyev.net

 Your ORCA version has been built with support for libXC version: 5.1.0
 For citations please refer to: https://tddft.org/programs/libxc/

 This ORCA versions uses:
   CBLAS   interface :  Fast vector & matrix operations
   LAPACKE interface :  Fast linear algebra routines
   SCALAPACK package :  Parallel linear algebra routines
   Shared memory     :  Shared parallel matrices
   BLAS/LAPACK       :  OpenBLAS 0.3.15  USE64BITINT DYNAMIC_ARCH NO_AFFINITY Haswell SINGLE_THREADED
        Core in use  :  Haswell
   Copyright (c) 2011-2014, The OpenBLAS Project


Your calculation utilizes the atom-pairwise dispersion correction
with the Becke-Johnson damping scheme (D3BJ)
Cite in your paper:
S.Grimme, S.Ehrlich, L.Goerigk, J Comput Chem, (2011), 32, 1456–1465 
S.Grimme, J.Antony, S.Ehrlich and H.Krieg, J.Chem.Phys., 132, (2010), 154104 
   

================================================================================

----- Orbital basis set information -----
Your calculation utilizes the basis: def2-TZVP
   F. Weigend and R. Ahlrichs, Phys. Chem. Chem. Phys. 7, 3297 (2005).

----- AuxJ basis set information -----
Your calculation utilizes the auxiliary basis: def2/J
   F. Weigend, Phys. Chem. Chem. Phys. 8, 1057 (2006).

================================================================================
                                        WARNINGS
                       Please study these warnings very carefully!
================================================================================


WARNING: Geometry Optimization
  ===> : Switching off AutoStart
         For restart on a previous wavefunction, please use MOREAD

INFO   : the flag for use of the SHARK integral package has been found!

================================================================================
                                       INPUT FILE
================================================================================
NAME = IM_CHCHNMe2/IM_CHCHNMe2.inp
|  1> %pal nprocs 24 end
|  2> ! PBE0 D3BJ def2-TZVP TightSCF OPT FREQ TightOpt
|  3> ! CPCM(dmso)
|  4> %scf
|  5> MaxIter 800
|  6> end
|  7> 
|  8> %geom
|  9> MaxIter 800
| 10> MaxStep 0.15
| 11> end
| 12> 
| 13> *xyz 0 1
| 14> C      -2.61666000      3.93528200     -0.59968400
| 15> C      -2.84945100      3.01424300     -1.61934500
| 16> C      -1.91395900      2.02662900     -1.86427000
| 17> N      -0.78253200      1.96274000     -1.13479600
| 18> C      -0.53934200      2.83896400     -0.13853800
| 19> C      -1.44409900      3.84302500      0.14776900
| 20> C       0.12891800      0.84340000     -1.36076500
| 21> C       1.53739500      1.34170600     -1.60204400
| 22> O       1.89678500      2.49246800     -1.55524900
| 23> O       2.32570300      0.32075900     -1.88944900
| 24> C       3.70164300      0.61370100     -2.11937400
| 25> H      -3.34766500      4.71788800     -0.38470500
| 26> H      -2.03969800      1.24083000     -2.60962900
| 27> H       0.38977800      2.70742700      0.41348100
| 28> H      -1.22507100      4.53713600      0.95977400
| 29> H      -0.23023100      0.35831300     -2.27854500
| 30> H       4.14589600      1.08374800     -1.23073300
| 31> H       3.81174300      1.28673200     -2.98107300
| 32> C      -0.08790300     -1.63105700     -0.78659000
| 33> C       0.06525300     -0.24595300     -0.22614500
| 34> C      -0.89850400      0.08923100      0.89327400
| 35> C      -2.26729300     -0.16930400      0.79091800
| 36> C      -3.14175600      0.14037300      1.83232000
| 37> C      -2.64046500      0.70873400      3.00173100
| 38> C      -1.27745000      0.97353600      3.13390400
| 39> C      -0.40705700      0.67356500      2.07972600
| 40> O       0.92031800      0.93445800      2.11118400
| 41> C       1.48270800      1.51072900      3.26806000
| 42> N      -0.98970700     -1.88679100     -1.74714300
| 43> O      -1.11448000     -3.03566900     -2.25611800
| 44> H       1.06003400     -0.23038800      0.23368400
| 45> H      -2.63005900     -0.60481600     -0.14363000
| 46> H      -4.21018100     -0.06327200      1.73038900
| 47> H      -3.31272400      0.95366300      3.82810400
| 48> H      -0.90088000      1.41906000      4.05492000
| 49> H       1.04454900      2.50070300      3.47648900
| 50> H       2.55471400      1.62521000      3.06725100
| 51> H       1.34474800      0.86141700      4.14804300
| 52> O      -1.75266900     -0.94307500     -2.18178300
| 53> H       4.18497100     -0.34757900     -2.32280500
| 54> H      -3.75736300      3.04670200     -2.22271000
| 55> C       0.70891400     -2.71996900     -0.27270600
| 56> H       0.57159800     -3.66350900     -0.80118400
| 57> C       1.56668000     -2.64530600      0.78042800
| 58> H       1.66777100     -1.71912400      1.35711800
| 59> N       2.40308700     -3.64673600      1.22550500
| 60> C       2.78724300     -3.62395400      2.61538400
| 61> H       2.01657400     -4.05821600      3.28510200
| 62> H       3.71960000     -4.19088600      2.76028200
| 63> H       2.96328000     -2.58610000      2.93541500
| 64> C       2.31360300     -4.94118700      0.60953800
| 65> H       1.34795300     -5.45000600      0.81300500
| 66> H       2.41524600     -4.85267900     -0.48355500
| 67> H       3.12518700     -5.58256400      0.98088500
| 68> *
| 69> 
| 70>                          ****END OF INPUT****
================================================================================

                       *****************************
                       * Geometry Optimization Run *
                       *****************************

Geometry optimization settings:
Update method            Update   .... BFGS
Choice of coordinates    CoordSys .... Z-matrix Internals
Initial Hessian          InHess   .... Almoef's Model

Convergence Tolerances:
Energy Change            TolE     ....  1.0000e-06 Eh
Max. Gradient            TolMAXG  ....  1.0000e-04 Eh/bohr
RMS Gradient             TolRMSG  ....  3.0000e-05 Eh/bohr
Max. Displacement        TolMAXD  ....  1.0000e-03 bohr
RMS Displacement         TolRMSD  ....  6.0000e-04 bohr
Strict Convergence                ....  False
------------------------------------------------------------------------------
                        ORCA OPTIMIZATION COORDINATE SETUP
------------------------------------------------------------------------------

The optimization will be done in new redundant internal coordinates
Making redundant internal coordinates   ...  (new redundants) done
Evaluating the initial hessian          ...  (Almloef) done
Evaluating the coordinates              ...  done
Calculating the B-matrix                .... done
Calculating the G-matrix                .... done
Diagonalizing the G-matrix              .... done
Small eigenvalue found = 2.820e-03
Small eigenvalue found = 3.256e-03
Small eigenvalue found = 5.559e-03
Small eigenvalue found = 7.901e-03
Small eigenvalue found = 1.057e-02
Small eigenvalue found = 1.134e-02
Small eigenvalue found = 1.614e-02
Small eigenvalue found = 1.864e-02
Small eigenvalue found = 2.289e-02
Small eigenvalue found = 2.953e-02
The first mode is                       ....  111
The number of degrees of freedom        ....  156

    -----------------------------------------------------------------
                    Redundant Internal Coordinates


    -----------------------------------------------------------------
         Definition                    Initial Value    Approx d2E/dq
    -----------------------------------------------------------------
      1. B(C   1,C   0)                  1.3936         0.616513   
      2. B(C   2,C   1)                  1.3822         0.642926   
      3. B(N   3,C   2)                  1.3477         0.653635   
      4. B(C   4,N   3)                  1.3489         0.650881   
      5. B(C   5,C   4)                  1.3816         0.644483   
      6. B(C   5,C   0)                  1.3936         0.616608   
      7. B(C   6,N   3)                  1.4611         0.431011   
      8. B(C   7,C   6)                  1.5134         0.397088   
      9. B(O   8,C   7)                  1.2065         1.098154   
     10. B(O   9,C   7)                  1.3215         0.719717   
     11. B(C  10,O   9)                  1.4254         0.491277   
     12. B(H  11,C   0)                  1.0923         0.357108   
     13. B(H  12,C   2)                  1.0903         0.359645   
     14. B(H  13,C   4)                  1.0887         0.361810   
     15. B(H  14,C   5)                  1.0905         0.359484   
     16. B(H  15,C   6)                  1.0985         0.349079   
     17. B(H  16,C  10)                  1.0991         0.348280   
     18. B(H  17,C  10)                  1.0989         0.348495   
     19. B(C  19,C  18)                  1.5020         0.414014   
     20. B(C  19,C   6)                  1.5742         0.317584   
     21. B(C  20,C  19)                  1.5147         0.395193   
     22. B(C  21,C  20)                  1.3967         0.609502   
     23. B(C  22,C  21)                  1.3947         0.614170   
     24. B(C  23,C  22)                  1.3935         0.616809   
     25. B(C  24,C  23)                  1.3948         0.613930   
     26. B(C  25,C  24)                  1.3996         0.603164   
     27. B(C  25,C  20)                  1.4109         0.578624   
     28. B(O  26,C  25)                  1.3531         0.640750   
     29. B(C  27,O  26)                  1.4095         0.520883   
     30. B(N  28,C  18)                  1.3421         0.667190   
     31. B(O  29,N  28)                  1.2628         0.799884   
     32. B(H  30,C  19)                  1.0960         0.352215   
     33. B(H  31,C  21)                  1.0930         0.356153   
     34. B(H  32,C  22)                  1.0924         0.356906   
     35. B(H  33,C  23)                  1.0931         0.356054   
     36. B(H  34,C  24)                  1.0902         0.359817   
     37. B(H  35,C  27)                  1.1025         0.343956   
     38. B(H  36,C  27)                  1.0966         0.351418   
     39. B(H  37,C  27)                  1.1023         0.344223   
     40. B(O  38,N  28)                  1.2890         0.726254   
     41. B(H  39,C  10)                  1.0950         0.353532   
     42. B(H  40,C   1)                  1.0906         0.359308   
     43. B(C  41,C  18)                  1.4439         0.512641   
     44. B(H  42,C  41)                  1.0901         0.359910   
     45. B(C  43,C  41)                  1.3603         0.696812   
     46. B(H  44,C  43)                  1.0957         0.352611   
     47. B(N  45,C  43)                  1.3786         0.583535   
     48. B(C  46,N  45)                  1.4422         0.461997   
     49. B(H  47,C  46)                  1.1095         0.335181   
     50. B(H  48,C  46)                  1.1008         0.346129   
     51. B(H  49,H  37)                  3.9969         0.000002   
     52. B(H  49,C  46)                  1.1002         0.346793   
     53. B(C  50,N  45)                  1.4363         0.472029   
     54. B(H  51,C  50)                  1.1103         0.334217   
     55. B(H  52,C  50)                  1.1014         0.345368   
     56. B(H  53,C  50)                  1.0991         0.348313   
     57. A(C   1,C   0,C   5)          119.2892         0.433198   
     58. A(C   1,C   0,H  11)          120.3803         0.352075   
     59. A(C   5,C   0,H  11)          120.3297         0.352084   
     60. A(C   0,C   1,C   2)          119.2625         0.436470   
     61. A(C   0,C   1,H  40)          121.6125         0.352441   
     62. A(C   2,C   1,H  40)          119.1218         0.354954   
     63. A(N   3,C   2,H  12)          115.6364         0.353810   
     64. A(C   1,C   2,H  12)          123.9194         0.355011   
     65. A(C   1,C   2,N   3)          120.4077         0.438201   
     66. A(C   4,N   3,C   6)          119.9620         0.405056   
     67. A(C   2,N   3,C   4)          121.3548         0.436293   
     68. A(C   2,N   3,C   6)          118.4449         0.405358   
     69. A(C   5,C   4,H  13)          122.7937         0.355518   
     70. A(N   3,C   4,C   5)          120.4706         0.438059   
     71. A(N   3,C   4,H  13)          116.7356         0.353917   
     72. A(C   0,C   5,C   4)          119.2077         0.436672   
     73. A(C   0,C   5,H  14)          121.7524         0.352479   
     74. A(C   4,C   5,H  14)          119.0374         0.355129   
     75. A(H  15,C   6,C  19)          106.4626         0.314237   
     76. A(C   7,C   6,C  19)          112.3587         0.357131   
     77. A(N   3,C   6,C  19)          113.1693         0.359904   
     78. A(N   3,C   6,C   7)          110.6699         0.373955   
     79. A(C   7,C   6,H  15)          108.4509         0.325920   
     80. A(N   3,C   6,H  15)          105.2824         0.328371   
     81. A(C   6,C   7,O   9)          109.6010         0.409019   
     82. A(C   6,C   7,O   8)          125.8106         0.441135   
     83. A(O   8,C   7,O   9)          124.5849         0.488557   
     84. A(C   7,O   9,C  10)          116.8797         0.422051   
     85. A(O   9,C  10,H  39)          105.9988         0.336276   
     86. A(H  16,C  10,H  17)          109.3642         0.287841   
     87. A(O   9,C  10,H  17)          110.4296         0.335474   
     88. A(O   9,C  10,H  16)          110.3430         0.335439   
     89. A(H  17,C  10,H  39)          110.3500         0.288515   
     90. A(H  16,C  10,H  39)          110.3184         0.288488   
     91. A(C  19,C  18,N  28)          120.7484         0.406563   
     92. A(N  28,C  18,C  41)          118.8051         0.422299   
     93. A(C  19,C  18,C  41)          120.4238         0.390660   
     94. A(C   6,C  19,C  20)          113.9082         0.356840   
     95. A(C   6,C  19,C  18)          111.9210         0.359676   
     96. A(C  20,C  19,H  30)          105.3252         0.326143   
     97. A(C  18,C  19,H  30)          105.1998         0.328653   
     98. A(C   6,C  19,H  30)          104.8242         0.314694   
     99. A(C  18,C  19,C  20)          114.5157         0.373407   
    100. A(C  21,C  20,C  25)          118.6615         0.427403   
    101. A(C  19,C  20,C  25)          119.4390         0.395793   
    102. A(C  19,C  20,C  21)          121.8988         0.399424   
    103. A(C  22,C  21,H  31)          121.2534         0.351689   
    104. A(C  20,C  21,H  31)          117.4947         0.351236   
    105. A(C  20,C  21,C  22)          121.2407         0.432001   
    106. A(C  23,C  22,H  32)          120.4088         0.352070   
    107. A(C  21,C  22,H  32)          120.1433         0.351815   
    108. A(C  21,C  22,C  23)          119.4479         0.432927   
    109. A(C  24,C  23,H  33)          119.1324         0.351649   
    110. A(C  22,C  23,H  33)          120.3036         0.351928   
    111. A(C  22,C  23,C  24)          120.5640         0.432897   
    112. A(C  25,C  24,H  34)          120.6031         0.351223   
    113. A(C  23,C  24,H  34)          119.6819         0.352275   
    114. A(C  23,C  24,C  25)          119.7135         0.431160   
    115. A(C  24,C  25,O  26)          123.4505         0.431644   
    116. A(C  20,C  25,O  26)          116.1736         0.428438   
    117. A(C  20,C  25,C  24)          120.3666         0.426603   
    118. A(C  25,O  26,C  27)          119.2951         0.417729   
    119. A(H  36,C  27,H  37)          109.2704         0.287689   
    120. A(H  35,C  27,H  37)          109.1644         0.286727   
    121. A(O  26,C  27,H  37)          111.3749         0.338064   
    122. A(H  35,C  27,H  36)          109.2311         0.287654   
    123. A(O  26,C  27,H  36)          106.4047         0.339233   
    124. A(O  26,C  27,H  35)          111.3286         0.338020   
    125. A(C  18,N  28,O  38)          119.9682         0.443670   
    126. A(C  18,N  28,O  29)          121.8857         0.451507   
    127. A(O  29,N  28,O  38)          118.1444         0.455433   
    128. A(H  42,C  41,C  43)          120.1486         0.359946   
    129. A(C  18,C  41,C  43)          125.6011         0.428385   
    130. A(C  18,C  41,H  42)          114.2486         0.341762   
    131. A(H  44,C  43,N  45)          112.8377         0.345946   
    132. A(C  41,C  43,N  45)          126.3450         0.435606   
    133. A(C  41,C  43,H  44)          120.7995         0.358693   
    134. A(C  46,N  45,C  50)          116.3678         0.387543   
    135. A(C  43,N  45,C  50)          118.5816         0.403748   
    136. A(C  43,N  45,C  46)          117.4695         0.402222   
    137. A(H  48,C  46,H  49)          108.1808         0.287342   
    138. A(H  47,C  46,H  49)          107.7437         0.285904   
    139. A(N  45,C  46,H  49)          109.7456         0.331800   
    140. A(H  47,C  46,H  48)          107.8959         0.285819   
    141. A(N  45,C  46,H  48)          110.1417         0.331695   
    142. A(N  45,C  46,H  47)          112.9868         0.329936   
    143. A(H  52,C  50,H  53)          108.3056         0.287440   
    144. A(H  51,C  50,H  53)          108.2329         0.285971   
    145. A(N  45,C  50,H  53)          109.5740         0.333225   
    146. A(H  51,C  50,H  52)          107.3956         0.285593   
    147. A(N  45,C  50,H  52)          110.3316         0.332756   
    148. A(N  45,C  50,H  51)          112.8674         0.330953   
    149. D(H  40,C   1,C   0,C   5)    179.5372         0.026283   
    150. D(C   2,C   1,C   0,C   5)      0.2009         0.026283   
    151. D(H  40,C   1,C   0,H  11)     -0.1296         0.026283   
    152. D(C   2,C   1,C   0,H  11)   -179.4659         0.026283   
    153. D(N   3,C   2,C   1,H  40)    179.9630         0.028737   
    154. D(H  12,C   2,C   1,H  40)     -2.3328         0.028737   
    155. D(N   3,C   2,C   1,C   0)     -0.6840         0.028737   
    156. D(H  12,C   2,C   1,C   0)    177.0202         0.028737   
    157. D(C   4,N   3,C   2,H  12)   -176.8370         0.034901   
    158. D(C   6,N   3,C   2,H  12)     -2.4484         0.034901   
    159. D(C   4,N   3,C   2,C   1)      1.0501         0.034901   
    160. D(C   6,N   3,C   2,C   1)    175.4386         0.034901   
    161. D(C   5,C   4,N   3,C   6)   -175.2180         0.034582   
    162. D(C   5,C   4,N   3,C   2)     -0.9134         0.034582   
    163. D(H  13,C   4,N   3,C   2)    178.9464         0.034582   
    164. D(H  13,C   4,N   3,C   6)      4.6417         0.034582   
    165. D(H  14,C   5,C   4,H  13)      0.0039         0.028886   
    166. D(C   0,C   5,C   4,H  13)   -179.4373         0.028886   
    167. D(H  14,C   5,C   0,H  11)      0.1733         0.026292   
    168. D(C   0,C   5,C   4,N   3)      0.4137         0.028886   
    169. D(H  14,C   5,C   0,C   1)   -179.4937         0.026292   
    170. D(H  14,C   5,C   4,N   3)    179.8549         0.028886   
    171. D(C   4,C   5,C   0,H  11)    179.5987         0.026292   
    172. D(C   4,C   5,C   0,C   1)     -0.0683         0.026292   
    173. D(C  19,C   6,N   3,C   4)     70.0296         0.015838   
    174. D(C  19,C   6,N   3,C   2)   -104.4395         0.015838   
    175. D(H  15,C   6,N   3,C   4)   -174.0904         0.015838   
    176. D(C   7,C   6,N   3,C   2)    128.4250         0.015838   
    177. D(H  15,C   6,N   3,C   2)     11.4405         0.015838   
    178. D(C   7,C   6,N   3,C   4)    -57.1059         0.015838   
    179. D(O   8,C   7,C   6,N   3)      3.3809         0.011710   
    180. D(O   9,C   7,C   6,C  19)     56.4613         0.011710   
    181. D(O   9,C   7,C   6,H  15)    -60.9430         0.011710   
    182. D(O   9,C   7,C   6,N   3)   -175.9576         0.011710   
    183. D(O   8,C   7,C   6,C  19)   -124.2002         0.011710   
    184. D(O   8,C   7,C   6,H  15)    118.3955         0.011710   
    185. D(C  10,O   9,C   7,O   8)      1.8999         0.039003   
    186. D(C  10,O   9,C   7,C   6)   -178.7517         0.039003   
    187. D(H  39,C  10,O   9,C   7)    179.1153         0.019061   
    188. D(H  17,C  10,O   9,C   7)    -61.3568         0.019061   
    189. D(H  16,C  10,O   9,C   7)     59.6719         0.019061   
    190. D(H  30,C  19,C  18,C  41)     21.8670         0.012686   
    191. D(C  20,C  19,C  18,C  41)    -93.2787         0.012686   
    192. D(C  20,C  19,C  18,N  28)     84.9684         0.012686   
    193. D(C   6,C  19,C  18,C  41)    135.1408         0.012686   
    194. D(C   6,C  19,C  18,N  28)    -46.6120         0.012686   
    195. D(H  30,C  19,C   6,H  15)    128.8109         0.008282   
    196. D(H  30,C  19,C   6,C   7)     10.2301         0.008282   
    197. D(H  30,C  19,C   6,N   3)   -116.0119         0.008282   
    198. D(C  20,C  19,C   6,H  15)   -116.5826         0.008282   
    199. D(C  20,C  19,C   6,C   7)    124.8367         0.008282   
    200. D(C  20,C  19,C   6,N   3)     -1.4053         0.008282   
    201. D(C  18,C  19,C   6,H  15)     15.3041         0.008282   
    202. D(H  30,C  19,C  18,N  28)   -159.8859         0.012686   
    203. D(C  18,C  19,C   6,N   3)    130.4814         0.008282   
    204. D(C  18,C  19,C   6,C   7)   -103.2766         0.008282   
    205. D(C  25,C  20,C  19,H  30)     16.6425         0.011604   
    206. D(C  25,C  20,C  19,C  18)    131.7152         0.011604   
    207. D(C  25,C  20,C  19,C   6)    -97.6674         0.011604   
    208. D(C  21,C  20,C  19,H  30)   -163.0371         0.011604   
    209. D(C  21,C  20,C  19,C  18)    -47.9644         0.011604   
    210. D(C  21,C  20,C  19,C   6)     82.6530         0.011604   
    211. D(C  22,C  21,C  20,C  19)    179.7554         0.025655   
    212. D(H  31,C  21,C  20,C  25)    178.8738         0.025655   
    213. D(H  31,C  21,C  20,C  19)     -1.4442         0.025655   
    214. D(C  22,C  21,C  20,C  25)      0.0734         0.025655   
    215. D(H  32,C  22,C  21,H  31)      0.8248         0.026072   
    216. D(H  32,C  22,C  21,C  20)    179.5801         0.026072   
    217. D(C  23,C  22,C  21,H  31)   -179.2685         0.026072   
    218. D(C  23,C  22,C  21,C  20)     -0.5132         0.026072   
    219. D(H  33,C  23,C  22,H  32)      0.1295         0.026310   
    220. D(H  33,C  23,C  22,C  21)   -179.7769         0.026310   
    221. D(C  24,C  23,C  22,H  32)   -179.8212         0.026310   
    222. D(C  24,C  23,C  22,C  21)      0.2723         0.026310   
    223. D(H  34,C  24,C  23,H  33)      0.0107         0.026050   
    224. D(H  34,C  24,C  23,C  22)    179.9619         0.026050   
    225. D(C  25,C  24,C  23,H  33)   -179.5479         0.026050   
    226. D(C  25,C  24,C  23,C  22)      0.4034         0.026050   
    227. D(O  26,C  25,C  24,H  34)     -1.5561         0.025094   
    228. D(O  26,C  25,C  24,C  23)    177.9983         0.025094   
    229. D(C  20,C  25,C  24,H  34)    179.5968         0.025094   
    230. D(C  20,C  25,C  24,C  23)     -0.8488         0.025094   
    231. D(O  26,C  25,C  20,C  21)   -178.3181         0.022997   
    232. D(O  26,C  25,C  20,C  19)      1.9920         0.022997   
    233. D(C  24,C  25,C  20,C  21)      0.6101         0.022997   
    234. D(C  24,C  25,C  20,C  19)   -179.0799         0.022997   
    235. D(C  27,O  26,C  25,C  24)      1.4915         0.030272   
    236. D(C  27,O  26,C  25,C  20)   -179.6169         0.030272   
    237. D(H  37,C  27,O  26,C  25)     60.8059         0.021514   
    238. D(H  36,C  27,O  26,C  25)    179.7968         0.021514   
    239. D(H  35,C  27,O  26,C  25)    -61.2854         0.021514   
    240. D(O  38,N  28,C  18,C  41)    177.0391         0.036498   
    241. D(O  38,N  28,C  18,C  19)     -1.2360         0.036498   
    242. D(O  29,N  28,C  18,C  41)     -3.4543         0.036498   
    243. D(O  29,N  28,C  18,C  19)    178.2707         0.036498   
    244. D(C  43,C  41,C  18,N  28)   -173.3866         0.017913   
    245. D(C  43,C  41,C  18,C  19)      4.8942         0.017913   
    246. D(H  42,C  41,C  18,N  28)      6.1242         0.017913   
    247. D(H  42,C  41,C  18,C  19)   -175.5950         0.017913   
    248. D(N  45,C  43,C  41,H  42)      5.3724         0.034171   
    249. D(N  45,C  43,C  41,C  18)   -175.1434         0.034171   
    250. D(H  44,C  43,C  41,H  42)   -176.2731         0.034171   
    251. D(H  44,C  43,C  41,C  18)      3.2111         0.034171   
    252. D(C  50,N  45,C  43,H  44)    176.2391         0.027333   
    253. D(C  50,N  45,C  43,C  41)     -5.2945         0.027333   
    254. D(C  46,N  45,C  43,H  44)     27.6699         0.027333   
    255. D(C  46,N  45,C  43,C  41)   -153.8637         0.027333   
    256. D(H  49,C  46,N  45,C  50)    171.8561         0.018223   
    257. D(H  49,C  46,N  45,C  43)    -38.8807         0.018223   
    258. D(H  48,C  46,N  45,C  50)     52.8595         0.018223   
    259. D(H  48,C  46,N  45,C  43)   -157.8773         0.018223   
    260. D(H  47,C  46,N  45,C  50)    -67.8792         0.018223   
    261. D(H  47,C  46,N  45,C  43)     81.3840         0.018223   
    262. D(H  53,C  50,N  45,C  46)    -38.3650         0.019041   
    263. D(H  53,C  50,N  45,C  43)    172.7261         0.019041   
    264. D(H  52,C  50,N  45,C  46)   -157.5251         0.019041   
    265. D(H  52,C  50,N  45,C  43)     53.5660         0.019041   
    266. D(H  51,C  50,N  45,C  46)     82.3225         0.019041   
    267. D(H  51,C  50,N  45,C  43)    -66.5863         0.019041   
    -----------------------------------------------------------------

Number of atoms                         .... 54
Number of degrees of freedom            .... 267

         *************************************************************
         *                GEOMETRY OPTIMIZATION CYCLE   1            *
         *************************************************************
---------------------------------
CARTESIAN COORDINATES (ANGSTROEM)
---------------------------------
  C     -2.616660    3.935282   -0.599684
  C     -2.849451    3.014243   -1.619345
  C     -1.913959    2.026629   -1.864270
  N     -0.782532    1.962740   -1.134796
  C     -0.539342    2.838964   -0.138538
  C     -1.444099    3.843025    0.147769
  C      0.128918    0.843400   -1.360765
  C      1.537395    1.341706   -1.602044
  O      1.896785    2.492468   -1.555249
  O      2.325703    0.320759   -1.889449
  C      3.701643    0.613701   -2.119374
  H     -3.347665    4.717888   -0.384705
  H     -2.039698    1.240830   -2.609629
  H      0.389778    2.707427    0.413481
  H     -1.225071    4.537136    0.959774
  H     -0.230231    0.358313   -2.278545
  H      4.145896    1.083748   -1.230733
  H      3.811743    1.286732   -2.981073
  C     -0.087903   -1.631057   -0.786590
  C      0.065253   -0.245953   -0.226145
  C     -0.898504    0.089231    0.893274
  C     -2.267293   -0.169304    0.790918
  C     -3.141756    0.140373    1.832320
  C     -2.640465    0.708734    3.001731
  C     -1.277450    0.973536    3.133904
  C     -0.407057    0.673565    2.079726
  O      0.920318    0.934458    2.111184
  C      1.482708    1.510729    3.268060
  N     -0.989707   -1.886791   -1.747143
  O     -1.114480   -3.035669   -2.256118
  H      1.060034   -0.230388    0.233684
  H     -2.630059   -0.604816   -0.143630
  H     -4.210181   -0.063272    1.730389
  H     -3.312724    0.953663    3.828104
  H     -0.900880    1.419060    4.054920
  H      1.044549    2.500703    3.476489
  H      2.554714    1.625210    3.067251
  H      1.344748    0.861417    4.148043
  O     -1.752669   -0.943075   -2.181783
  H      4.184971   -0.347579   -2.322805
  H     -3.757363    3.046702   -2.222710
  C      0.708914   -2.719969   -0.272706
  H      0.571598   -3.663509   -0.801184
  C      1.566680   -2.645306    0.780428
  H      1.667771   -1.719124    1.357118
  N      2.403087   -3.646736    1.225505
  C      2.787243   -3.623954    2.615384
  H      2.016574   -4.058216    3.285102
  H      3.719600   -4.190886    2.760282
  H      2.963280   -2.586100    2.935415
  C      2.313603   -4.941187    0.609538
  H      1.347953   -5.450006    0.813005
  H      2.415246   -4.852679   -0.483555
  H      3.125187   -5.582564    0.980885

----------------------------
CARTESIAN COORDINATES (A.U.)
----------------------------
  NO LB      ZA    FRAG     MASS         X           Y           Z
   0 C     6.0000    0    12.011   -4.944771    7.436605   -1.133239
   1 C     6.0000    0    12.011   -5.384682    5.696094   -3.060119
   2 C     6.0000    0    12.011   -3.616858    3.829774   -3.522960
   3 N     7.0000    0    14.007   -1.478771    3.709041   -2.144454
   4 C     6.0000    0    12.011   -1.019209    5.364864   -0.261799
   5 C     6.0000    0    12.011   -2.728952    7.262265    0.279243
   6 C     6.0000    0    12.011    0.243620    1.593795   -2.571473
   7 C     6.0000    0    12.011    2.905256    2.535457   -3.027424
   8 O     8.0000    0    15.999    3.584404    4.710082   -2.938995
   9 O     8.0000    0    15.999    4.394942    0.606147   -3.570541
  10 C     6.0000    0    12.011    6.995092    1.159727   -4.005036
  11 H     1.0000    0     1.008   -6.326170    8.915516   -0.726987
  12 H     1.0000    0     1.008   -3.854471    2.344829   -4.931484
  13 H     1.0000    0     1.008    0.736574    5.116296    0.781366
  14 H     1.0000    0     1.008   -2.315049    8.573944    1.813710
  15 H     1.0000    0     1.008   -0.435074    0.677113   -4.305826
  16 H     1.0000    0     1.008    7.834608    2.047987   -2.325748
  17 H     1.0000    0     1.008    7.203150    2.431571   -5.633412
  18 C     6.0000    0    12.011   -0.166113   -3.082251   -1.486440
  19 C     6.0000    0    12.011    0.123310   -0.464784   -0.427352
  20 C     6.0000    0    12.011   -1.697926    0.168622    1.688043
  21 C     6.0000    0    12.011   -4.284563   -0.319938    1.494618
  22 C     6.0000    0    12.011   -5.937058    0.265267    3.462583
  23 C     6.0000    0    12.011   -4.989756    1.339313    5.672450
  24 C     6.0000    0    12.011   -2.414031    1.839716    5.922220
  25 C     6.0000    0    12.011   -0.769226    1.272853    3.930113
  26 O     8.0000    0    15.999    1.739149    1.765870    3.989560
  27 C     6.0000    0    12.011    2.801912    2.854864    6.175738
  28 N     7.0000    0    14.007   -1.870275   -3.565518   -3.301622
  29 O     8.0000    0    15.999   -2.106062   -5.736583   -4.263445
  30 H     1.0000    0     1.008    2.003174   -0.435370    0.441599
  31 H     1.0000    0     1.008   -4.970091   -1.142937   -0.271421
  32 H     1.0000    0     1.008   -7.956089   -0.119567    3.269961
  33 H     1.0000    0     1.008   -6.260141    1.802162    7.234068
  34 H     1.0000    0     1.008   -1.702416    2.681635    7.662688
  35 H     1.0000    0     1.008    1.973912    4.725644    6.569612
  36 H     1.0000    0     1.008    4.827710    3.071202    5.796264
  37 H     1.0000    0     1.008    2.541205    1.627842    7.838665
  38 O     8.0000    0    15.999   -3.312064   -1.782153   -4.122972
  39 H     1.0000    0     1.008    7.908449   -0.656829   -4.389465
  40 H     1.0000    0     1.008   -7.100387    5.757432   -4.200313
  41 C     6.0000    0    12.011    1.339653   -5.139997   -0.515340
  42 H     1.0000    0     1.008    1.080164   -6.923029   -1.514018
  43 C     6.0000    0    12.011    2.960596   -4.998904    1.474795
  44 H     1.0000    0     1.008    3.151630   -3.248674    2.564581
  45 N     7.0000    0    14.007    4.541176   -6.891332    2.315869
  46 C     6.0000    0    12.011    5.267126   -6.848281    4.942359
  47 H     1.0000    0     1.008    3.810773   -7.668917    6.207943
  48 H     1.0000    0     1.008    7.029025   -7.919627    5.216177
  49 H     1.0000    0     1.008    5.599788   -4.887021    5.547130
  50 C     6.0000    0    12.011    4.372076   -9.337490    1.151860
  51 H     1.0000    0     1.008    2.547262  -10.299019    1.536357
  52 H     1.0000    0     1.008    4.564153   -9.170234   -0.913787
  53 H     1.0000    0     1.008    5.905748  -10.549517    1.853604

--------------------------------
INTERNAL COORDINATES (ANGSTROEM)
--------------------------------
 C      0   0   0     0.000000000000     0.00000000     0.00000000
 C      1   0   0     1.393633037827     0.00000000     0.00000000
 C      2   1   0     1.382213786172   119.26250703     0.00000000
 N      3   2   1     1.347717024203   120.40769354   359.31595786
 C      4   3   2     1.348866144894   121.35484495     1.05005851
 C      5   4   3     1.381555434653   120.47058223   359.08657641
 C      4   3   2     1.461069857009   118.44494199   175.43861126
 C      7   4   3     1.513384248962   110.66993773   128.42501339
 O      8   7   4     1.206484199967   125.81061679     3.38089401
 O      8   7   4     1.321500629473   109.60097439   184.04242385
 C     10   8   7     1.425444283229   116.87970978   181.24825795
 H      1   2   3     1.092271226254   120.38025884   180.53407683
 H      3   2   1     1.090344167409   123.91942039   177.02023876
 H      5   4   3     1.088710674665   116.73555472   178.94635172
 H      6   5   4     1.090465710204   119.03744016   179.85487706
 H      7   4   3     1.098461437726   105.28235626    11.44045797
 H     11  10   8     1.099084954450   110.34299755    59.67185571
 H     11  10   8     1.098916695461   110.42956038   298.64319451
 C     16   7   4     2.490738841892    80.41890553   230.98647791
 C     19  16   7     1.502021454300    59.52215247    10.05788282
 C     20  19  16     1.514686359107   114.51570094   124.13805561
 C     21  20  19     1.396746370492   121.89880460   312.03561441
 C     22  21  20     1.394669677129   121.24067831   179.75535125
 C     23  22  21     1.393502414753   119.44790725   359.48680857
 C     24  23  22     1.394775857032   120.56404510     0.27233936
 C     25  24  23     1.399592023046   119.71346786     0.40338621
 O     26  25  24     1.353136783122   123.45049883   177.99826938
 C     27  26  25     1.409515114114   119.29509561     1.49148961
 N     19  16   7     1.342129799602    71.64474115   155.17338067
 O     29  19  16     1.262752751348   121.88565365   143.27431355
 H     20  19  16     1.096026558267   105.19979565   239.28373072
 H     22  21  20     1.093000382984   117.49474946   358.55576364
 H     23  22  21     1.092425372925   120.14325217   179.58008749
 H     24  23  22     1.093075803982   120.30357260   180.22305001
 H     25  24  23     1.090214232035   119.68191194   179.96193481
 H     28  27  26     1.102485590835   111.32857597   298.71462961
 H     28  27  26     1.096643523611   106.40468214   179.79677710
 H     28  27  26     1.102274518998   111.37485688    60.80591216
 O     29  19  16     1.289039499666   119.96816967   323.76768950
 H     11  10   8     1.095011125854   105.99880896   179.11533951
 H      2   1   3     1.090599426760   121.61247024   179.33631003
 C     19  16   7     1.443857139986   147.89610228   270.41192235
 H     42  19  16     1.090143298810   114.24855670   264.57397993
 C     42  19  16     1.360304486606   125.60109827    85.06322290
 H     44  42  19     1.095720695937   120.79950103     3.21106071
 N     44  42  19     1.378597929230   126.34502948   184.85657728
 C     46  44  42     1.442171448373   117.46954601   206.13628022
 H     47  46  44     1.109520793734   112.98677956    81.38404046
 H     47  46  44     1.100771047256   110.14172087   202.12274827
 H     47  46  44     1.100249876913   109.74560432   321.11933505
 C     46  44  42     1.436323822383   118.58155507   354.70548897
 H     51  46  44     1.110304245399   112.86742229   293.41372359
 H     51  46  44     1.101370633421   110.33160735    53.56603976
 H     51  46  44     1.099059434059   109.57396558   172.72614837

---------------------------
INTERNAL COORDINATES (A.U.)
---------------------------
 C      0   0   0     0.000000000000     0.00000000     0.00000000
 C      1   0   0     2.633584772678     0.00000000     0.00000000
 C      2   1   0     2.612005514396   119.26250703     0.00000000
 N      3   2   1     2.546816081767   120.40769354   359.31595786
 C      4   3   2     2.548987605167   121.35484495     1.05005851
 C      5   4   3     2.610761410325   120.47058223   359.08657641
 C      4   3   2     2.761021892275   118.44494199   175.43861126
 C      7   4   3     2.859881765928   110.66993773   128.42501339
 O      8   7   4     2.279924722840   125.81061679     3.38089401
 O      8   7   4     2.497274275509   109.60097439   184.04242385
 C     10   8   7     2.693699314466   116.87970978   181.24825795
 H      1   2   3     2.064093481582   120.38025884   180.53407683
 H      3   2   1     2.060451868122   123.91942039   177.02023876
 H      5   4   3     2.057365014194   116.73555472   178.94635172
 H      6   5   4     2.060681550717   119.03744016   179.85487706
 H      7   4   3     2.075791285975   105.28235626    11.44045797
 H     11  10   8     2.076969561824   110.34299755    59.67185571
 H     11  10   8     2.076651598414   110.42956038   298.64319451
 C     16   7   4     4.706814282296    80.41890553   230.98647791
 C     19  16   7     2.838409195901    59.52215247    10.05788282
 C     20  19  16     2.862342397499   114.51570094   124.13805561
 C     21  20  19     2.639468118778   121.89880460   312.03561441
 C     22  21  20     2.635543737057   121.24067831   179.75535125
 C     23  22  21     2.633337930841   119.44790725   359.48680857
 C     24  23  22     2.635744387995   120.56404510     0.27233936
 C     25  24  23     2.644845622778   119.71346786     0.40338621
 O     26  25  24     2.557057941836   123.45049883   177.99826938
 C     27  26  25     2.663597547299   119.29509561     1.49148961
 N     19  16   7     2.536257757423    71.64474115   155.17338067
 O     29  19  16     2.386256874904   121.88565365   143.27431355
 H     20  19  16     2.071190030629   105.19979565   239.28373072
 H     22  21  20     2.065471388112   117.49474946   358.55576364
 H     23  22  21     2.064384776576   120.14325217   179.58008749
 H     24  23  22     2.065613913142   120.30357260   180.22305001
 H     25  24  23     2.060206325850   119.68191194   179.96193481
 H     28  27  26     2.083395833272   111.32857597   298.71462961
 H     28  27  26     2.072355926163   106.40468214   179.79677710
 H     28  27  26     2.082996965307   111.37485688    60.80591216
 O     29  19  16     2.435931630176   119.96816967   323.76768950
 H     11  10   8     2.069271141462   105.99880896   179.11533951
 H      2   1   3     2.060934238389   121.61247024   179.33631003
 C     19  16   7     2.728494571081   147.89610228   270.41192235
 H     42  19  16     2.060072281480   114.24855670   264.57397993
 C     42  19  16     2.570602938430   125.60109827    85.06322290
 H     44  42  19     2.070612034591   120.79950103     3.21106071
 N     44  42  19     2.605172535036   126.34502948   184.85657728
 C     46  44  42     2.725309075585   117.46954601   206.13628022
 H     47  46  44     2.096690440049   112.98677956    81.38404046
 H     47  46  44     2.080155815463   110.14172087   202.12274827
 H     47  46  44     2.079170946245   109.74560432   321.11933505
 C     46  44  42     2.714258663932   118.58155507   354.70548897
 H     51  46  44     2.098170949133   112.86742229   293.41372359
 H     51  46  44     2.081288869109   110.33160735    53.56603976
 H     51  46  44     2.076921335274   109.57396558   172.72614837

---------------------
BASIS SET INFORMATION
---------------------
There are 4 groups of distinct atoms

 Group   1 Type C   : 11s6p2d1f contracted to 5s3p2d1f pattern {62111/411/11/1}
 Group   2 Type N   : 11s6p2d1f contracted to 5s3p2d1f pattern {62111/411/11/1}
 Group   3 Type O   : 11s6p2d1f contracted to 5s3p2d1f pattern {62111/411/11/1}
 Group   4 Type H   : 5s1p contracted to 3s1p pattern {311/1}

Atom   0C    basis set group =>   1
Atom   1C    basis set group =>   1
Atom   2C    basis set group =>   1
Atom   3N    basis set group =>   2
Atom   4C    basis set group =>   1
Atom   5C    basis set group =>   1
Atom   6C    basis set group =>   1
Atom   7C    basis set group =>   1
Atom   8O    basis set group =>   3
Atom   9O    basis set group =>   3
Atom  10C    basis set group =>   1
Atom  11H    basis set group =>   4
Atom  12H    basis set group =>   4
Atom  13H    basis set group =>   4
Atom  14H    basis set group =>   4
Atom  15H    basis set group =>   4
Atom  16H    basis set group =>   4
Atom  17H    basis set group =>   4
Atom  18C    basis set group =>   1
Atom  19C    basis set group =>   1
Atom  20C    basis set group =>   1
Atom  21C    basis set group =>   1
Atom  22C    basis set group =>   1
Atom  23C    basis set group =>   1
Atom  24C    basis set group =>   1
Atom  25C    basis set group =>   1
Atom  26O    basis set group =>   3
Atom  27C    basis set group =>   1
Atom  28N    basis set group =>   2
Atom  29O    basis set group =>   3
Atom  30H    basis set group =>   4
Atom  31H    basis set group =>   4
Atom  32H    basis set group =>   4
Atom  33H    basis set group =>   4
Atom  34H    basis set group =>   4
Atom  35H    basis set group =>   4
Atom  36H    basis set group =>   4
Atom  37H    basis set group =>   4
Atom  38O    basis set group =>   3
Atom  39H    basis set group =>   4
Atom  40H    basis set group =>   4
Atom  41C    basis set group =>   1
Atom  42H    basis set group =>   4
Atom  43C    basis set group =>   1
Atom  44H    basis set group =>   4
Atom  45N    basis set group =>   2
Atom  46C    basis set group =>   1
Atom  47H    basis set group =>   4
Atom  48H    basis set group =>   4
Atom  49H    basis set group =>   4
Atom  50C    basis set group =>   1
Atom  51H    basis set group =>   4
Atom  52H    basis set group =>   4
Atom  53H    basis set group =>   4
---------------------------------
AUXILIARY/J BASIS SET INFORMATION
---------------------------------
There are 4 groups of distinct atoms

 Group   1 Type C   : 12s5p4d2f1g contracted to 6s4p3d1f1g pattern {711111/2111/211/2/1}
 Group   2 Type N   : 12s5p4d2f1g contracted to 6s4p3d1f1g pattern {711111/2111/211/2/1}
 Group   3 Type O   : 12s5p4d2f1g contracted to 6s4p3d1f1g pattern {711111/2111/211/2/1}
 Group   4 Type H   : 5s2p1d contracted to 3s1p1d pattern {311/2/1}

Atom   0C    basis set group =>   1
Atom   1C    basis set group =>   1
Atom   2C    basis set group =>   1
Atom   3N    basis set group =>   2
Atom   4C    basis set group =>   1
Atom   5C    basis set group =>   1
Atom   6C    basis set group =>   1
Atom   7C    basis set group =>   1
Atom   8O    basis set group =>   3
Atom   9O    basis set group =>   3
Atom  10C    basis set group =>   1
Atom  11H    basis set group =>   4
Atom  12H    basis set group =>   4
Atom  13H    basis set group =>   4
Atom  14H    basis set group =>   4
Atom  15H    basis set group =>   4
Atom  16H    basis set group =>   4
Atom  17H    basis set group =>   4
Atom  18C    basis set group =>   1
Atom  19C    basis set group =>   1
Atom  20C    basis set group =>   1
Atom  21C    basis set group =>   1
Atom  22C    basis set group =>   1
Atom  23C    basis set group =>   1
Atom  24C    basis set group =>   1
Atom  25C    basis set group =>   1
Atom  26O    basis set group =>   3
Atom  27C    basis set group =>   1
Atom  28N    basis set group =>   2
Atom  29O    basis set group =>   3
Atom  30H    basis set group =>   4
Atom  31H    basis set group =>   4
Atom  32H    basis set group =>   4
Atom  33H    basis set group =>   4
Atom  34H    basis set group =>   4
Atom  35H    basis set group =>   4
Atom  36H    basis set group =>   4
Atom  37H    basis set group =>   4
Atom  38O    basis set group =>   3
Atom  39H    basis set group =>   4
Atom  40H    basis set group =>   4
Atom  41C    basis set group =>   1
Atom  42H    basis set group =>   4
Atom  43C    basis set group =>   1
Atom  44H    basis set group =>   4
Atom  45N    basis set group =>   2
Atom  46C    basis set group =>   1
Atom  47H    basis set group =>   4
Atom  48H    basis set group =>   4
Atom  49H    basis set group =>   4
Atom  50C    basis set group =>   1
Atom  51H    basis set group =>   4
Atom  52H    basis set group =>   4
Atom  53H    basis set group =>   4


           ************************************************************
           *        Program running with 24 parallel MPI-processes    *
           *              working on a common directory               *
           ************************************************************
------------------------------------------------------------------------------
                           ORCA GTO INTEGRAL CALCULATION
                           -- RI-GTO INTEGRALS CHOSEN --
------------------------------------------------------------------------------
------------------------------------------------------------------------------
                   ___                                                        
                  /   \      - P O W E R E D   B Y -                         
                 /     \                                                     
                 |  |  |   _    _      __       _____    __    __             
                 |  |  |  | |  | |    /  \     |  _  \  |  |  /  |          
                  \  \/   | |  | |   /    \    | | | |  |  | /  /          
                 / \  \   | |__| |  /  /\  \   | |_| |  |  |/  /          
                |  |  |   |  __  | /  /__\  \  |    /   |      \           
                |  |  |   | |  | | |   __   |  |    \   |  |\   \          
                \     /   | |  | | |  |  |  |  | |\  \  |  | \   \       
                 \___/    |_|  |_| |__|  |__|  |_| \__\ |__|  \__/        
                                                                              
                      - O R C A' S   B I G   F R I E N D -                    
                                      &                                       
                       - I N T E G R A L  F E E D E R -                       
                                                                              
 v1 FN, 2020, v2 2021                                                         
------------------------------------------------------------------------------


Reading SHARK input file IM_CHCHNMe2/IM_CHCHNMe2.SHARKINP.tmp ... ok
----------------------
SHARK INTEGRAL PACKAGE
----------------------

Number of atoms                             ...     54
Number of basis functions                   ...   1049
Number of shells                            ...    419
Maximum angular momentum                    ...      3
Integral batch strategy                     ... SHARK/LIBINT Hybrid
RI-J (if used) integral strategy            ... SPLIT-RIJ (Revised 2003 algorithm where possible)
Printlevel                                  ...      1
Contraction scheme used                     ... SEGMENTED contraction
Coulomb Range Separation                    ... NOT USED
Exchange Range Separation                   ... NOT USED
Finite Nucleus Model                        ... NOT USED
Auxiliary Coulomb fitting basis             ... AVAILABLE
   # of basis functions in Aux-J            ...   1696
   # of shells in Aux-J                     ...    560
   Maximum angular momentum in Aux-J        ...      4
Auxiliary J/K fitting basis                 ... NOT available
Auxiliary Correlation fitting basis         ... NOT available
Auxiliary 'external' fitting basis          ... NOT available
Integral threshold                          ...     2.500000e-11
Primitive cut-off                           ...     2.500000e-12
Primitive pair pre-selection threshold      ...     2.500000e-12

Calculating pre-screening integrals         ... done (  0.1 sec) Dimension = 419
Organizing shell pair data                  ... done (  0.8 sec)
Shell pair information
Total number of shell pairs                 ...     87990
Shell pairs after pre-screening             ...     59895
Total number of primitive shell pairs       ...    267528
Primitive shell pairs kept                  ...    117434
          la=0 lb=0:  16013 shell pairs
          la=1 lb=0:  17497 shell pairs
          la=1 lb=1:   4814 shell pairs
          la=2 lb=0:   8368 shell pairs
          la=2 lb=1:   4676 shell pairs
          la=2 lb=2:   1162 shell pairs
          la=3 lb=0:   3843 shell pairs
          la=3 lb=1:   2206 shell pairs
          la=3 lb=2:   1057 shell pairs
          la=3 lb=3:    259 shell pairs

Calculating one electron integrals          ... done (  0.1 sec)
Calculating RI/J V-Matrix + Cholesky decomp.... done (  0.3 sec)
Calculating Nuclear repulsion               ... done (  0.0 sec) ENN=   3009.679060411422 Eh

SHARK setup successfully completed in   2.4 seconds

Maximum memory used throughout the entire GTOINT-calculation: 88.5 MB


           ************************************************************
           *        Program running with 24 parallel MPI-processes    *
           *              working on a common directory               *
           ************************************************************
-------------------------------------------------------------------------------
                                 ORCA SCF
-------------------------------------------------------------------------------

------------
SCF SETTINGS
------------
Hamiltonian:
 Density Functional     Method          .... DFT(GTOs)
 Exchange Functional    Exchange        .... PBE
   PBE kappa parameter   XKappa         ....  0.804000
   PBE mue parameter    XMuePBE         ....  0.219520
 Correlation Functional Correlation     .... PBE
   PBE beta parameter  CBetaPBE         ....  0.066725
 LDA part of GGA corr.  LDAOpt          .... PW91-LDA
 Gradients option       PostSCFGGA      .... off
 Hybrid DFT is turned on
   Fraction HF Exchange ScalHFX         ....  0.250000
   Scaling of DF-GGA-X  ScalDFX         ....  0.750000
   Scaling of DF-GGA-C  ScalDFC         ....  1.000000
   Scaling of DF-LDA-C  ScalLDAC        ....  1.000000
   Perturbative correction              ....  0.000000
   Density functional embedding theory  .... OFF
   NL short-range parameter             ....  6.900000
 RI-approximation to the Coulomb term is turned on
   Number of AuxJ basis functions       .... 1696
   RIJ-COSX (HFX calculated with COS-X)).... on


General Settings:
 Integral files         IntName         .... IM_CHCHNMe2/IM_CHCHNMe2
 Hartree-Fock type      HFTyp           .... RHF
 Total Charge           Charge          ....    0
 Multiplicity           Mult            ....    1
 Number of Electrons    NEL             ....  212
 Basis Dimension        Dim             .... 1049
 Nuclear Repulsion      ENuc            ....   3009.6790604114 Eh

Convergence Acceleration:
 DIIS                   CNVDIIS         .... on
   Start iteration      DIISMaxIt       ....    12
   Startup error        DIISStart       ....  0.200000
   # of expansion vecs  DIISMaxEq       ....     5
   Bias factor          DIISBfac        ....   1.050
   Max. coefficient     DIISMaxC        ....  10.000
 Trust-Rad. Augm. Hess. CNVTRAH         .... auto
   Auto Start mean grad. ratio tolernc. ....  1.125000
   Auto Start start iteration           ....    20
   Auto Start num. interpolation iter.  ....    10
   Max. Number of Micro iterations      ....    16
   Max. Number of Macro iterations      .... Maxiter - #DIIS iter
   Number of Davidson start vectors     ....     2
   Converg. threshold I  (grad. norm)   ....   1.000e-05
   Converg. threshold II (energy diff.) ....   1.000e-08
   Grad. Scal. Fac. for Micro threshold ....   0.100
   Minimum threshold for Micro iter.    ....   0.010
   NR start threshold (gradient norm)   ....   0.001
   Initial trust radius                 ....   0.400
   Minimum AH scaling param. (alpha)    ....   1.000
   Maximum AH scaling param. (alpha)    .... 1000.000
   Orbital update algorithm             .... Taylor
   White noise on init. David. guess    .... on
   Maximum white noise                  ....   0.010
   Quad. conv. algorithm                .... NR
 SOSCF                  CNVSOSCF        .... on
   Start iteration      SOSCFMaxIt      ....   150
   Startup grad/error   SOSCFStart      ....  0.003300
 Level Shifting         CNVShift        .... on
   Level shift para.    LevelShift      ....    0.2500
   Turn off err/grad.   ShiftErr        ....    0.0010
 Zerner damping         CNVZerner       .... off
 Static damping         CNVDamp         .... on
   Fraction old density DampFac         ....    0.7000
   Max. Damping (<1)    DampMax         ....    0.9800
   Min. Damping (>=0)   DampMin         ....    0.0000
   Turn off err/grad.   DampErr         ....    0.1000
 Fernandez-Rico         CNVRico         .... off

SCF Procedure:
 Maximum # iterations   MaxIter         ....   800
 SCF integral mode      SCFMode         .... Direct
   Integral package                     .... SHARK and LIBINT hybrid scheme
 Reset frequency        DirectResetFreq ....    20
 Integral Threshold     Thresh          ....  2.500e-11 Eh
 Primitive CutOff       TCut            ....  2.500e-12 Eh

Convergence Tolerance:
 Convergence Check Mode ConvCheckMode   .... Total+1el-Energy
 Convergence forced     ConvForced      .... 0
 Energy Change          TolE            ....  1.000e-08 Eh
 1-El. energy change                    ....  1.000e-05 Eh
 Orbital Gradient       TolG            ....  1.000e-05
 Orbital Rotation angle TolX            ....  1.000e-05
 DIIS Error             TolErr          ....  5.000e-07


Diagonalization of the overlap matrix:
Smallest eigenvalue                        ... 5.373e-06
Time for diagonalization                   ...    0.214 sec
Threshold for overlap eigenvalues          ... 1.000e-08
Number of eigenvalues below threshold      ... 0
Time for construction of square roots      ...    0.169 sec
Total time needed                          ...    0.390 sec

Time for model grid setup =    0.497 sec

------------------------------
INITIAL GUESS: MODEL POTENTIAL
------------------------------
Loading Hartree-Fock densities                     ... done
Calculating cut-offs                               ... done
Initializing the effective Hamiltonian             ... done
Setting up the integral package (SHARK)            ... done
Starting the Coulomb interaction                   ... done (   1.1 sec)
Reading the grid                                   ... done
Mapping shells                                     ... done
Starting the XC term evaluation                    ... done (   0.3 sec)
  promolecular density results
     # of electrons  =    212.007690136
     EX              =   -175.249791462
     EC              =     -7.154712605
     EX+EC           =   -182.404504067
Transforming the Hamiltonian                       ... done (   0.1 sec)
Diagonalizing the Hamiltonian                      ... done (   0.2 sec)
Back transforming the eigenvectors                 ... done (   0.1 sec)
Now organizing SCF variables                       ... done
                      ------------------
                      INITIAL GUESS DONE (   2.4 sec)
                      ------------------
-------------------
DFT GRID GENERATION
-------------------

General Integration Accuracy     IntAcc      ... 4.388
Radial Grid Type                 RadialGrid  ... OptM3 with GC (2021)
Angular Grid (max. ang.)         AngularGrid ... 4 (Lebedev-302)
Angular grid pruning method      GridPruning ... 4 (adaptive)
Weight generation scheme         WeightScheme... Becke
Basis function cutoff            BFCut       ... 1.0000e-11
Integration weight cutoff        WCut        ... 1.0000e-14
Angular grids for H and He will be reduced by one unit
Partially contracted basis set               ... off
Rotationally invariant grid construction     ... off

Total number of grid points                  ...   251883
Total number of batches                      ...     3966
Average number of points per batch           ...       63
Average number of grid points per atom       ...     4664
Time for grid setup =    2.000 sec

--------------------
COSX GRID GENERATION
--------------------

GRIDX 1
-------
General Integration Accuracy     IntAcc      ... 3.816
Radial Grid Type                 RadialGrid  ... OptM3 with GC (2021)
Angular Grid (max. ang.)         AngularGrid ... 1 (Lebedev-50)
Angular grid pruning method      GridPruning ... 4 (adaptive)
Weight generation scheme         WeightScheme... Becke
Basis function cutoff            BFCut       ... 1.0000e-11
Integration weight cutoff        WCut        ... 1.0000e-14
Angular grids for H and He will be reduced by one unit
Partially contracted basis set               ... on
Rotationally invariant grid construction     ... off

Total number of grid points                  ...    32002
Total number of batches                      ...      524
Average number of points per batch           ...       61
Average number of grid points per atom       ...      593
UseSFitting                                  ... on

GRIDX 2
-------
General Integration Accuracy     IntAcc      ... 4.020
Radial Grid Type                 RadialGrid  ... OptM3 with GC (2021)
Angular Grid (max. ang.)         AngularGrid ... 2 (Lebedev-110)
Angular grid pruning method      GridPruning ... 4 (adaptive)
Weight generation scheme         WeightScheme... Becke
Basis function cutoff            BFCut       ... 1.0000e-11
Integration weight cutoff        WCut        ... 1.0000e-14
Angular grids for H and He will be reduced by one unit
Partially contracted basis set               ... on
Rotationally invariant grid construction     ... off

Total number of grid points                  ...    68457
Total number of batches                      ...     1094
Average number of points per batch           ...       62
Average number of grid points per atom       ...     1268
UseSFitting                                  ... on

GRIDX 3
-------
General Integration Accuracy     IntAcc      ... 4.338
Radial Grid Type                 RadialGrid  ... OptM3 with GC (2021)
Angular Grid (max. ang.)         AngularGrid ... 3 (Lebedev-194)
Angular grid pruning method      GridPruning ... 4 (adaptive)
Weight generation scheme         WeightScheme... Becke
Basis function cutoff            BFCut       ... 1.0000e-11
Integration weight cutoff        WCut        ... 1.0000e-14
Angular grids for H and He will be reduced by one unit
Partially contracted basis set               ... on
Rotationally invariant grid construction     ... off

Total number of grid points                  ...   149126
Total number of batches                      ...     2356
Average number of points per batch           ...       63
Average number of grid points per atom       ...     2762
UseSFitting                                  ... on

Time for X-Grid setup             =    3.571 sec


--------------------
CPCM SOLVATION MODEL
--------------------
CPCM parameters:
  Epsilon                                         ...      47.2000
  Refrac                                          ...       1.4790
  Rsolv                                           ...       1.3000
  Surface type                                    ... GAUSSIAN VDW
  Epsilon function type                           ...         CPCM
Radii:
 Radius for C  used is    3.8550 Bohr (=   2.0400 Ang.)
 Radius for N  used is    3.5149 Bohr (=   1.8600 Ang.)
 Radius for O  used is    3.4469 Bohr (=   1.8240 Ang.)
 Radius for H  used is    2.4944 Bohr (=   1.3200 Ang.)
Calculating surface                               ...        done! (  0.0s)
GEPOL surface points                              ...         2716
GEPOL Volume                                      ...    3158.7337
GEPOL Surface-area                                ...    1559.2225
Calculating surface distance matrix               ...        done! (  0.1s)
Performing Cholesky decomposition & store         ...        done! (  0.8s)
Overall time for CPCM initialization              ...                 1.0s
--------------
SCF ITERATIONS
--------------
ITER       Energy         Delta-E        Max-DP      RMS-DP      [F,P]     Damp
               ***  Starting incremental Fock matrix formation  ***
  0  -1353.8547726924   0.000000000000 0.10694554  0.00084965  0.2752491 0.7000
  1  -1354.1399530709  -0.285180378437 0.12553548  0.00091846  0.1132496 0.7000
                               ***Turning on DIIS***
  2  -1354.2576622657  -0.117709194848 0.24031630  0.00186585  0.0357582 0.0000
  3  -1354.4472723983  -0.189610132561 0.13475328  0.00072665  0.0567268 0.0000
  4  -1354.4831994947  -0.035927096464 0.05568991  0.00032441  0.0176769 0.0000
  5  -1354.4853803508  -0.002180856091 0.02445387  0.00011484  0.0074046 0.0000
                      *** Initiating the SOSCF procedure ***
                           *** Shutting down DIIS ***
                      *** Re-Reading the Fockian *** 
                      *** Removing any level shift *** 
ITER      Energy       Delta-E        Grad      Rot      Max-DP    RMS-DP
  6  -1354.48557335  -0.0001929942  0.000256  0.000256  0.007882  0.000038
               *** Restarting incremental Fock matrix formation ***
  7  -1354.48560893  -0.0000355845  0.000149  0.000613  0.005788  0.000036
  8  -1354.48560837   0.0000005631  0.000303  0.000349  0.001040  0.000008
  9  -1354.48561310  -0.0000047307  0.000026  0.000059  0.001594  0.000009
 10  -1354.48561306   0.0000000378  0.000031  0.000032  0.000247  0.000001
 11  -1354.48561321  -0.0000001504  0.000004  0.000016  0.000444  0.000002
 12  -1354.48561323  -0.0000000209  0.000005  0.000012  0.000249  0.000001
                  ***Gradient check signals convergence***
              ***Rediagonalizing the Fockian in SOSCF/NRSCF***

               *****************************************************
               *                     SUCCESS                       *
               *           SCF CONVERGED AFTER  13 CYCLES          *
               *****************************************************

Old exchange energy                            =    -44.677018864 Eh
New exchange energy                            =    -44.676987954 Eh
Exchange energy change after final integration =      0.000030910 Eh
Total energy after final integration           =  -1354.485582248 Eh
Final COS-X integration done in                =    26.375 sec

----------------
TOTAL SCF ENERGY
----------------

Total Energy       :        -1354.48558225 Eh          -36857.42649 eV

Components:
Nuclear Repulsion  :         3009.67906041 Eh           81897.53082 eV
Electronic Energy  :        -4364.16464266 Eh         -118754.95731 eV
One Electron Energy:        -7834.20663478 Eh         -213179.60037 eV
Two Electron Energy:         3470.04199212 Eh           94424.64306 eV
Max COSX asymmetry :            0.00000292 Eh               0.00008 eV
CPCM Dielectric    :           -0.07127468 Eh              -1.93948 eV

Virial components:
Potential Energy   :        -2702.37825154 Eh          -73535.45069 eV
Kinetic Energy     :         1347.89266929 Eh           36678.02421 eV
Virial Ratio       :            2.00489127


DFT components:
N(Alpha)           :      105.999957826914 electrons
N(Beta)            :      105.999957826914 electrons
N(Total)           :      211.999915653828 electrons
E(X)               :     -133.775545421215 Eh       
E(C)               :       -7.143201125364 Eh       
E(XC)              :     -140.918746546578 Eh       
DFET-embed. en.    :        0.000000000000 Eh       
CPCM Solvation Model Properties:
Surface-charge          :           -0.03474215
Charge-correction       :           -0.00074543 Eh              -0.02028 eV
Free-energy (cav+disp)  :  This term is not implemented in the current solvation scheme

---------------
SCF CONVERGENCE
---------------

  Last Energy change         ...    7.2690e-08  Tolerance :   1.0000e-08
  Last MAX-Density change    ...    2.1094e-15  Tolerance :   1.0000e-07
  Last RMS-Density change    ...    1.2938e-17  Tolerance :   5.0000e-09
  Last Orbital Gradient      ...    1.5020e-06  Tolerance :   1.0000e-05
  Last Orbital Rotation      ...    7.5712e-06  Tolerance :   1.0000e-05

             **** THE GBW FILE WAS UPDATED (IM_CHCHNMe2/IM_CHCHNMe2.gbw) ****
             **** DENSITY IM_CHCHNMe2/IM_CHCHNMe2.scfp WAS UPDATED ****
             **** ENERGY FILE WAS UPDATED (IM_CHCHNMe2/IM_CHCHNMe2.en.tmp) ****
             **** THE GBW FILE WAS UPDATED (IM_CHCHNMe2/IM_CHCHNMe2.gbw) ****
             **** DENSITY IM_CHCHNMe2/IM_CHCHNMe2.scfp WAS UPDATED ****
----------------
ORBITAL ENERGIES
----------------

  NO   OCC          E(Eh)            E(eV) 
   0   2.0000     -19.271071      -524.3925 
   1   2.0000     -19.248990      -523.7917 
   2   2.0000     -19.213761      -522.8330 
   3   2.0000     -19.161448      -521.4095 
   4   2.0000     -19.156273      -521.2687 
   5   2.0000     -14.534421      -395.5017 
   6   2.0000     -14.509116      -394.8131 
   7   2.0000     -14.399886      -391.8408 
   8   2.0000     -10.371477      -282.2222 
   9   2.0000     -10.311608      -280.5931 
  10   2.0000     -10.309380      -280.5325 
  11   2.0000     -10.299743      -280.2702 
  12   2.0000     -10.293599      -280.1031 
  13   2.0000     -10.279494      -279.7192 
  14   2.0000     -10.276158      -279.6285 
  15   2.0000     -10.270490      -279.4742 
  16   2.0000     -10.267951      -279.4052 
  17   2.0000     -10.267380      -279.3896 
  18   2.0000     -10.257108      -279.1101 
  19   2.0000     -10.244983      -278.7802 
  20   2.0000     -10.241613      -278.6885 
  21   2.0000     -10.239989      -278.6443 
  22   2.0000     -10.239281      -278.6250 
  23   2.0000     -10.239155      -278.6216 
  24   2.0000     -10.232506      -278.4406 
  25   2.0000     -10.228993      -278.3451 
  26   2.0000     -10.227505      -278.3046 
  27   2.0000     -10.223734      -278.2020 
  28   2.0000     -10.204632      -277.6822 
  29   2.0000      -1.167894       -31.7800 
  30   2.0000      -1.163864       -31.6704 
  31   2.0000      -1.111624       -30.2488 
  32   2.0000      -1.080701       -29.4074 
  33   2.0000      -1.065668       -28.9983 
  34   2.0000      -0.987012       -26.8580 
  35   2.0000      -0.971612       -26.4389 
  36   2.0000      -0.900726       -24.5100 
  37   2.0000      -0.885138       -24.0858 
  38   2.0000      -0.857692       -23.3390 
  39   2.0000      -0.839212       -22.8361 
  40   2.0000      -0.815911       -22.2021 
  41   2.0000      -0.793863       -21.6021 
  42   2.0000      -0.775834       -21.1115 
  43   2.0000      -0.764261       -20.7966 
  44   2.0000      -0.751489       -20.4490 
  45   2.0000      -0.735978       -20.0270 
  46   2.0000      -0.723172       -19.6785 
  47   2.0000      -0.710827       -19.3426 
  48   2.0000      -0.705614       -19.2007 
  49   2.0000      -0.677440       -18.4341 
  50   2.0000      -0.671169       -18.2634 
  51   2.0000      -0.623729       -16.9725 
  52   2.0000      -0.617884       -16.8135 
  53   2.0000      -0.608477       -16.5575 
  54   2.0000      -0.579959       -15.7815 
  55   2.0000      -0.575225       -15.6527 
  56   2.0000      -0.562322       -15.3016 
  57   2.0000      -0.555496       -15.1158 
  58   2.0000      -0.550020       -14.9668 
  59   2.0000      -0.542332       -14.7576 
  60   2.0000      -0.536674       -14.6037 
  61   2.0000      -0.522352       -14.2139 
  62   2.0000      -0.515805       -14.0358 
  63   2.0000      -0.511012       -13.9054 
  64   2.0000      -0.507885       -13.8203 
  65   2.0000      -0.504222       -13.7206 
  66   2.0000      -0.497055       -13.5256 
  67   2.0000      -0.494007       -13.4426 
  68   2.0000      -0.488421       -13.2906 
  69   2.0000      -0.485767       -13.2184 
  70   2.0000      -0.480134       -13.0651 
  71   2.0000      -0.473182       -12.8759 
  72   2.0000      -0.470540       -12.8040 
  73   2.0000      -0.467095       -12.7103 
  74   2.0000      -0.463431       -12.6106 
  75   2.0000      -0.451587       -12.2883 
  76   2.0000      -0.444117       -12.0850 
  77   2.0000      -0.432812       -11.7774 
  78   2.0000      -0.428840       -11.6693 
  79   2.0000      -0.414694       -11.2844 
  80   2.0000      -0.414431       -11.2772 
  81   2.0000      -0.412817       -11.2333 
  82   2.0000      -0.404615       -11.0101 
  83   2.0000      -0.404103       -10.9962 
  84   2.0000      -0.398334       -10.8392 
  85   2.0000      -0.396109       -10.7787 
  86   2.0000      -0.385199       -10.4818 
  87   2.0000      -0.383789       -10.4434 
  88   2.0000      -0.382645       -10.4123 
  89   2.0000      -0.381174       -10.3723 
  90   2.0000      -0.367928       -10.0118 
  91   2.0000      -0.355044        -9.6612 
  92   2.0000      -0.345980        -9.4146 
  93   2.0000      -0.342668        -9.3245 
  94   2.0000      -0.339391        -9.2353 
  95   2.0000      -0.335543        -9.1306 
  96   2.0000      -0.325754        -8.8642 
  97   2.0000      -0.320066        -8.7094 
  98   2.0000      -0.308974        -8.4076 
  99   2.0000      -0.283844        -7.7238 
 100   2.0000      -0.272434        -7.4133 
 101   2.0000      -0.269965        -7.3461 
 102   2.0000      -0.248082        -6.7506 
 103   2.0000      -0.245618        -6.6836 
 104   2.0000      -0.239001        -6.5035 
 105   2.0000      -0.164549        -4.4776 
 106   0.0000      -0.083091        -2.2610 
 107   0.0000      -0.048844        -1.3291 
 108   0.0000      -0.020640        -0.5616 
 109   0.0000      -0.005018        -0.1366 
 110   0.0000      -0.001552        -0.0422 
 111   0.0000       0.005007         0.1362 
 112   0.0000       0.034237         0.9316 
 113   0.0000       0.052825         1.4374 
 114   0.0000       0.057742         1.5712 
 115   0.0000       0.060973         1.6592 
 116   0.0000       0.067566         1.8386 
 117   0.0000       0.077506         2.1091 
 118   0.0000       0.083586         2.2745 
 119   0.0000       0.086397         2.3510 
 120   0.0000       0.089186         2.4269 
 121   0.0000       0.092593         2.5196 
 122   0.0000       0.095284         2.5928 
 123   0.0000       0.098205         2.6723 
 124   0.0000       0.101380         2.7587 
 125   0.0000       0.106109         2.8874 
 126   0.0000       0.107228         2.9178 
 127   0.0000       0.108034         2.9397 
 128   0.0000       0.112812         3.0698 
 129   0.0000       0.116259         3.1636 
 130   0.0000       0.122883         3.3438 
 131   0.0000       0.128325         3.4919 
 132   0.0000       0.129155         3.5145 
 133   0.0000       0.130312         3.5460 
 134   0.0000       0.135663         3.6916 
 135   0.0000       0.142100         3.8667 
 136   0.0000       0.142945         3.8897 
 137   0.0000       0.143246         3.8979 
 138   0.0000       0.148566         4.0427 
 139   0.0000       0.150372         4.0918 
 140   0.0000       0.152266         4.1434 
 141   0.0000       0.152846         4.1592 
 142   0.0000       0.158449         4.3116 
 143   0.0000       0.160547         4.3687 
 144   0.0000       0.169101         4.6015 
 145   0.0000       0.173358         4.7173 
 146   0.0000       0.181941         4.9509 
 147   0.0000       0.187609         5.1051 
 148   0.0000       0.191349         5.2069 
 149   0.0000       0.194160         5.2834 
 150   0.0000       0.199090         5.4175 
 151   0.0000       0.205417         5.5897 
 152   0.0000       0.210924         5.7395 
 153   0.0000       0.212660         5.7868 
 154   0.0000       0.214439         5.8352 
 155   0.0000       0.214883         5.8473 
 156   0.0000       0.219371         5.9694 
 157   0.0000       0.224853         6.1186 
 158   0.0000       0.226343         6.1591 
[...]
 70:    955.59   0.000673    3.40  0.000220  (-0.008060 -0.010069  0.007316)
 71:    974.87   0.000880    4.45  0.000282  (-0.002882 -0.003607  0.016137)
 72:    986.35   0.004833   24.43  0.001529  ( 0.022482 -0.016595  0.027356)
 73:   1004.35   0.000985    4.98  0.000306  ( 0.007217  0.002695 -0.015710)
 74:   1015.05   0.000061    0.31  0.000019  (-0.002659  0.003335  0.000670)
 75:   1028.20   0.006083   30.74  0.001846  (-0.041945  0.006300 -0.006872)
 76:   1048.25   0.000081    0.41  0.000024  ( 0.004238 -0.000430  0.002415)
 77:   1052.18   0.011622   58.73  0.003447  (-0.055609 -0.018567 -0.003156)
 78:   1064.00   0.003324   16.80  0.000975  ( 0.018053  0.018822 -0.017172)
 79:   1068.78   0.015572   78.70  0.004547  ( 0.017569  0.021612  0.061409)
 80:   1080.82   0.015716   79.42  0.004538  ( 0.051279 -0.038690  0.020280)
 81:   1083.13   0.038275  193.42  0.011027  (-0.086214  0.009637 -0.059175)
 82:   1087.96   0.006435   32.52  0.001846  ( 0.027194 -0.010301  0.031626)
 83:   1089.48   0.087614  442.77  0.025096  ( 0.096180 -0.074851  0.101204)
 84:   1117.65   0.001916    9.68  0.000535  ( 0.002015  0.010984  0.020256)
 85:   1130.00   0.009053   45.75  0.002500  (-0.040446  0.002883 -0.029258)
 86:   1133.04   0.009444   47.73  0.002601  ( 0.035866  0.005185  0.035887)
 87:   1147.99   0.014007   70.79  0.003808  ( 0.046254  0.025380  0.032002)
 88:   1160.29   0.013711   69.29  0.003688  ( 0.047563 -0.028154  0.025152)
 89:   1170.76   0.000211    1.06  0.000056  (-0.002235  0.003610  0.006173)
 90:   1171.67   0.000196    0.99  0.000052  ( 0.002411 -0.005087  0.004534)
 91:   1173.81   0.003683   18.61  0.000979  ( 0.007573  0.021113  0.021816)
 92:   1177.52   0.001056    5.34  0.000280  (-0.008234 -0.006372 -0.013095)
 93:   1181.21   0.030565  154.46  0.008075  ( 0.037190 -0.081095  0.010742)
 94:   1199.65   0.008800   44.47  0.002289  ( 0.033941 -0.020302  0.026923)
 95:   1210.76   0.001736    8.77  0.000448  (-0.014413 -0.009936  0.011875)
 96:   1218.12   0.005002   25.28  0.001282  (-0.010754  0.034145 -0.000098)
 97:   1231.73   0.061339  309.98  0.015541  ( 0.088263 -0.088034  0.000261)
 98:   1236.94   0.003488   17.63  0.000880  ( 0.009126 -0.021653  0.018109)
 99:   1241.76   0.008473   42.82  0.002129  (-0.010542 -0.006167 -0.044498)
100:   1266.15   0.105386  532.58  0.025974  ( 0.102477  0.083380  0.092305)
101:   1272.77   0.021760  109.96  0.005335  ( 0.056090  0.024247 -0.040015)
102:   1294.84   0.051292  259.21  0.012362  ( 0.104304  0.037618  0.008196)
103:   1302.15   0.021766  109.99  0.005216  (-0.045304  0.053782  0.016468)
104:   1308.68   0.021093  106.60  0.005030  (-0.032067  0.046099  0.043317)
105:   1324.20   0.037199  187.99  0.008766  (-0.073981  0.051302  0.025717)
106:   1335.13   0.014922   75.41  0.003488  (-0.042580 -0.029991  0.027845)
107:   1352.31   0.030969  156.50  0.007146  ( 0.058765 -0.056184 -0.023163)
108:   1382.41   0.000535    2.70  0.000121  ( 0.007655  0.007786  0.001215)
109:   1384.94   0.006610   33.40  0.001489  (-0.016050 -0.030776 -0.016870)
110:   1386.20   0.054711  276.49  0.012317  ( 0.077880 -0.051532  0.059964)
111:   1403.21   0.011523   58.23  0.002563  (-0.037297  0.006907 -0.033525)
112:   1425.42   0.005455   27.57  0.001194  (-0.033483  0.002629 -0.008135)
113:   1432.31   0.003186   16.10  0.000694  (-0.005498  0.025263  0.005073)
114:   1435.94   0.013543   68.44  0.002943  ( 0.018047 -0.051066  0.003110)
115:   1454.26   0.024075  121.67  0.005166  ( 0.046390 -0.013984  0.053091)
116:   1460.52   0.005005   25.29  0.001069  (-0.024290 -0.005202 -0.021266)
117:   1465.23   0.012553   63.44  0.002674  (-0.051513  0.004463  0.000283)
118:   1465.70   0.004728   23.89  0.001007  ( 0.022056  0.003014  0.022606)
119:   1465.81   0.002832   14.31  0.000603  ( 0.016588  0.012874 -0.012729)
120:   1468.89   0.013588   68.67  0.002887  ( 0.052298 -0.003147 -0.011905)
121:   1472.57   0.003190   16.12  0.000676  (-0.002590  0.025131  0.006138)
122:   1474.61   0.003142   15.88  0.000665  (-0.009330  0.021736 -0.010271)
123:   1483.69   0.005265   26.61  0.001107  ( 0.032449  0.007377  0.000029)
124:   1486.27   0.002384   12.05  0.000501  ( 0.018381 -0.009932  0.008005)
125:   1498.38   0.015460   78.13  0.003220  ( 0.049548  0.023971  0.013786)
126:   1503.27   0.015417   77.91  0.003200  (-0.018138  0.053470 -0.003533)
127:   1530.40   0.072015  363.93  0.014685  ( 0.106115  0.025501  0.052667)
128:   1531.99   0.013547   68.46  0.002760  ( 0.003567  0.016555  0.049727)
129:   1537.45   0.014415   72.85  0.002926  (-0.037464  0.023668 -0.031018)
130:   1550.41   0.173082  874.68  0.034838  (-0.109970 -0.006722 -0.150662)
131:   1645.20   0.004322   21.84  0.000820  ( 0.012374  0.009535  0.023997)
132:   1645.72   0.001478    7.47  0.000280  ( 0.009120  0.010841  0.008915)
133:   1662.49   0.012065   60.97  0.002265  ( 0.045964  0.012228 -0.001565)
134:   1689.56   0.047452  239.80  0.008764  (-0.059040  0.054324 -0.048245)
135:   1699.10   0.017694   89.42  0.003250  (-0.042730  0.037632  0.002789)
136:   1794.25   0.099105  500.83  0.017237  ( 0.008080  0.131017 -0.002419)
137:   2974.73   0.017585   88.87  0.001845  ( 0.012424  0.040977  0.003353)
138:   2982.41   0.051311  259.31  0.005369  ( 0.002330 -0.035445  0.064087)
139:   3039.27   0.012476   63.05  0.001281  ( 0.017593  0.015714  0.026917)
140:   3075.94   0.005863   29.63  0.000595  (-0.023752 -0.003970  0.003855)
141:   3084.39   0.011273   56.97  0.001141  (-0.028341  0.007877  0.016591)
142:   3087.96   0.007263   36.70  0.000734  (-0.024928 -0.006310 -0.008530)
143:   3111.80   0.007109   35.93  0.000713  (-0.007559  0.023257 -0.010719)
144:   3128.96   0.003377   17.06  0.000337  (-0.013786 -0.011937 -0.002057)
145:   3134.70   0.005313   26.85  0.000529  ( 0.015121  0.017323  0.000404)
146:   3136.18   0.004048   20.45  0.000403  (-0.004881  0.019115  0.003681)
147:   3139.99   0.005876   29.70  0.000584  (-0.013994  0.014372 -0.013476)
148:   3161.89   0.003148   15.91  0.000311  (-0.002305  0.001493 -0.017412)
149:   3168.30   0.003621   18.30  0.000357  ( 0.017927  0.002499 -0.005390)
150:   3173.96   0.003271   16.53  0.000322  ( 0.001604  0.017059  0.005295)
151:   3192.37   0.000937    4.73  0.000092  ( 0.001682 -0.003405 -0.008784)
152:   3195.36   0.001721    8.70  0.000168  (-0.004950  0.011780  0.002184)
153:   3205.07   0.000616    3.11  0.000060  (-0.007539 -0.001243  0.001253)
154:   3215.30   0.003807   19.24  0.000370  ( 0.017565  0.000887 -0.007758)
155:   3221.64   0.000103    0.52  0.000010  ( 0.001943 -0.002488  0.000132)
156:   3230.46   0.005200   26.28  0.000502  ( 0.015913 -0.010613  0.011683)
157:   3231.29   0.000663    3.35  0.000064  ( 0.002420  0.002322  0.007266)
158:   3240.91   0.000145    0.73  0.000014  ( 0.001967 -0.003037  0.000950)
159:   3243.69   0.001112    5.62  0.000107  (-0.006117  0.008310  0.000682)
160:   3263.33   0.007349   37.14  0.000703  ( 0.000072  0.024614  0.009845)
161:   3269.96   0.004167   21.06  0.000398  ( 0.014265 -0.005392  0.012850)

* The epsilon (eps) is given for a Dirac delta lineshape.
** The dipole moment derivative (T) already includes vibrational overlap.

The first frequency considered to be a vibration is 6
The total number of vibrations considered is 156


--------------------------
THERMOCHEMISTRY AT 298.15K
--------------------------

Temperature         ... 298.15 K
Pressure            ... 1.00 atm
Total Mass          ... 399.45 AMU

Throughout the following assumptions are being made:
  (1) The electronic state is orbitally nondegenerate
  (2) There are no thermally accessible electronically excited states
  (3) Hindered rotations indicated by low frequency modes are not
      treated as such but are treated as vibrations and this may
      cause some error
  (4) All equations used are the standard statistical mechanics
      equations for an ideal gas
  (5) All vibrations are strictly harmonic

freq.      17.20  E(vib)   ...       0.57 
freq.      20.44  E(vib)   ...       0.56 
freq.      33.94  E(vib)   ...       0.55 
freq.      39.12  E(vib)   ...       0.54 
freq.      42.66  E(vib)   ...       0.53 
freq.      45.50  E(vib)   ...       0.53 
freq.      58.47  E(vib)   ...       0.51 
freq.      78.05  E(vib)   ...       0.49 
freq.      84.10  E(vib)   ...       0.48 
freq.      94.37  E(vib)   ...       0.47 
freq.     104.40  E(vib)   ...       0.46 
freq.     114.67  E(vib)   ...       0.44 
freq.     121.17  E(vib)   ...       0.44 
freq.     133.44  E(vib)   ...       0.42 
freq.     141.01  E(vib)   ...       0.41 
freq.     149.29  E(vib)   ...       0.40 
freq.     160.27  E(vib)   ...       0.39 
freq.     177.66  E(vib)   ...       0.37 
freq.     192.60  E(vib)   ...       0.36 
freq.     206.84  E(vib)   ...       0.35 
freq.     211.69  E(vib)   ...       0.34 
freq.     224.59  E(vib)   ...       0.33 
freq.     227.78  E(vib)   ...       0.33 
freq.     255.98  E(vib)   ...       0.30 
freq.     257.96  E(vib)   ...       0.30 
freq.     271.12  E(vib)   ...       0.29 
freq.     282.83  E(vib)   ...       0.28 
freq.     301.68  E(vib)   ...       0.26 
freq.     316.32  E(vib)   ...       0.25 
freq.     317.73  E(vib)   ...       0.25 
freq.     337.14  E(vib)   ...       0.24 
freq.     366.09  E(vib)   ...       0.22 
freq.     380.26  E(vib)   ...       0.21 
freq.     425.22  E(vib)   ...       0.18 
freq.     442.80  E(vib)   ...       0.17 
freq.     453.65  E(vib)   ...       0.16 
freq.     485.19  E(vib)   ...       0.15 
freq.     496.40  E(vib)   ...       0.14 
freq.     505.90  E(vib)   ...       0.14 
freq.     508.83  E(vib)   ...       0.14 
freq.     545.14  E(vib)   ...       0.12 
freq.     573.75  E(vib)   ...       0.11 
freq.     587.58  E(vib)   ...       0.10 
freq.     609.66  E(vib)   ...       0.10 
freq.     653.52  E(vib)   ...       0.08 
freq.     663.20  E(vib)   ...       0.08 
freq.     671.57  E(vib)   ...       0.08 
freq.     691.45  E(vib)   ...       0.07 
freq.     708.65  E(vib)   ...       0.07 
freq.     734.47  E(vib)   ...       0.06 
freq.     742.24  E(vib)   ...       0.06 
freq.     762.24  E(vib)   ...       0.06 
freq.     772.28  E(vib)   ...       0.05 
freq.     784.37  E(vib)   ...       0.05 
freq.     796.56  E(vib)   ...       0.05 
freq.     815.35  E(vib)   ...       0.05 
freq.     831.51  E(vib)   ...       0.04 
freq.     849.81  E(vib)   ...       0.04 
freq.     862.42  E(vib)   ...       0.04 
freq.     876.44  E(vib)   ...       0.04 
freq.     879.71  E(vib)   ...       0.04 
freq.     895.72  E(vib)   ...       0.03 
freq.     929.28  E(vib)   ...       0.03 
freq.     952.20  E(vib)   ...       0.03 
freq.     955.59  E(vib)   ...       0.03 
freq.     974.87  E(vib)   ...       0.03 
freq.     986.35  E(vib)   ...       0.02 
freq.    1004.35  E(vib)   ...       0.02 
freq.    1015.05  E(vib)   ...       0.02 
freq.    1028.20  E(vib)   ...       0.02 
freq.    1048.25  E(vib)   ...       0.02 
freq.    1052.18  E(vib)   ...       0.02 
freq.    1064.00  E(vib)   ...       0.02 
freq.    1068.78  E(vib)   ...       0.02 
freq.    1080.82  E(vib)   ...       0.02 
freq.    1083.13  E(vib)   ...       0.02 
freq.    1087.96  E(vib)   ...       0.02 
freq.    1089.48  E(vib)   ...       0.02 
freq.    1117.65  E(vib)   ...       0.01 
freq.    1130.00  E(vib)   ...       0.01 
freq.    1133.04  E(vib)   ...       0.01 
freq.    1147.99  E(vib)   ...       0.01 
freq.    1160.29  E(vib)   ...       0.01 
freq.    1170.76  E(vib)   ...       0.01 
freq.    1171.67  E(vib)   ...       0.01 
freq.    1173.81  E(vib)   ...       0.01 
freq.    1177.52  E(vib)   ...       0.01 
freq.    1181.21  E(vib)   ...       0.01 
freq.    1199.65  E(vib)   ...       0.01 
freq.    1210.76  E(vib)   ...       0.01 
freq.    1218.12  E(vib)   ...       0.01 
freq.    1231.73  E(vib)   ...       0.01 
freq.    1236.94  E(vib)   ...       0.01 
freq.    1241.76  E(vib)   ...       0.01 
freq.    1266.15  E(vib)   ...       0.01 
freq.    1272.77  E(vib)   ...       0.01 
freq.    1294.84  E(vib)   ...       0.01 
freq.    1302.15  E(vib)   ...       0.01 
freq.    1308.68  E(vib)   ...       0.01 
freq.    1324.20  E(vib)   ...       0.01 
freq.    1335.13  E(vib)   ...       0.01 
freq.    1352.31  E(vib)   ...       0.01 
freq.    1382.41  E(vib)   ...       0.01 
freq.    1384.94  E(vib)   ...       0.00 
freq.    1386.20  E(vib)   ...       0.00 
freq.    1403.21  E(vib)   ...       0.00 
freq.    1425.42  E(vib)   ...       0.00 
freq.    1432.31  E(vib)   ...       0.00 
freq.    1435.94  E(vib)   ...       0.00 
freq.    1454.26  E(vib)   ...       0.00 
freq.    1460.52  E(vib)   ...       0.00 
freq.    1465.23  E(vib)   ...       0.00 
freq.    1465.70  E(vib)   ...       0.00 
freq.    1465.81  E(vib)   ...       0.00 
freq.    1468.89  E(vib)   ...       0.00 
freq.    1472.57  E(vib)   ...       0.00 
freq.    1474.61  E(vib)   ...       0.00 
freq.    1483.69  E(vib)   ...       0.00 
freq.    1486.27  E(vib)   ...       0.00 
freq.    1498.38  E(vib)   ...       0.00 
freq.    1503.27  E(vib)   ...       0.00 
freq.    1530.40  E(vib)   ...       0.00 
freq.    1531.99  E(vib)   ...       0.00 
freq.    1537.45  E(vib)   ...       0.00 
freq.    1550.41  E(vib)   ...       0.00 
freq.    1645.20  E(vib)   ...       0.00 
freq.    1645.72  E(vib)   ...       0.00 
freq.    1662.49  E(vib)   ...       0.00 
freq.    1689.56  E(vib)   ...       0.00 
freq.    1699.10  E(vib)   ...       0.00 
freq.    1794.25  E(vib)   ...       0.00 
freq.    2974.73  E(vib)   ...       0.00 
freq.    2982.41  E(vib)   ...       0.00 
freq.    3039.27  E(vib)   ...       0.00 
freq.    3075.94  E(vib)   ...       0.00 
freq.    3084.39  E(vib)   ...       0.00 
freq.    3087.96  E(vib)   ...       0.00 
freq.    3111.80  E(vib)   ...       0.00 
freq.    3128.96  E(vib)   ...       0.00 
freq.    3134.70  E(vib)   ...       0.00 
freq.    3136.18  E(vib)   ...       0.00 
freq.    3139.99  E(vib)   ...       0.00 
freq.    3161.89  E(vib)   ...       0.00 
freq.    3168.30  E(vib)   ...       0.00 
freq.    3173.96  E(vib)   ...       0.00 
freq.    3192.37  E(vib)   ...       0.00 
freq.    3195.36  E(vib)   ...       0.00 
freq.    3205.07  E(vib)   ...       0.00 
freq.    3215.30  E(vib)   ...       0.00 
freq.    3221.64  E(vib)   ...       0.00 
freq.    3230.46  E(vib)   ...       0.00 
freq.    3231.29  E(vib)   ...       0.00 
freq.    3240.91  E(vib)   ...       0.00 
freq.    3243.69  E(vib)   ...       0.00 
freq.    3263.33  E(vib)   ...       0.00 
freq.    3269.96  E(vib)   ...       0.00 

------------
INNER ENERGY
------------

The inner energy is: U= E(el) + E(ZPE) + E(vib) + E(rot) + E(trans)
    E(el)   - is the total energy from the electronic structure calculation
              = E(kin-el) + E(nuc-el) + E(el-el) + E(nuc-nuc)
    E(ZPE)  - the the zero temperature vibrational energy from the frequency calculation
    E(vib)  - the the finite temperature correction to E(ZPE) due to population
              of excited vibrational states
    E(rot)  - is the rotational thermal energy
    E(trans)- is the translational thermal energy

Summary of contributions to the inner energy U:
Electronic energy                ...  -1354.55717532 Eh
Zero point energy                ...      0.44177690 Eh     277.22 kcal/mol
Thermal vibrational correction   ...      0.02554872 Eh      16.03 kcal/mol
Thermal rotational correction    ...      0.00141627 Eh       0.89 kcal/mol
Thermal translational correction ...      0.00141627 Eh       0.89 kcal/mol
-----------------------------------------------------------------------
Total thermal energy                  -1354.08701716 Eh


Summary of corrections to the electronic energy:
(perhaps to be used in another calculation)
Total thermal correction                  0.02838127 Eh      17.81 kcal/mol
Non-thermal (ZPE) correction              0.44177690 Eh     277.22 kcal/mol
-----------------------------------------------------------------------
Total correction                          0.47015816 Eh     295.03 kcal/mol


--------
ENTHALPY
--------

The enthalpy is H = U + kB*T
                kB is Boltzmann's constant
Total free energy                 ...  -1354.08701716 Eh 
Thermal Enthalpy correction       ...      0.00094421 Eh       0.59 kcal/mol
-----------------------------------------------------------------------
Total Enthalpy                    ...  -1354.08607295 Eh


Note: Only C1 symmetry has been detected, increase convergence thresholds 
      if your molecule has a higher symmetry. Symmetry factor of 1.0 is   
      used for the rotational entropy correction. 
 

Note: Rotational entropy computed according to Herzberg 
Infrared and Raman Spectra, Chapter V,1, Van Nostrand Reinhold, 1945 
Point Group:  C1, Symmetry Number:   1  
Rotational constants in cm-1:     0.007245     0.004624     0.004416 

Vibrational entropy computed according to the QRRHO of S. Grimme
Chem.Eur.J. 2012 18 9955


-------
ENTROPY
-------

The entropy contributions are T*S = T*(S(el)+S(vib)+S(rot)+S(trans))
     S(el)   - electronic entropy
     S(vib)  - vibrational entropy
     S(rot)  - rotational entropy
     S(trans)- translational entropy
The entropies will be listed as multiplied by the temperature to get
units of energy

Electronic entropy                ...      0.00000000 Eh      0.00 kcal/mol
Vibrational entropy               ...      0.04647202 Eh     29.16 kcal/mol
Rotational entropy                ...      0.01693505 Eh     10.63 kcal/mol
Translational entropy             ...      0.02083265 Eh     13.07 kcal/mol
-----------------------------------------------------------------------
Final entropy term                ...      0.08423972 Eh     52.86 kcal/mol

In case the symmetry of your molecule has not been determined correctly
or in case you have a reason to use a different symmetry number we print 
out the resulting rotational entropy values for sn=1,12 :
 --------------------------------------------------------
|  sn= 1 | S(rot)=       0.01693505 Eh     10.63 kcal/mol|
|  sn= 2 | S(rot)=       0.01628059 Eh     10.22 kcal/mol|
|  sn= 3 | S(rot)=       0.01589776 Eh      9.98 kcal/mol|
|  sn= 4 | S(rot)=       0.01562614 Eh      9.81 kcal/mol|
|  sn= 5 | S(rot)=       0.01541545 Eh      9.67 kcal/mol|
|  sn= 6 | S(rot)=       0.01524330 Eh      9.57 kcal/mol|
|  sn= 7 | S(rot)=       0.01509776 Eh      9.47 kcal/mol|
|  sn= 8 | S(rot)=       0.01497168 Eh      9.39 kcal/mol|
|  sn= 9 | S(rot)=       0.01486047 Eh      9.33 kcal/mol|
|  sn=10 | S(rot)=       0.01476099 Eh      9.26 kcal/mol|
|  sn=11 | S(rot)=       0.01467100 Eh      9.21 kcal/mol|
|  sn=12 | S(rot)=       0.01458885 Eh      9.15 kcal/mol|
 --------------------------------------------------------


-------------------
GIBBS FREE ENERGY
-------------------

The Gibbs free energy is G = H - T*S

Total enthalpy                    ...  -1354.08607295 Eh 
Total entropy correction          ...     -0.08423972 Eh    -52.86 kcal/mol
-----------------------------------------------------------------------
Final Gibbs free energy         ...  -1354.17031267 Eh

For completeness - the Gibbs free energy minus the electronic energy
G-E(el)                           ...      0.38686265 Eh    242.76 kcal/mol


Timings for individual modules:

Sum of individual times         ...     9594.220 sec (= 159.904 min)
GTO integral calculation        ...       57.167 sec (=   0.953 min)   0.6 %
SCF iterations                  ...     2893.559 sec (=  48.226 min)  30.2 %
SCF Gradient evaluation         ...      878.562 sec (=  14.643 min)   9.2 %
Geometry relaxation             ...        4.756 sec (=   0.079 min)   0.0 %
Analytical frequency calculation...     5760.175 sec (=  96.003 min)  60.0 %
                             ****ORCA TERMINATED NORMALLY****
TOTAL RUN TIME: 0 days 2 hours 40 minutes 49 seconds 105 msec
