
                                 *****************
                                 * O   R   C   A *
                                 *****************

                                            #,                                       
                                            ###                                      
                                            ####                                     
                                            #####                                    
                                            ######                                   
                                           ########,                                 
                                     ,,################,,,,,                         
                               ,,#################################,,                 
                          ,,##########################################,,             
                       ,#########################################, ''#####,          
                    ,#############################################,,   '####,        
                  ,##################################################,,,,####,       
                ,###########''''           ''''###############################       
              ,#####''   ,,,,##########,,,,          '''####'''          '####       
            ,##' ,,,,###########################,,,                        '##       
           ' ,,###''''                  '''############,,,                           
         ,,##''                                '''############,,,,        ,,,,,,###''
      ,#''                                            '''#######################'''  
     '                                                          ''''####''''         
             ,#######,   #######,   ,#######,      ##                                
            ,#'     '#,  ##    ##  ,#'     '#,    #''#        ######   ,####,        
            ##       ##  ##   ,#'  ##            #'  '#       #        #'  '#        
            ##       ##  #######   ##           ,######,      #####,   #    #        
            '#,     ,#'  ##    ##  '#,     ,#' ,#      #,         ##   #,  ,#        
             '#######'   ##     ##  '#######'  #'      '#     #####' # '####'        



                  #######################################################
                  #                        -***-                        #
                  #          Department of theory and spectroscopy      #
                  #    Directorship and core code : Frank Neese         #
                  #        Max Planck Institute fuer Kohlenforschung    #
                  #                Kaiser Wilhelm Platz 1               #
                  #                 D-45470 Muelheim/Ruhr               #
                  #                      Germany                        #
                  #                                                     #
                  #                  All rights reserved                #
                  #                        -***-                        #
                  #######################################################


                         Program Version 5.0.4 -  RELEASE  -


 With contributions from (in alphabetic order):
   Daniel Aravena         : Magnetic Suceptibility
   Michael Atanasov       : Ab Initio Ligand Field Theory (pilot matlab implementation)
   Alexander A. Auer      : GIAO ZORA, VPT2 properties, NMR spectrum
   Ute Becker             : Parallelization
   Giovanni Bistoni       : ED, misc. LED, open-shell LED, HFLD
   Martin Brehm           : Molecular dynamics
   Dmytro Bykov           : SCF Hessian
   Vijay G. Chilkuri      : MRCI spin determinant printing, contributions to CSF-ICE
   Dipayan Datta          : RHF DLPNO-CCSD density
   Achintya Kumar Dutta   : EOM-CC, STEOM-CC
   Dmitry Ganyushin       : Spin-Orbit,Spin-Spin,Magnetic field MRCI
   Miquel Garcia          : C-PCM and meta-GGA Hessian, CC/C-PCM, Gaussian charge scheme
   Yang Guo               : DLPNO-NEVPT2, F12-NEVPT2, CIM, IAO-localization
   Andreas Hansen         : Spin unrestricted coupled pair/coupled cluster methods
   Benjamin Helmich-Paris : MC-RPA, TRAH-SCF, COSX integrals
   Lee Huntington         : MR-EOM, pCC
   Robert Izsak           : Overlap fitted RIJCOSX, COSX-SCS-MP3, EOM
   Marcus Kettner         : VPT2
   Christian Kollmar      : KDIIS, OOCD, Brueckner-CCSD(T), CCSD density, CASPT2, CASPT2-K
   Simone Kossmann        : Meta GGA functionals, TD-DFT gradient, OOMP2, MP2 Hessian
   Martin Krupicka        : Initial AUTO-CI
   Lucas Lang             : DCDCAS
   Marvin Lechner         : AUTO-CI (C++ implementation), FIC-MRCC
   Dagmar Lenk            : GEPOL surface, SMD
   Dimitrios Liakos       : Extrapolation schemes; Compound Job, initial MDCI parallelization
   Dimitrios Manganas     : Further ROCIS development; embedding schemes
   Dimitrios Pantazis     : SARC Basis sets
   Anastasios Papadopoulos: AUTO-CI, single reference methods and gradients
   Taras Petrenko         : DFT Hessian,TD-DFT gradient, ASA, ECA, R-Raman, ABS, FL, XAS/XES, NRVS
   Peter Pinski           : DLPNO-MP2, DLPNO-MP2 Gradient
   Christoph Reimann      : Effective Core Potentials
   Marius Retegan         : Local ZFS, SOC
   Christoph Riplinger    : Optimizer, TS searches, QM/MM, DLPNO-CCSD(T), (RO)-DLPNO pert. Triples
   Tobias Risthaus        : Range-separated hybrids, TD-DFT gradient, RPA, STAB
   Michael Roemelt        : Original ROCIS implementation
   Masaaki Saitow         : Open-shell DLPNO-CCSD energy and density
   Barbara Sandhoefer     : DKH picture change effects
   Avijit Sen             : IP-ROCIS
   Kantharuban Sivalingam : CASSCF convergence, NEVPT2, FIC-MRCI
   Bernardo de Souza      : ESD, SOC TD-DFT
   Georgi Stoychev        : AutoAux, RI-MP2 NMR, DLPNO-MP2 response
   Willem Van den Heuvel  : Paramagnetic NMR
   Boris Wezisla          : Elementary symmetry handling
   Frank Wennmohs         : Technical directorship


 We gratefully acknowledge several colleagues who have allowed us to
 interface, adapt or use parts of their codes:
   Stefan Grimme, W. Hujo, H. Kruse, P. Pracht,  : VdW corrections, initial TS optimization,
                  C. Bannwarth, S. Ehlert          DFT functionals, gCP, sTDA/sTD-DF
   Ed Valeev, F. Pavosevic, A. Kumar             : LibInt (2-el integral package), F12 methods
   Garnet Chan, S. Sharma, J. Yang, R. Olivares  : DMRG
   Ulf Ekstrom                                   : XCFun DFT Library
   Mihaly Kallay                                 : mrcc  (arbitrary order and MRCC methods)
   Jiri Pittner, Ondrej Demel                    : Mk-CCSD
   Frank Weinhold                                : gennbo (NPA and NBO analysis)
   Christopher J. Cramer and Donald G. Truhlar   : smd solvation model
   Lars Goerigk                                  : TD-DFT with DH, B97 family of functionals
   V. Asgeirsson, H. Jonsson                     : NEB implementation
   FAccTs GmbH                                   : IRC, NEB, NEB-TS, DLPNO-Multilevel, CI-OPT
                                                   MM, QMMM, 2- and 3-layer-ONIOM, Crystal-QMMM,
                                                   LR-CPCM, SF, NACMEs, symmetry and pop. for TD-DFT,
                                                   nearIR, NL-DFT gradient (VV10), updates on ESD,
                                                   ML-optimized integration grids
   S Lehtola, MJT Oliveira, MAL Marques          : LibXC Library
   Liviu Ungur et al                             : ANISO software


 Your calculation uses the libint2 library for the computation of 2-el integrals
 For citations please refer to: http://libint.valeyev.net

 Your ORCA version has been built with support for libXC version: 5.1.0
 For citations please refer to: https://tddft.org/programs/libxc/

 This ORCA versions uses:
   CBLAS   interface :  Fast vector & matrix operations
   LAPACKE interface :  Fast linear algebra routines
   SCALAPACK package :  Parallel linear algebra routines
   Shared memory     :  Shared parallel matrices
   BLAS/LAPACK       :  OpenBLAS 0.3.15  USE64BITINT DYNAMIC_ARCH NO_AFFINITY Haswell SINGLE_THREADED
        Core in use  :  Haswell
   Copyright (c) 2011-2014, The OpenBLAS Project


Your calculation utilizes the atom-pairwise dispersion correction
with the Becke-Johnson damping scheme (D3BJ)
Cite in your paper:
S.Grimme, S.Ehrlich, L.Goerigk, J Comput Chem, (2011), 32, 1456–1465 
S.Grimme, J.Antony, S.Ehrlich and H.Krieg, J.Chem.Phys., 132, (2010), 154104 
   

================================================================================

----- Orbital basis set information -----
Your calculation utilizes the basis: def2-TZVP
   F. Weigend and R. Ahlrichs, Phys. Chem. Chem. Phys. 7, 3297 (2005).

----- AuxJ basis set information -----
Your calculation utilizes the auxiliary basis: def2/J
   F. Weigend, Phys. Chem. Chem. Phys. 8, 1057 (2006).

================================================================================
                                        WARNINGS
                       Please study these warnings very carefully!
================================================================================


WARNING: Geometry Optimization
  ===> : Switching off AutoStart
         For restart on a previous wavefunction, please use MOREAD

INFO   : the flag for use of the SHARK integral package has been found!

================================================================================
                                       INPUT FILE
================================================================================
NAME = IM_CCH/IM_CCH.inp
|  1> %pal nprocs 24 end
|  2> ! PBE0 D3BJ def2-TZVP TightSCF OPT FREQ TightOpt
|  3> ! CPCM(dmso)
|  4> %scf
|  5> MaxIter 800
|  6> end
|  7> 
|  8> %geom
|  9> MaxIter 800
| 10> MaxStep 0.15
| 11> end
| 12> 
| 13> *xyz 0 1
| 14> C      -0.85108600     -3.51057900      2.23582900
| 15> C       0.04044100     -2.66804500      2.89919000
| 16> C       0.12057000     -1.34262500      2.52169900
| 17> N      -0.65396800     -0.86333300      1.52661300
| 18> C      -1.52843500     -1.65839200      0.87637700
| 19> C      -1.64631700     -2.99323900      1.21648500
| 20> C      -0.46884100      0.52194000      1.07932700
| 21> C      -1.76796700      1.29918300      1.23327000
| 22> O      -2.86548000      0.80471800      1.30456800
| 23> O      -1.50334400      2.58908800      1.31784700
| 24> C      -2.61189000      3.48059200      1.23722500
| 25> H      -0.92391100     -4.56456600      2.51282700
| 26> H       0.80173500     -0.63280600      2.99198700
| 27> H      -2.11637600     -1.19727100      0.08636700
| 28> H      -2.35626000     -3.61642700      0.67173300
| 29> H       0.27244800      0.98043700      1.74550900
| 30> H      -2.21201800      4.48208200      1.42802200
| 31> H      -3.37535200      3.22144800      1.98299000
| 32> H       0.68070200     -3.02968700      3.70451900
| 33> C       0.29888500      1.89453100     -0.93326900
| 34> C       0.10164000      0.51766100     -0.38069600
| 35> C       1.31304400     -0.38649900     -0.41466300
| 36> C       2.46672400     -0.11467400      0.32206200
| 37> C       3.55067200     -0.99314900      0.33319200
| 38> C       3.47649300     -2.17433400     -0.39966900
| 39> C       2.33086100     -2.48175000     -1.13348500
| 40> C       1.24749100     -1.59524300     -1.14220200
| 41> O       0.09802400     -1.83759400     -1.80650800
| 42> C      -0.08134300     -3.07876600     -2.44718700
| 43> N      -0.80083200      2.49512700     -1.47418000
| 44> O      -0.73659900      3.65183400     -1.93025300
| 45> H      -0.67571600      0.06520200     -1.00761100
| 46> H       2.51809200      0.80730100      0.90556800
| 47> H       4.44313200     -0.75498500      0.91588100
| 48> H       4.31417300     -2.87645200     -0.40087700
| 49> H       2.28481000     -3.41604600     -1.69352300
| 50> H      -1.09378300     -3.06635900     -2.86887300
| 51> H       0.00451700     -3.91443900     -1.73264400
| 52> H       0.64740300     -3.22404600     -3.26157500
| 53> O      -1.89203200      1.86718700     -1.49519300
| 54> H      -3.03620000      3.42334100      0.22463800
| 55> C       1.47519500      2.65347800     -0.81436300
| 56> C       2.51204300      3.28572700     -0.67611500
| 57> H       3.42807100      3.84120500     -0.57806100
| 58> *
| 59> 
| 60>                          ****END OF INPUT****
================================================================================

                       *****************************
                       * Geometry Optimization Run *
                       *****************************

Geometry optimization settings:
Update method            Update   .... BFGS
Choice of coordinates    CoordSys .... Z-matrix Internals
Initial Hessian          InHess   .... Almoef's Model

Convergence Tolerances:
Energy Change            TolE     ....  1.0000e-06 Eh
Max. Gradient            TolMAXG  ....  1.0000e-04 Eh/bohr
RMS Gradient             TolRMSG  ....  3.0000e-05 Eh/bohr
Max. Displacement        TolMAXD  ....  1.0000e-03 bohr
RMS Displacement         TolRMSD  ....  6.0000e-04 bohr
Strict Convergence                ....  False
------------------------------------------------------------------------------
                        ORCA OPTIMIZATION COORDINATE SETUP
------------------------------------------------------------------------------

The optimization will be done in new redundant internal coordinates
Making redundant internal coordinates   ...  (new redundants) done
Evaluating the initial hessian          ...  (Almloef) done
Evaluating the coordinates              ...  done
Calculating the B-matrix                .... done
Calculating the G-matrix                .... done
Diagonalizing the G-matrix              .... done
Small eigenvalue found = 4.281e-03
Small eigenvalue found = 7.404e-03
Small eigenvalue found = 7.511e-03
Small eigenvalue found = 9.631e-03
Small eigenvalue found = 1.457e-02
Small eigenvalue found = 2.287e-02
Small eigenvalue found = 2.716e-02
Small eigenvalue found = 2.794e-02
The first mode is                       ....   90
The number of degrees of freedom        ....  126

    -----------------------------------------------------------------
                    Redundant Internal Coordinates


    -----------------------------------------------------------------
         Definition                    Initial Value    Approx d2E/dq
    -----------------------------------------------------------------
      1. B(C   1,C   0)                  1.3945         0.614470   
      2. B(C   2,C   1)                  1.3805         0.647091   
      3. B(N   3,C   2)                  1.3490         0.650539   
      4. B(C   4,N   3)                  1.3489         0.650723   
      5. B(C   5,C   4)                  1.3825         0.642182   
      6. B(C   5,C   0)                  1.3925         0.619053   
      7. B(C   6,N   3)                  1.4674         0.421074   
      8. B(C   7,C   6)                  1.5217         0.385158   
      9. B(O   8,C   7)                  1.2059         1.100649   
     10. B(O   9,C   7)                  1.3195         0.725073   
     11. B(C  10,O   9)                  1.4248         0.492379   
     12. B(H  11,C   0)                  1.0922         0.357190   
     13. B(H  12,C   2)                  1.0904         0.359555   
     14. B(H  13,C   4)                  1.0874         0.363566   
     15. B(H  14,C   5)                  1.0905         0.359471   
     16. B(H  15,C   6)                  1.0971         0.350888   
     17. B(H  16,C  10)                  1.0951         0.353393   
     18. B(H  17,C  10)                  1.0983         0.349325   
     19. B(H  18,C   1)                  1.0905         0.359389   
     20. B(C  20,C  19)                  1.4967         0.422238   
     21. B(C  20,C   6)                  1.5675         0.325469   
     22. B(C  21,C  20)                  1.5120         0.399105   
     23. B(C  22,C  21)                  1.3956         0.612130   
     24. B(C  23,C  22)                  1.3953         0.612811   
     25. B(C  24,C  23)                  1.3920         0.620123   
     26. B(C  25,C  24)                  1.3948         0.613879   
     27. B(C  26,C  25)                  1.3999         0.602528   
     28. B(C  26,C  21)                  1.4123         0.575592   
     29. B(O  27,C  26)                  1.3496         0.649226   
     30. B(C  28,O  27)                  1.4082         0.523322   
     31. B(N  29,C  19)                  1.3648         0.613877   
     32. B(O  30,N  29)                  1.2450         0.853695   
     33. B(H  31,C  20)                  1.0964         0.351773   
     34. B(H  32,C  22)                  1.0923         0.357048   
     35. B(H  33,C  23)                  1.0921         0.357302   
     36. B(H  34,C  24)                  1.0930         0.356135   
     37. B(H  35,C  25)                  1.0903         0.359753   
     38. B(H  36,C  28)                  1.0968         0.351194   
     39. B(H  37,H  11)                  4.3942         0.000000   
     40. B(H  37,C  28)                  1.1029         0.343488   
     41. B(H  38,C  28)                  1.1025         0.343996   
     42. B(O  39,N  29)                  1.2592         0.810531   
     43. B(H  40,C  10)                  1.0994         0.347895   
     44. B(C  41,C  19)                  1.4049         0.591438   
     45. B(C  42,C  41)                  1.2223         1.157088   
     46. B(H  43,C  42)                  1.0758         0.379427   
     47. A(C   1,C   0,C   5)          119.2644         0.433248   
     48. A(C   5,C   0,H  11)          120.4034         0.352334   
     49. A(C   1,C   0,H  11)          120.3321         0.351891   
     50. A(C   2,C   1,H  18)          119.0948         0.355357   
     51. A(C   0,C   1,H  18)          121.7533         0.352256   
     52. A(C   0,C   1,C   2)          119.1509         0.436717   
     53. A(C   1,C   2,N   3)          120.6313         0.438337   
     54. A(C   1,C   2,H  12)          122.9108         0.355385   
     55. A(N   3,C   2,H  12)          116.4568         0.353511   
     56. A(C   2,N   3,C   6)          119.1968         0.403354   
     57. A(C   4,N   3,C   6)          119.4233         0.403375   
     58. A(C   2,N   3,C   4)          121.2228         0.435901   
     59. A(N   3,C   4,H  13)          116.7936         0.354193   
     60. A(C   5,C   4,H  13)          122.8240         0.355594   
     61. A(N   3,C   4,C   5)          120.3820         0.437757   
     62. A(C   0,C   5,C   4)          119.3464         0.436702   
     63. A(C   0,C   5,H  14)          121.6791         0.352713   
     64. A(C   4,C   5,H  14)          118.9726         0.354912   
     65. A(C   7,C   6,C  20)          113.9745         0.356768   
     66. A(N   3,C   6,C  20)          109.1016         0.359978   
     67. A(H  15,C   6,C  20)          108.7129         0.315756   
     68. A(N   3,C   6,H  15)          107.1389         0.327389   
     69. A(N   3,C   6,C   7)          110.0988         0.370505   
     70. A(C   7,C   6,H  15)          107.5763         0.324565   
     71. A(C   6,C   7,O   9)          109.5478         0.407351   
     72. A(C   6,C   7,O   8)          124.9992         0.438892   
     73. A(O   8,C   7,O   9)          125.4223         0.489433   
     74. A(C   7,O   9,C  10)          116.8724         0.422779   
     75. A(O   9,C  10,H  40)          108.6514         0.335503   
     76. A(H  16,C  10,H  17)          110.5672         0.288605   
     77. A(O   9,C  10,H  17)          110.7800         0.335732   
     78. A(O   9,C  10,H  16)          106.1559         0.336379   
     79. A(H  17,C  10,H  40)          110.1722         0.287898   
     80. A(H  16,C  10,H  40)          110.4274         0.288420   
     81. A(C  20,C  19,N  29)          116.4215         0.402024   
     82. A(N  29,C  19,C  41)          118.0648         0.426833   
     83. A(C  20,C  19,C  41)          125.1737         0.401972   
     84. A(C  21,C  20,H  31)          107.9651         0.326605   
     85. A(C  19,C  20,H  31)          105.1879         0.329654   
     86. A(C   6,C  20,H  31)          106.0025         0.315885   
     87. A(C  19,C  20,C  21)          115.8642         0.375314   
     88. A(C   6,C  20,C  21)          108.3089         0.358932   
     89. A(C   6,C  20,C  19)          112.9131         0.362397   
     90. A(C  22,C  21,C  26)          118.4902         0.427330   
     91. A(C  20,C  21,C  26)          119.0894         0.396112   
     92. A(C  20,C  21,C  22)          122.2752         0.400420   
     93. A(C  23,C  22,H  32)          119.3819         0.351707   
     94. A(C  21,C  22,H  32)          119.0306         0.351641   
     95. A(C  21,C  22,C  23)          121.5871         0.432163   
     96. A(C  24,C  23,H  33)          120.6289         0.352455   
     97. A(C  22,C  23,H  33)          120.1190         0.351749   
     98. A(C  22,C  23,C  24)          119.2513         0.433172   
     99. A(C  25,C  24,H  34)          119.1649         0.351658   
    100. A(C  23,C  24,H  34)          120.3187         0.352260   
    101. A(C  23,C  24,C  25)          120.5149         0.433307   
    102. A(C  26,C  25,H  35)          120.4505         0.351150   
    103. A(C  24,C  25,H  35)          119.5915         0.352259   
    104. A(C  24,C  25,C  26)          119.9573         0.431072   
    105. A(C  25,C  26,O  27)          123.2644         0.432583   
    106. A(C  21,C  26,O  27)          116.5382         0.429045   
    107. A(C  21,C  26,C  25)          120.1894         0.426122   
    108. A(C  26,O  27,C  28)          119.3867         0.419057   
    109. A(H  36,C  28,H  38)          109.1265         0.287631   
    110. A(O  27,C  28,H  38)          111.5938         0.338290   
    111. A(H  36,C  28,H  37)          109.2402         0.287565   
    112. A(O  27,C  28,H  37)          111.2944         0.338207   
    113. A(O  27,C  28,H  36)          106.4102         0.339461   
    114. A(H  37,C  28,H  38)          109.1045         0.286636   
    115. A(C  19,N  29,O  30)          120.8274         0.450019   
    116. A(O  30,N  29,O  39)          120.1270         0.470229   
    117. A(C  19,N  29,O  39)          119.0418         0.445804   
    118. L(C  19,C  41,C  42,N  29, 2) 178.0848         0.482186   
    119. L(C  19,C  41,C  42,N  29, 1) 181.9747         0.482186   
    120. L(C  41,C  42,H  43, 2)       178.5151         0.396557   
    121. L(C  41,C  42,H  43, 1)       180.1414         0.396557   
    122. D(C   2,C   1,C   0,H  11)    179.4602         0.026099   
    123. D(H  18,C   1,C   0,C   5)    179.8711         0.026099   
    124. D(C   2,C   1,C   0,C   5)     -0.5059         0.026099   
    125. D(H  18,C   1,C   0,H  11)     -0.1628         0.026099   
    126. D(N   3,C   2,C   1,H  18)    179.7934         0.029136   
    127. D(H  12,C   2,C   1,C   0)   -179.4428         0.029136   
    128. D(H  12,C   2,C   1,H  18)      0.1903         0.029136   
    129. D(N   3,C   2,C   1,C   0)      0.1602         0.029136   
    130. D(C   4,N   3,C   2,H  12)    179.8377         0.034542   
    131. D(C   6,N   3,C   2,H  12)      4.4217         0.034542   
    132. D(C   4,N   3,C   2,C   1)      0.2099         0.034542   
    133. D(C   6,N   3,C   2,C   1)   -175.2061         0.034542   
    134. D(C   5,C   4,N   3,C   6)    175.1810         0.034564   
    135. D(C   5,C   4,N   3,C   2)     -0.2248         0.034564   
    136. D(H  13,C   4,N   3,C   2)   -179.9924         0.034564   
    137. D(H  13,C   4,N   3,C   6)     -4.5866         0.034564   
    138. D(H  14,C   5,C   4,H  13)      0.1172         0.028666   
    139. D(C   0,C   5,C   4,H  13)    179.6221         0.028666   
    140. D(H  14,C   5,C   0,H  11)      0.0169         0.026513   
    141. D(C   0,C   5,C   4,N   3)     -0.1310         0.028666   
    142. D(H  14,C   5,C   0,C   1)    179.9830         0.026513   
    143. D(H  14,C   5,C   4,N   3)   -179.6358         0.028666   
    144. D(C   4,C   5,C   0,H  11)   -179.4741         0.026513   
    145. D(C   4,C   5,C   0,C   1)      0.4920         0.026513   
    146. D(C  20,C   6,N   3,C   4)    -62.8623         0.015118   
    147. D(C  20,C   6,N   3,C   2)    112.6373         0.015118   
    148. D(H  15,C   6,N   3,C   4)    179.6153         0.015118   
    149. D(C   7,C   6,N   3,C   2)   -121.5868         0.015118   
    150. D(H  15,C   6,N   3,C   2)     -4.8850         0.015118   
    151. D(C   7,C   6,N   3,C   4)     62.9136         0.015118   
    152. D(O   8,C   7,C   6,N   3)    -21.2356         0.011052   
    153. D(O   9,C   7,C   6,C  20)    -80.1992         0.011052   
    154. D(O   9,C   7,C   6,H  15)     40.4098         0.011052   
    155. D(O   9,C   7,C   6,N   3)    156.8381         0.011052   
    156. D(O   8,C   7,C   6,C  20)    101.7271         0.011052   
    157. D(O   8,C   7,C   6,H  15)   -137.6639         0.011052   
    158. D(C  10,O   9,C   7,O   8)    -12.3144         0.039646   
    159. D(C  10,O   9,C   7,C   6)    169.6220         0.039646   
    160. D(H  40,C  10,O   9,C   7)    -66.8769         0.019149   
    161. D(H  17,C  10,O   9,C   7)     54.2788         0.019149   
    162. D(H  16,C  10,O   9,C   7)    174.3533         0.019149   
    163. D(H  31,C  20,C  19,C  41)   -154.8475         0.013179   
    164. D(C  21,C  20,C  19,C  41)    -35.7179         0.013179   
    165. D(C  21,C  20,C  19,N  29)    151.1335         0.013179   
    166. D(C   6,C  20,C  19,C  41)     90.0099         0.013179   
    167. D(C   6,C  20,C  19,N  29)    -83.1388         0.013179   
    168. D(H  31,C  20,C   6,H  15)   -179.2498         0.008651   
    169. D(H  31,C  20,C   6,C   7)    -59.2785         0.008651   
    170. D(H  31,C  20,C   6,N   3)     64.2262         0.008651   
    171. D(C  21,C  20,C   6,H  15)     65.0998         0.008651   
    172. D(C  21,C  20,C   6,C   7)   -174.9289         0.008651   
    173. D(C  21,C  20,C   6,N   3)    -51.4242         0.008651   
    174. D(C  19,C  20,C   6,H  15)    -64.5971         0.008651   
    175. D(H  31,C  20,C  19,N  29)     32.0038         0.013179   
    176. D(C  19,C  20,C   6,N   3)    178.8789         0.008651   
    177. D(C  19,C  20,C   6,C   7)     55.3742         0.008651   
    178. D(C  26,C  21,C  20,H  31)     -2.2356         0.011824   
    179. D(C  26,C  21,C  20,C  19)   -119.8338         0.011824   
    180. D(C  26,C  21,C  20,C   6)    112.1297         0.011824   
    181. D(C  22,C  21,C  20,H  31)   -177.7888         0.011824   
    182. D(C  22,C  21,C  20,C  19)     64.6131         0.011824   
    183. D(C  22,C  21,C  20,C   6)    -63.4234         0.011824   
    184. D(C  23,C  22,C  21,C  20)    176.7102         0.025889   
    185. D(H  32,C  22,C  21,C  26)   -178.6705         0.025889   
    186. D(H  32,C  22,C  21,C  20)     -3.0918         0.025889   
    187. D(C  23,C  22,C  21,C  26)      1.1316         0.025889   
    188. D(H  33,C  23,C  22,H  32)     -0.3887         0.025950   
    189. D(H  33,C  23,C  22,C  21)    179.8099         0.025950   
    190. D(C  24,C  23,C  22,H  32)    179.2993         0.025950   
    191. D(C  24,C  23,C  22,C  21)     -0.5021         0.025950   
    192. D(H  34,C  24,C  23,H  33)     -0.1260         0.026611   
    193. D(H  34,C  24,C  23,C  22)   -179.8124         0.026611   
    194. D(C  25,C  24,C  23,H  33)    179.4270         0.026611   
    195. D(C  25,C  24,C  23,C  22)     -0.2593         0.026611   
    196. D(H  35,C  25,C  24,H  34)      0.2098         0.026046   
    197. D(H  35,C  25,C  24,C  23)   -179.3484         0.026046   
    198. D(C  26,C  25,C  24,H  34)    179.9164         0.026046   
    199. D(C  26,C  25,C  24,C  23)      0.3582         0.026046   
    200. D(O  27,C  26,C  25,H  35)      1.0601         0.025039   
    201. D(O  27,C  26,C  25,C  24)   -178.6440         0.025039   
    202. D(C  21,C  26,C  25,H  35)    179.9952         0.025039   
    203. D(C  21,C  26,C  25,C  24)      0.2911         0.025039   
    204. D(O  27,C  26,C  21,C  22)    177.9871         0.022746   
    205. D(O  27,C  26,C  21,C  20)      2.2646         0.022746   
    206. D(C  25,C  26,C  21,C  22)     -1.0177         0.022746   
    207. D(C  25,C  26,C  21,C  20)   -176.7401         0.022746   
    208. D(C  28,O  27,C  26,C  25)      4.9058         0.031144   
    209. D(C  28,O  27,C  26,C  21)   -174.0654         0.031144   
    210. D(H  38,C  28,O  27,C  26)    -63.9084         0.021724   
    211. D(H  37,C  28,O  27,C  26)     58.2366         0.021724   
    212. D(H  36,C  28,O  27,C  26)    177.1499         0.021724   
    213. D(O  39,N  29,C  19,C  41)   -174.5757         0.030468   
    214. D(O  39,N  29,C  19,C  20)     -0.9202         0.030468   
    215. D(O  30,N  29,C  19,C  41)      4.7273         0.030468   
    216. D(O  30,N  29,C  19,C  20)    178.3829         0.030468   
    -----------------------------------------------------------------

Number of atoms                         .... 44
Number of degrees of freedom            .... 216

         *************************************************************
         *                GEOMETRY OPTIMIZATION CYCLE   1            *
         *************************************************************
---------------------------------
CARTESIAN COORDINATES (ANGSTROEM)
---------------------------------
  C     -0.851086   -3.510579    2.235829
  C      0.040441   -2.668045    2.899190
  C      0.120570   -1.342625    2.521699
  N     -0.653968   -0.863333    1.526613
  C     -1.528435   -1.658392    0.876377
  C     -1.646317   -2.993239    1.216485
  C     -0.468841    0.521940    1.079327
  C     -1.767967    1.299183    1.233270
  O     -2.865480    0.804718    1.304568
  O     -1.503344    2.589088    1.317847
  C     -2.611890    3.480592    1.237225
  H     -0.923911   -4.564566    2.512827
  H      0.801735   -0.632806    2.991987
  H     -2.116376   -1.197271    0.086367
  H     -2.356260   -3.616427    0.671733
  H      0.272448    0.980437    1.745509
  H     -2.212018    4.482082    1.428022
  H     -3.375352    3.221448    1.982990
  H      0.680702   -3.029687    3.704519
  C      0.298885    1.894531   -0.933269
  C      0.101640    0.517661   -0.380696
  C      1.313044   -0.386499   -0.414663
  C      2.466724   -0.114674    0.322062
  C      3.550672   -0.993149    0.333192
  C      3.476493   -2.174334   -0.399669
  C      2.330861   -2.481750   -1.133485
  C      1.247491   -1.595243   -1.142202
  O      0.098024   -1.837594   -1.806508
  C     -0.081343   -3.078766   -2.447187
  N     -0.800832    2.495127   -1.474180
  O     -0.736599    3.651834   -1.930253
  H     -0.675716    0.065202   -1.007611
  H      2.518092    0.807301    0.905568
  H      4.443132   -0.754985    0.915881
  H      4.314173   -2.876452   -0.400877
  H      2.284810   -3.416046   -1.693523
  H     -1.093783   -3.066359   -2.868873
  H      0.004517   -3.914439   -1.732644
  H      0.647403   -3.224046   -3.261575
  O     -1.892032    1.867187   -1.495193
  H     -3.036200    3.423341    0.224638
  C      1.475195    2.653478   -0.814363
  C      2.512043    3.285727   -0.676115
  H      3.428071    3.841205   -0.578061

----------------------------
CARTESIAN COORDINATES (A.U.)
----------------------------
  NO LB      ZA    FRAG     MASS         X           Y           Z
   0 C     6.0000    0    12.011   -1.608319   -6.634033    4.225104
   1 C     6.0000    0    12.011    0.076422   -5.041874    5.478675
   2 C     6.0000    0    12.011    0.227844   -2.537194    4.765321
   3 N     7.0000    0    14.007   -1.235820   -1.631463    2.884880
   4 C     6.0000    0    12.011   -2.888324   -3.133907    1.656113
   5 C     6.0000    0    12.011   -3.111088   -5.656402    2.298823
   6 C     6.0000    0    12.011   -0.885981    0.986324    2.039632
   7 C     6.0000    0    12.011   -3.340973    2.455100    2.330543
   8 O     8.0000    0    15.999   -5.414972    1.520697    2.465276
   9 O     8.0000    0    15.999   -2.840908    4.892667    2.490370
  10 C     6.0000    0    12.011   -4.935757    6.577366    2.338016
  11 H     1.0000    0     1.008   -1.745939   -8.625780    4.748555
  12 H     1.0000    0     1.008    1.515060   -1.195830    5.654036
  13 H     1.0000    0     1.008   -3.999371   -2.262514    0.163210
  14 H     1.0000    0     1.008   -4.452686   -6.834057    1.269391
  15 H     1.0000    0     1.008    0.514852    1.852757    3.298534
  16 H     1.0000    0     1.008   -4.180108    8.469907    2.698570
  17 H     1.0000    0     1.008   -6.378491    6.087654    3.747308
  18 H     1.0000    0     1.008    1.286340   -5.725279    7.000526
  19 C     6.0000    0    12.011    0.564811    3.580145   -1.763623
  20 C     6.0000    0    12.011    0.192072    0.978238   -0.719411
  21 C     6.0000    0    12.011    2.481294   -0.730377   -0.783600
  22 C     6.0000    0    12.011    4.661433   -0.216702    0.608609
  23 C     6.0000    0    12.011    6.709798   -1.876780    0.629642
  24 C     6.0000    0    12.011    6.569620   -4.108896   -0.755265
  25 C     6.0000    0    12.011    4.404689   -4.689828   -2.141976
  26 C     6.0000    0    12.011    2.357416   -3.014572   -2.158449
  27 O     8.0000    0    15.999    0.185239   -3.472549   -3.413805
  28 C     6.0000    0    12.011   -0.153716   -5.818025   -4.624513
  29 N     7.0000    0    14.007   -1.513353    4.715107   -2.785796
  30 O     8.0000    0    15.999   -1.391970    6.900966   -3.647650
  31 H     1.0000    0     1.008   -1.276918    0.123214   -1.904109
  32 H     1.0000    0     1.008    4.758504    1.525578    1.711276
  33 H     1.0000    0     1.008    8.396303   -1.426715    1.730764
  34 H     1.0000    0     1.008    8.152605   -5.435707   -0.757548
  35 H     1.0000    0     1.008    4.317665   -6.455391   -3.200295
  36 H     1.0000    0     1.008   -2.066950   -5.794579   -5.421384
  37 H     1.0000    0     1.008    0.008536   -7.397218   -3.274223
  38 H     1.0000    0     1.008    1.223414   -6.092564   -6.163484
  39 O     8.0000    0    15.999   -3.575422    3.528472   -2.825505
  40 H     1.0000    0     1.008   -5.737586    6.469177    0.424504
  41 C     6.0000    0    12.011    2.787715    5.014347   -1.538923
  42 C     6.0000    0    12.011    4.747073    6.209124   -1.277672
  43 H     1.0000    0     1.008    6.478115    7.258825   -1.092377

--------------------------------
INTERNAL COORDINATES (ANGSTROEM)
--------------------------------
 C      0   0   0     0.000000000000     0.00000000     0.00000000
 C      1   0   0     1.394536392213     0.00000000     0.00000000
 C      2   1   0     1.380455826212   119.15088553     0.00000000
 N      3   2   1     1.349009296522   120.63128273     0.16021780
 C      4   3   2     1.348932245617   121.22275228     0.20994550
 C      5   4   3     1.382528889751   120.38198085   359.77516541
 C      4   3   2     1.467418841522   119.19675498   184.79393943
 C      7   4   3     1.521687711777   110.09884896   238.41317898
 O      8   7   4     1.205866421374   124.99918985   338.76444108
 O      8   7   4     1.319482288658   109.54784628   156.83809953
 C     10   8   7     1.424834559876   116.87241814   169.62197349
 H      1   2   3     1.092208756968   120.33211997   179.46023030
 H      3   2   1     1.090412570053   122.91077393   180.55715782
 H      5   4   3     1.087392751595   116.79359932   180.00764217
 H      6   5   4     1.090475624715   118.97262093   180.36418182
 H      7   4   3     1.097053935618   107.13891935   355.11495092
 H     11  10   8     1.095117953324   106.15589013   174.35327058
 H     11  10   8     1.098269217180   110.78002427    54.27876862
 H      2   1   3     1.090538345280   121.75329719   180.37695679
 C      7   4   3     2.554202796094   141.75768548   113.61489376
 C     20   7   4     1.496667467160    34.42179472   358.28832388
 C     21  20   7     1.512004865701   115.86424508   234.27222456
 C     22  21  20     1.395575185596   122.27524384    64.61307921
 C     23  22  21     1.395272542993   121.58714942   176.71024158
 C     24  23  22     1.392043739825   119.25132221   359.49790224
 C     25  24  23     1.394798622861   120.51490406   359.74066941
 C     26  25  24     1.399878996213   119.95727955     0.35820667
 O     27  26  25     1.349559503292   123.26437744   181.35597971
 C     28  27  26     1.408243599422   119.38670783     4.90575693
 N     20   7   4     1.364799525654   107.85318537   109.20299022
 O     30  20   7     1.245029936775   120.82743618   142.25242136
 H     21  20   7     1.096368512245   105.18786171   115.14259250
 H     23  22  21     1.092316723339   119.03063861   356.90817539
 H     24  23  22     1.092123350733   120.11901612   179.80989175
 H     25  24  23     1.093013690485   120.31866742   180.18758015
 H     26  25  24     1.090262478333   119.59151433   180.65158182
 H     29  28  27     1.096817108658   106.41020471   177.14990399
 H     29  28  27     1.102856745628   111.29440056    58.23655290
 H     29  28  27     1.102454001517   111.59379415   296.09162529
 O     30  20   7     1.259153537012   119.04184829   322.94938589
 H     11  10   8     1.099385776545   108.65144875   293.12314946
 C     20   7   4     1.404935728688   118.37685577   246.57435019
 C     42  20   7     1.222254099035   177.81213905    22.24544657
 H     43  42  20     1.075768419403   178.72727621   132.10790522

---------------------------
INTERNAL COORDINATES (A.U.)
---------------------------
 C      0   0   0     0.000000000000     0.00000000     0.00000000
 C      1   0   0     2.635291865069     0.00000000     0.00000000
 C      2   1   0     2.608683451516   119.15088553     0.00000000
 N      3   2   1     2.549258122541   120.63128273     0.16021780
 C      4   3   2     2.549112517432   121.22275228     0.20994550
 C      5   4   3     2.612600973864   120.38198085   359.77516541
 C      4   3   2     2.773019734233   119.19675498   184.79393943
 C      7   4   3     2.875573036612   110.09884896   238.41317898
 O      8   7   4     2.278757290489   124.99918985   338.76444108
 O      8   7   4     2.493460164124   109.54784628   156.83809953
 C     10   8   7     2.692547104311   116.87241814   169.62197349
 H      1   2   3     2.063975431740   120.33211997   179.46023030
 H      3   2   1     2.060581130386   122.91077393   180.55715782
 H      5   4   3     2.054874500526   116.79359932   180.00764217
 H      6   5   4     2.060700286428   118.97262093   180.36418182
 H      7   4   3     2.073131492458   107.13891935   355.11495092
 H     11  10   8     2.069473016123   106.15589013   174.35327058
 H     11  10   8     2.075428041786   110.78002427    54.27876862
 H      2   1   3     2.060818811119   121.75329719   180.37695679
 C      7   4   3     4.826743775113   141.75768548   113.61489376
 C     20   7   4     2.828291626481    34.42179472   358.28832388
 C     21  20   7     2.857275109332   115.86424508   234.27222456
 C     22  21  20     2.637254900072   122.27524384    64.61307921
 C     23  22  21     2.636682988436   121.58714942   176.71024158
 C     24  23  22     2.630581434709   119.25132221   359.49790224
 C     25  24  23     2.635787409179   120.51490406   359.74066941
 C     26  25  24     2.645387923471   119.95727955     0.35820667
 O     27  26  25     2.550297862653   123.26437744   181.35597971
 C     28  27  26     2.661194732756   119.38670783     4.90575693
 N     20   7   4     2.579097331192   107.85318537   109.20299022
 O     30  20   7     2.352765609039   120.82743618   142.25242136
 H     21  20   7     2.071836229997   105.18786171   115.14259250
 H     23  22  21     2.064179458612   119.03063861   356.90817539
 H     24  23  22     2.063814037346   120.11901612   179.80989175
 H     25  24  23     2.065496535644   120.31866742   180.18758015
 H     26  25  24     2.060297498140   119.59151433   180.65158182
 H     29  28  27     2.072683954363   106.41020471   177.14990399
 H     29  28  27     2.084097214185   111.29440056    58.23655290
 H     29  28  27     2.083336138112   111.59379415   296.09162529
 O     30  20   7     2.379455345510   119.04184829   322.94938589
 H     11  10   8     2.077538033199   108.65144875   293.12314946
 C     20   7   4     2.654943762982   118.37685577   246.57435019
 C     42  20   7     2.309725513240   177.81213905    22.24544657
 H     43  42  20     2.032907696192   178.72727621   132.10790522

---------------------
BASIS SET INFORMATION
---------------------
There are 4 groups of distinct atoms

 Group   1 Type C   : 11s6p2d1f contracted to 5s3p2d1f pattern {62111/411/11/1}
 Group   2 Type N   : 11s6p2d1f contracted to 5s3p2d1f pattern {62111/411/11/1}
 Group   3 Type O   : 11s6p2d1f contracted to 5s3p2d1f pattern {62111/411/11/1}
 Group   4 Type H   : 5s1p contracted to 3s1p pattern {311/1}

Atom   0C    basis set group =>   1
Atom   1C    basis set group =>   1
Atom   2C    basis set group =>   1
Atom   3N    basis set group =>   2
Atom   4C    basis set group =>   1
Atom   5C    basis set group =>   1
Atom   6C    basis set group =>   1
Atom   7C    basis set group =>   1
Atom   8O    basis set group =>   3
Atom   9O    basis set group =>   3
Atom  10C    basis set group =>   1
Atom  11H    basis set group =>   4
Atom  12H    basis set group =>   4
Atom  13H    basis set group =>   4
Atom  14H    basis set group =>   4
Atom  15H    basis set group =>   4
Atom  16H    basis set group =>   4
Atom  17H    basis set group =>   4
Atom  18H    basis set group =>   4
Atom  19C    basis set group =>   1
Atom  20C    basis set group =>   1
Atom  21C    basis set group =>   1
Atom  22C    basis set group =>   1
Atom  23C    basis set group =>   1
Atom  24C    basis set group =>   1
Atom  25C    basis set group =>   1
Atom  26C    basis set group =>   1
Atom  27O    basis set group =>   3
Atom  28C    basis set group =>   1
Atom  29N    basis set group =>   2
Atom  30O    basis set group =>   3
Atom  31H    basis set group =>   4
Atom  32H    basis set group =>   4
Atom  33H    basis set group =>   4
Atom  34H    basis set group =>   4
Atom  35H    basis set group =>   4
Atom  36H    basis set group =>   4
Atom  37H    basis set group =>   4
Atom  38H    basis set group =>   4
Atom  39O    basis set group =>   3
Atom  40H    basis set group =>   4
Atom  41C    basis set group =>   1
Atom  42C    basis set group =>   1
Atom  43H    basis set group =>   4
---------------------------------
AUXILIARY/J BASIS SET INFORMATION
---------------------------------
There are 4 groups of distinct atoms

 Group   1 Type C   : 12s5p4d2f1g contracted to 6s4p3d1f1g pattern {711111/2111/211/2/1}
 Group   2 Type N   : 12s5p4d2f1g contracted to 6s4p3d1f1g pattern {711111/2111/211/2/1}
 Group   3 Type O   : 12s5p4d2f1g contracted to 6s4p3d1f1g pattern {711111/2111/211/2/1}
 Group   4 Type H   : 5s2p1d contracted to 3s1p1d pattern {311/2/1}

Atom   0C    basis set group =>   1
Atom   1C    basis set group =>   1
Atom   2C    basis set group =>   1
Atom   3N    basis set group =>   2
Atom   4C    basis set group =>   1
Atom   5C    basis set group =>   1
Atom   6C    basis set group =>   1
Atom   7C    basis set group =>   1
Atom   8O    basis set group =>   3
Atom   9O    basis set group =>   3
Atom  10C    basis set group =>   1
Atom  11H    basis set group =>   4
Atom  12H    basis set group =>   4
Atom  13H    basis set group =>   4
Atom  14H    basis set group =>   4
Atom  15H    basis set group =>   4
Atom  16H    basis set group =>   4
Atom  17H    basis set group =>   4
Atom  18H    basis set group =>   4
Atom  19C    basis set group =>   1
Atom  20C    basis set group =>   1
Atom  21C    basis set group =>   1
Atom  22C    basis set group =>   1
Atom  23C    basis set group =>   1
Atom  24C    basis set group =>   1
Atom  25C    basis set group =>   1
Atom  26C    basis set group =>   1
Atom  27O    basis set group =>   3
Atom  28C    basis set group =>   1
Atom  29N    basis set group =>   2
Atom  30O    basis set group =>   3
Atom  31H    basis set group =>   4
Atom  32H    basis set group =>   4
Atom  33H    basis set group =>   4
Atom  34H    basis set group =>   4
Atom  35H    basis set group =>   4
Atom  36H    basis set group =>   4
Atom  37H    basis set group =>   4
Atom  38H    basis set group =>   4
Atom  39O    basis set group =>   3
Atom  40H    basis set group =>   4
Atom  41C    basis set group =>   1
Atom  42C    basis set group =>   1
Atom  43H    basis set group =>   4


           ************************************************************
           *        Program running with 24 parallel MPI-processes    *
           *              working on a common directory               *
           ************************************************************
------------------------------------------------------------------------------
                           ORCA GTO INTEGRAL CALCULATION
                           -- RI-GTO INTEGRALS CHOSEN --
------------------------------------------------------------------------------
------------------------------------------------------------------------------
                   ___                                                        
                  /   \      - P O W E R E D   B Y -                         
                 /     \                                                     
                 |  |  |   _    _      __       _____    __    __             
                 |  |  |  | |  | |    /  \     |  _  \  |  |  /  |          
                  \  \/   | |  | |   /    \    | | | |  |  | /  /          
                 / \  \   | |__| |  /  /\  \   | |_| |  |  |/  /          
                |  |  |   |  __  | /  /__\  \  |    /   |      \           
                |  |  |   | |  | | |   __   |  |    \   |  |\   \          
                \     /   | |  | | |  |  |  |  | |\  \  |  | \   \       
                 \___/    |_|  |_| |__|  |__|  |_| \__\ |__|  \__/        
                                                                              
                      - O R C A' S   B I G   F R I E N D -                    
                                      &                                       
                       - I N T E G R A L  F E E D E R -                       
                                                                              
 v1 FN, 2020, v2 2021                                                         
------------------------------------------------------------------------------


Reading SHARK input file IM_CCH/IM_CCH.SHARKINP.tmp ... ok
----------------------
SHARK INTEGRAL PACKAGE
----------------------

Number of atoms                             ...     44
Number of basis functions                   ...    914
Number of shells                            ...    358
Maximum angular momentum                    ...      3
Integral batch strategy                     ... SHARK/LIBINT Hybrid
RI-J (if used) integral strategy            ... SPLIT-RIJ (Revised 2003 algorithm where possible)
Printlevel                                  ...      1
Contraction scheme used                     ... SEGMENTED contraction
Coulomb Range Separation                    ... NOT USED
Exchange Range Separation                   ... NOT USED
Finite Nucleus Model                        ... NOT USED
Auxiliary Coulomb fitting basis             ... AVAILABLE
   # of basis functions in Aux-J            ...   1472
   # of shells in Aux-J                     ...    480
   Maximum angular momentum in Aux-J        ...      4
Auxiliary J/K fitting basis                 ... NOT available
Auxiliary Correlation fitting basis         ... NOT available
Auxiliary 'external' fitting basis          ... NOT available
Integral threshold                          ...     2.500000e-11
Primitive cut-off                           ...     2.500000e-12
Primitive pair pre-selection threshold      ...     2.500000e-12

Calculating pre-screening integrals         ... done (  0.1 sec) Dimension = 358
Organizing shell pair data                  ... done (  0.6 sec)
Shell pair information
Total number of shell pairs                 ...     64261
Shell pairs after pre-screening             ...     46867
Total number of primitive shell pairs       ...    198132
Primitive shell pairs kept                  ...     94186
          la=0 lb=0:  11852 shell pairs
          la=1 lb=0:  13402 shell pairs
          la=1 lb=1:   3809 shell pairs
          la=2 lb=0:   6747 shell pairs
          la=2 lb=1:   3895 shell pairs
          la=2 lb=2:   1015 shell pairs
          la=3 lb=0:   3123 shell pairs
          la=3 lb=1:   1859 shell pairs
          la=3 lb=2:    931 shell pairs
          la=3 lb=3:    234 shell pairs

Calculating one electron integrals          ... done (  0.1 sec)
Calculating RI/J V-Matrix + Cholesky decomp.... done (  0.2 sec)
Calculating Nuclear repulsion               ... done (  0.0 sec) ENN=   2470.071015562216 Eh

SHARK setup successfully completed in   1.7 seconds

Maximum memory used throughout the entire GTOINT-calculation: 70.5 MB


           ************************************************************
           *        Program running with 24 parallel MPI-processes    *
           *              working on a common directory               *
           ************************************************************
-------------------------------------------------------------------------------
                                 ORCA SCF
-------------------------------------------------------------------------------

------------
SCF SETTINGS
------------
Hamiltonian:
 Density Functional     Method          .... DFT(GTOs)
 Exchange Functional    Exchange        .... PBE
   PBE kappa parameter   XKappa         ....  0.804000
   PBE mue parameter    XMuePBE         ....  0.219520
 Correlation Functional Correlation     .... PBE
   PBE beta parameter  CBetaPBE         ....  0.066725
 LDA part of GGA corr.  LDAOpt          .... PW91-LDA
 Gradients option       PostSCFGGA      .... off
 Hybrid DFT is turned on
   Fraction HF Exchange ScalHFX         ....  0.250000
   Scaling of DF-GGA-X  ScalDFX         ....  0.750000
   Scaling of DF-GGA-C  ScalDFC         ....  1.000000
   Scaling of DF-LDA-C  ScalLDAC        ....  1.000000
   Perturbative correction              ....  0.000000
   Density functional embedding theory  .... OFF
   NL short-range parameter             ....  6.900000
 RI-approximation to the Coulomb term is turned on
   Number of AuxJ basis functions       .... 1472
   RIJ-COSX (HFX calculated with COS-X)).... on


General Settings:
 Integral files         IntName         .... IM_CCH/IM_CCH
 Hartree-Fock type      HFTyp           .... RHF
 Total Charge           Charge          ....    0
 Multiplicity           Mult            ....    1
 Number of Electrons    NEL             ....  186
 Basis Dimension        Dim             ....  914
 Nuclear Repulsion      ENuc            ....   2470.0710155622 Eh

Convergence Acceleration:
 DIIS                   CNVDIIS         .... on
   Start iteration      DIISMaxIt       ....    12
   Startup error        DIISStart       ....  0.200000
   # of expansion vecs  DIISMaxEq       ....     5
   Bias factor          DIISBfac        ....   1.050
   Max. coefficient     DIISMaxC        ....  10.000
 Trust-Rad. Augm. Hess. CNVTRAH         .... auto
   Auto Start mean grad. ratio tolernc. ....  1.125000
   Auto Start start iteration           ....    20
   Auto Start num. interpolation iter.  ....    10
   Max. Number of Micro iterations      ....    16
   Max. Number of Macro iterations      .... Maxiter - #DIIS iter
   Number of Davidson start vectors     ....     2
   Converg. threshold I  (grad. norm)   ....   1.000e-05
   Converg. threshold II (energy diff.) ....   1.000e-08
   Grad. Scal. Fac. for Micro threshold ....   0.100
   Minimum threshold for Micro iter.    ....   0.010
   NR start threshold (gradient norm)   ....   0.001
   Initial trust radius                 ....   0.400
   Minimum AH scaling param. (alpha)    ....   1.000
   Maximum AH scaling param. (alpha)    .... 1000.000
   Orbital update algorithm             .... Taylor
   White noise on init. David. guess    .... on
   Maximum white noise                  ....   0.010
   Quad. conv. algorithm                .... NR
 SOSCF                  CNVSOSCF        .... on
   Start iteration      SOSCFMaxIt      ....   150
   Startup grad/error   SOSCFStart      ....  0.003300
 Level Shifting         CNVShift        .... on
   Level shift para.    LevelShift      ....    0.2500
   Turn off err/grad.   ShiftErr        ....    0.0010
 Zerner damping         CNVZerner       .... off
 Static damping         CNVDamp         .... on
   Fraction old density DampFac         ....    0.7000
   Max. Damping (<1)    DampMax         ....    0.9800
   Min. Damping (>=0)   DampMin         ....    0.0000
   Turn off err/grad.   DampErr         ....    0.1000
 Fernandez-Rico         CNVRico         .... off

SCF Procedure:
 Maximum # iterations   MaxIter         ....   800
 SCF integral mode      SCFMode         .... Direct
   Integral package                     .... SHARK and LIBINT hybrid scheme
 Reset frequency        DirectResetFreq ....    20
 Integral Threshold     Thresh          ....  2.500e-11 Eh
 Primitive CutOff       TCut            ....  2.500e-12 Eh

Convergence Tolerance:
 Convergence Check Mode ConvCheckMode   .... Total+1el-Energy
 Convergence forced     ConvForced      .... 0
 Energy Change          TolE            ....  1.000e-08 Eh
 1-El. energy change                    ....  1.000e-05 Eh
 Orbital Gradient       TolG            ....  1.000e-05
 Orbital Rotation angle TolX            ....  1.000e-05
 DIIS Error             TolErr          ....  5.000e-07


Diagonalization of the overlap matrix:
Smallest eigenvalue                        ... 6.084e-06
Time for diagonalization                   ...    0.277 sec
Threshold for overlap eigenvalues          ... 1.000e-08
Number of eigenvalues below threshold      ... 0
Time for construction of square roots      ...    0.148 sec
Total time needed                          ...    0.435 sec

Time for model grid setup =    0.327 sec

------------------------------
INITIAL GUESS: MODEL POTENTIAL
------------------------------
Loading Hartree-Fock densities                     ... done
Calculating cut-offs                               ... done
Initializing the effective Hamiltonian             ... done
Setting up the integral package (SHARK)            ... done
Starting the Coulomb interaction                   ... done (   0.5 sec)
Reading the grid                                   ... done
Mapping shells                                     ... done
Starting the XC term evaluation                    ... done (   0.2 sec)
  promolecular density results
     # of electrons  =    185.992976129
     EX              =   -156.340392363
     EC              =     -6.275729249
     EX+EC           =   -162.616121612
Transforming the Hamiltonian                       ... done (   0.2 sec)
Diagonalizing the Hamiltonian                      ... done (   0.2 sec)
Back transforming the eigenvectors                 ... done (   0.0 sec)
Now organizing SCF variables                       ... done
                      ------------------
                      INITIAL GUESS DONE (   1.8 sec)
                      ------------------
-------------------
DFT GRID GENERATION
-------------------

General Integration Accuracy     IntAcc      ... 4.388
Radial Grid Type                 RadialGrid  ... OptM3 with GC (2021)
Angular Grid (max. ang.)         AngularGrid ... 4 (Lebedev-302)
Angular grid pruning method      GridPruning ... 4 (adaptive)
Weight generation scheme         WeightScheme... Becke
Basis function cutoff            BFCut       ... 1.0000e-11
Integration weight cutoff        WCut        ... 1.0000e-14
Angular grids for H and He will be reduced by one unit
Partially contracted basis set               ... off
Rotationally invariant grid construction     ... off

Total number of grid points                  ...   212142
Total number of batches                      ...     3337
Average number of points per batch           ...       63
Average number of grid points per atom       ...     4821
Time for grid setup =    1.398 sec

--------------------
COSX GRID GENERATION
--------------------

GRIDX 1
-------
General Integration Accuracy     IntAcc      ... 3.816
Radial Grid Type                 RadialGrid  ... OptM3 with GC (2021)
Angular Grid (max. ang.)         AngularGrid ... 1 (Lebedev-50)
Angular grid pruning method      GridPruning ... 4 (adaptive)
Weight generation scheme         WeightScheme... Becke
Basis function cutoff            BFCut       ... 1.0000e-11
Integration weight cutoff        WCut        ... 1.0000e-14
Angular grids for H and He will be reduced by one unit
Partially contracted basis set               ... on
Rotationally invariant grid construction     ... off

Total number of grid points                  ...    26896
Total number of batches                      ...      443
Average number of points per batch           ...       60
Average number of grid points per atom       ...      611
UseSFitting                                  ... on

GRIDX 2
-------
General Integration Accuracy     IntAcc      ... 4.020
Radial Grid Type                 RadialGrid  ... OptM3 with GC (2021)
Angular Grid (max. ang.)         AngularGrid ... 2 (Lebedev-110)
Angular grid pruning method      GridPruning ... 4 (adaptive)
Weight generation scheme         WeightScheme... Becke
Basis function cutoff            BFCut       ... 1.0000e-11
Integration weight cutoff        WCut        ... 1.0000e-14
Angular grids for H and He will be reduced by one unit
Partially contracted basis set               ... on
Rotationally invariant grid construction     ... off

Total number of grid points                  ...    58406
Total number of batches                      ...      932
Average number of points per batch           ...       62
Average number of grid points per atom       ...     1327
UseSFitting                                  ... on

GRIDX 3
-------
General Integration Accuracy     IntAcc      ... 4.338
Radial Grid Type                 RadialGrid  ... OptM3 with GC (2021)
Angular Grid (max. ang.)         AngularGrid ... 3 (Lebedev-194)
Angular grid pruning method      GridPruning ... 4 (adaptive)
Weight generation scheme         WeightScheme... Becke
Basis function cutoff            BFCut       ... 1.0000e-11
Integration weight cutoff        WCut        ... 1.0000e-14
Angular grids for H and He will be reduced by one unit
Partially contracted basis set               ... on
Rotationally invariant grid construction     ... off

Total number of grid points                  ...   127596
Total number of batches                      ...     2015
Average number of points per batch           ...       63
Average number of grid points per atom       ...     2900
UseSFitting                                  ... on

Time for X-Grid setup             =    2.699 sec


--------------------
CPCM SOLVATION MODEL
--------------------
CPCM parameters:
  Epsilon                                         ...      47.2000
  Refrac                                          ...       1.4790
  Rsolv                                           ...       1.3000
  Surface type                                    ... GAUSSIAN VDW
  Epsilon function type                           ...         CPCM
Radii:
 Radius for C  used is    3.8550 Bohr (=   2.0400 Ang.)
 Radius for N  used is    3.5149 Bohr (=   1.8600 Ang.)
 Radius for O  used is    3.4469 Bohr (=   1.8240 Ang.)
 Radius for H  used is    2.4944 Bohr (=   1.3200 Ang.)
Calculating surface                               ...        done! (  0.0s)
GEPOL surface points                              ...         2237
GEPOL Volume                                      ...    2761.7691
GEPOL Surface-area                                ...    1353.6800
Calculating surface distance matrix               ...        done! (  0.1s)
Performing Cholesky decomposition & store         ...        done! (  0.3s)
Overall time for CPCM initialization              ...                 0.4s
--------------
SCF ITERATIONS
--------------
ITER       Energy         Delta-E        Max-DP      RMS-DP      [F,P]     Damp
               ***  Starting incremental Fock matrix formation  ***
  0  -1218.8210113392   0.000000000000 0.18421520  0.00085978  0.2756159 0.7000
  1  -1219.0727202467  -0.251708907460 0.19868611  0.00079890  0.1128314 0.7000
                               ***Turning on DIIS***
  2  -1219.1756098586  -0.102889611900 0.33396764  0.00148808  0.0404998 0.0000
  3  -1219.3450085524  -0.169398693819 0.15928572  0.00063272  0.0501519 0.0000
  4  -1219.3747489849  -0.029740432474 0.04715466  0.00023692  0.0167440 0.0000
  5  -1219.3769080196  -0.002159034747 0.02555040  0.00009770  0.0055282 0.0000
                      *** Initiating the SOSCF procedure ***
                           *** Shutting down DIIS ***
                      *** Re-Reading the Fockian *** 
                      *** Removing any level shift *** 
ITER      Energy       Delta-E        Grad      Rot      Max-DP    RMS-DP
  6  -1219.37703396  -0.0001259424  0.000254  0.000254  0.006039  0.000031
               *** Restarting incremental Fock matrix formation ***
  7  -1219.37708033  -0.0000463695  0.000112  0.000814  0.003914  0.000025
  8  -1219.37707945   0.0000008786  0.000268  0.000393  0.000745  0.000006
  9  -1219.37708312  -0.0000036660  0.000022  0.000079  0.000681  0.000005
 10  -1219.37708307   0.0000000448  0.000036  0.000043  0.000141  0.000001
 11  -1219.37708323  -0.0000001577  0.000007  0.000027  0.000207  0.000001
 12  -1219.37708321   0.0000000221  0.000012  0.000019  0.000130  0.000001
                  ***Gradient check signals convergence***
              ***Rediagonalizing the Fockian in SOSCF/NRSCF***

               *****************************************************
               *                     SUCCESS                       *
               *           SCF CONVERGED AFTER  13 CYCLES          *
               *****************************************************

Old exchange energy                            =    -39.791236266 Eh
New exchange energy                            =    -39.791231506 Eh
Exchange energy change after final integration =      0.000004760 Eh
Total energy after final integration           =  -1219.377078451 Eh
Final COS-X integration done in                =    17.281 sec

----------------
TOTAL SCF ENERGY
----------------

Total Energy       :        -1219.37707845 Eh          -33180.93719 eV

Components:
Nuclear Repulsion  :         2470.07101556 Eh           67214.04943 eV
Electronic Energy  :        -3689.44809401 Eh         -100394.98662 eV
One Electron Energy:        -6574.31339538 Eh         -178896.16239 eV
Two Electron Energy:         2884.86530137 Eh           78501.17577 eV
Max COSX asymmetry :            0.00000254 Eh               0.00007 eV
CPCM Dielectric    :           -0.07961411 Eh              -2.16641 eV

Virial components:
Potential Energy   :        -2432.90738990 Eh          -66202.77576 eV
Kinetic Energy     :         1213.53031145 Eh           33021.83857 eV
Virial Ratio       :            2.00481798


DFT components:
N(Alpha)           :       92.999972664711 electrons
N(Beta)            :       92.999972664711 electrons
N(Total)           :      185.999945329422 electrons
E(X)               :     -119.195372643597 Eh       
E(C)               :       -6.273388644428 Eh       
E(XC)              :     -125.468761288025 Eh       
DFET-embed. en.    :        0.000000000000 Eh       
CPCM Solvation Model Properties:
Surface-charge          :           -0.02954936
Charge-correction       :           -0.00043796 Eh              -0.01192 eV
Free-energy (cav+disp)  :  This term is not implemented in the current solvation scheme

---------------
SCF CONVERGENCE
---------------

  Last Energy change         ...   -1.1512e-09  Tolerance :   1.0000e-08
  Last MAX-Density change    ...    2.5535e-15  Tolerance :   1.0000e-07
  Last RMS-Density change    ...    1.3290e-17  Tolerance :   5.0000e-09
  Last Orbital Gradient      ...    2.0583e-06  Tolerance :   1.0000e-05
  Last Orbital Rotation      ...    7.5763e-06  Tolerance :   1.0000e-05

             **** THE GBW FILE WAS UPDATED (IM_CCH/IM_CCH.gbw) ****
             **** DENSITY IM_CCH/IM_CCH.scfp WAS UPDATED ****
             **** ENERGY FILE WAS UPDATED (IM_CCH/IM_CCH.en.tmp) ****
             **** THE GBW FILE WAS UPDATED (IM_CCH/IM_CCH.gbw) ****
             **** DENSITY IM_CCH/IM_CCH.scfp WAS UPDATED ****
----------------
ORBITAL ENERGIES
----------------

  NO   OCC          E(Eh)            E(eV) 
   0   2.0000     -19.268731      -524.3288 
   1   2.0000     -19.248039      -523.7658 
   2   2.0000     -19.210003      -522.7308 
   3   2.0000     -19.183138      -521.9997 
   4   2.0000     -19.181233      -521.9479 
   5   2.0000     -14.566709      -396.3803 
   6   2.0000     -14.515503      -394.9869 
   7   2.0000     -10.371364      -282.2192 
   8   2.0000     -10.316312      -280.7211 
   9   2.0000     -10.314645      -280.6758 
  10   2.0000     -10.308608      -280.5115 
  11   2.0000     -10.295656      -280.1590 
  12   2.0000     -10.282311      -279.7959 
  13   2.0000     -10.272235      -279.5217 
  14   2.0000     -10.271419      -279.4995 
  15   2.0000     -10.271041      -279.4892 
  16   2.0000     -10.270177      -279.4657 
  17   2.0000     -10.262635      -279.2605 
  18   2.0000     -10.253316      -279.0069 
  19   2.0000     -10.243084      -278.7285 
  20   2.0000     -10.233520      -278.4682 
  21   2.0000     -10.233164      -278.4585 
  22   2.0000     -10.231875      -278.4235 
  23   2.0000     -10.229810      -278.3673 
  24   2.0000     -10.225345      -278.2458 
  25   2.0000     -10.213641      -277.9273 
  26   2.0000      -1.204845       -32.7855 
  27   2.0000      -1.161139       -31.5962 
  28   2.0000      -1.112163       -30.2635 
  29   2.0000      -1.083763       -29.4907 
  30   2.0000      -1.065676       -28.9985 
  31   2.0000      -1.021166       -27.7873 
  32   2.0000      -0.907211       -24.6865 
  33   2.0000      -0.887110       -24.1395 
  34   2.0000      -0.864324       -23.5194 
  35   2.0000      -0.843400       -22.9501 
  36   2.0000      -0.819487       -22.2994 
  37   2.0000      -0.796165       -21.6647 
  38   2.0000      -0.778027       -21.1712 
  39   2.0000      -0.758667       -20.6444 
  40   2.0000      -0.752070       -20.4649 
  41   2.0000      -0.724157       -19.7053 
  42   2.0000      -0.715952       -19.4820 
  43   2.0000      -0.704527       -19.1712 
  44   2.0000      -0.678403       -18.4603 
  45   2.0000      -0.632993       -17.2246 
  46   2.0000      -0.618036       -16.8176 
  47   2.0000      -0.612490       -16.6667 
  48   2.0000      -0.609429       -16.5834 
  49   2.0000      -0.576243       -15.6804 
  50   2.0000      -0.567671       -15.4471 
  51   2.0000      -0.555972       -15.1288 
  52   2.0000      -0.551419       -15.0049 
  53   2.0000      -0.540808       -14.7161 
  54   2.0000      -0.539162       -14.6713 
  55   2.0000      -0.528826       -14.3901 
  56   2.0000      -0.522120       -14.2076 
  57   2.0000      -0.511111       -13.9080 
  58   2.0000      -0.507948       -13.8220 
  59   2.0000      -0.502993       -13.6871 
  60   2.0000      -0.499275       -13.5860 
  61   2.0000      -0.496021       -13.4974 
  62   2.0000      -0.491967       -13.3871 
  63   2.0000      -0.486910       -13.2495 
  64   2.0000      -0.482483       -13.1290 
  65   2.0000      -0.477300       -12.9880 
  66   2.0000      -0.458480       -12.4759 
  67   2.0000      -0.449823       -12.2403 
  68   2.0000      -0.439663       -11.9638 
  69   2.0000      -0.433103       -11.7853 
  70   2.0000      -0.427115       -11.6224 
  71   2.0000      -0.417327       -11.3561 
  72   2.0000      -0.415768       -11.3136 
  73   2.0000      -0.411353       -11.1935 
  74   2.0000      -0.400101       -10.8873 
  75   2.0000      -0.391815       -10.6618 
  76   2.0000      -0.384676       -10.4676 
  77   2.0000      -0.379536       -10.3277 
  78   2.0000      -0.365179        -9.9370 
  79   2.0000      -0.350323        -9.5328 
  80   2.0000      -0.346744        -9.4354 
  81   2.0000      -0.340822        -9.2742 
  82   2.0000      -0.333638        -9.0787 
  83   2.0000      -0.324051        -8.8179 
  84   2.0000      -0.320927        -8.7329 
  85   2.0000      -0.308333        -8.3902 
  86   2.0000      -0.304943        -8.2979 
  87   2.0000      -0.293805        -7.9948 
  88   2.0000      -0.290416        -7.9026 
  89   2.0000      -0.272061        -7.4031 
  90   2.0000      -0.259638        -7.0651 
  91   2.0000      -0.241696        -6.5769 
  92   2.0000      -0.200696        -5.4612 
  93   0.0000      -0.086878        -2.3641 
  94   0.0000      -0.051353        -1.3974 
  95   0.0000      -0.026112        -0.7106 
  96   0.0000      -0.016365        -0.4453 
  97   0.0000      -0.000395        -0.0107 
  98   0.0000       0.003712         0.1010 
  99   0.0000       0.030924         0.8415 
 100   0.0000       0.043349         1.1796 
 101   0.0000       0.055134         1.5003 
 102   0.0000       0.064917         1.7665 
 103   0.0000       0.067622         1.8401 
 104   0.0000       0.077213         2.1011 
 105   0.0000       0.079749         2.1701 
 106   0.0000       0.088335         2.4037 
 107   0.0000       0.091420         2.4877 
 108   0.0000       0.091915         2.5011 
 109   0.0000       0.095941         2.6107 
 110   0.0000       0.099697         2.7129 
 111   0.0000       0.103019         2.8033 
 112   0.0000       0.109865         2.9896 
 113   0.0000       0.114416         3.1134 
 114   0.0000       0.121164         3.2970 
 115   0.0000       0.122620         3.3367 
 116   0.0000       0.127986         3.4827 
 117   0.0000       0.131715         3.5842 
 118   0.0000       0.133607         3.6356 
 119   0.0000       0.137735         3.7480 
 120   0.0000       0.142592         3.8801 
 121   0.0000       0.144067         3.9203 
 122   0.0000       0.147189         4.0052 
 123   0.0000       0.153969         4.1897 
 124   0.0000       0.154989         4.2175 
 125   0.0000       0.161933         4.4064 
 126   0.0000       0.168251         4.5783 
 127   0.0000       0.178392         4.8543 
 128   0.0000       0.185441         5.0461 
 129   0.0000       0.198740         5.4080 
 130   0.0000       0.200967         5.4686 
 131   0.0000       0.202374         5.5069 
 132   0.0000       0.208657         5.6779 
 133   0.0000       0.210747         5.7347 
 134   0.0000       0.215805         5.8724 
 135   0.0000       0.218517         5.9462 
 136   0.0000       0.222456         6.0533 
 137   0.0000       0.222818         6.0632 
 138   0.0000       0.227492         6.1904 
 139   0.0000       0.230623         6.2756 
 140   0.0000       0.234985         6.3943 
 141   0.0000       0.237889         6.4733 
 142   0.0000       0.242181         6.5901 
 143   0.0000       0.244541         6.6543 
 144   0.0000       0.246831         6.7166 
 145   0.0000       0.254089         6.9141 
 146   0.0000       0.254691         6.9305 
 147   0.0000       0.259348         7.0572 
 148   0.0000       0.261559         7.1174 
 149   0.0000       0.275595         7.4993 
 150   0.0000       0.276737         7.5304 
 151   0.0000       0.281986         7.6732 
 152   0.0000       0.291729         7.9384 
 153   0.0000       0.294301         8.0083 
 154   0.0000       0.299467         8.1489 
 155   0.0000       0.303455         8.2574 
 156   0.0000       0.306962         8.3529 
 157   0.0000       0.309312         8.4168 
 158   0.0000       0.314280         8.5520 
 159   0.0000       0.317912         8.6508 
 160   0.0000       0.322632         8.7793 
 161   0.0000       0.326827         8.8934 
 162   0.0000       0.329940         8.9781 
 163   0.0000       0.334415         9.0999 
 164   0.0000       0.339841         9.2475 
 165   0.0000       0.343741         9.3537 
 166   0.0000       0.347712         9.4617 
 167   0.0000       0.354918         9.6578 
 168   0.0000       0.359415         9.7802 
 169   0.0000       0.361887         9.8475 
 170   0.0000       0.364160         9.9093 
 171   0.0000       0.368987        10.0406 
 172   0.0000       0.373125        10.1533 
 173   0.0000       0.383536        10.4366 
 174   0.0000       0.387212        10.5366 
 175   0.0000       0.389249        10.5920 
 176   0.0000       0.392788        10.6883 
 177   0.0000       0.395606        10.7650 
 178   0.0000       0.398306        10.8385 
 179   0.0000       0.401300        10.9199 
 180   0.0000       0.405597        11.0369 
 181   0.0000       0.408925        11.1274 
 182   0.0000       0.412767        11.2320 
 183   0.0000       0.416129        11.3234 
 184   0.0000       0.417196        11.3525 
 185   0.0000       0.419961        11.4277 
 186   0.0000       0.427119        11.6225 
 187   0.0000       0.428843        11.6694 
 188   0.0000       0.429794        11.6953 
 189   0.0000       0.432638        11.7727 
 190   0.0000       0.435132        11.8405 
 191   0.0000       0.442682        12.0460 
 192   0.0000       0.448109        12.1937 
 193   0.0000       0.450740        12.2653 
 194   0.0000       0.455576        12.3969 
 195   0.0000       0.462280        12.5793 
 196   0.0000       0.464727        12.6459 
 197   0.0000       0.465605        12.6698 
 198   0.0000       0.469475        12.7751 
 199   0.0000       0.471880        12.8405 
 200   0.0000       0.472672        12.8621 
 201   0.0000       0.477921        13.0049 
 202   0.0000       0.481110        13.0917 
 203   0.0000       0.486121        13.2280 
 204   0.0000       0.491540        13.3755 
 205   0.0000       0.497124        13.5274 
 206   0.0000       0.497825        13.5465 
 207   0.0000       0.502111        13.6631 
 208   0.0000       0.505308        13.7501 
 209   0.0000       0.509795        13.8722 
 210   0.0000       0.513885        13.9835 
 211   0.0000       0.514202        13.9922 
 212   0.0000       0.522147        14.2083 
 213   0.0000       0.524082        14.2610 
 214   0.0000       0.531306        14.4576 
 215   0.0000       0.534452        14.5432 
 216   0.0000       0.540174        14.6989 
 217   0.0000       0.543177        14.7806 
 218   0.0000       0.547822        14.9070 
 219   0.0000       0.555489        15.1156 
 220   0.0000       0.558417        15.1953 
 221   0.0000       0.566759        15.4223 
 222   0.0000       0.573254        15.5990 
 223   0.0000       0.579478        15.7684 
 224   0.0000       0.585283        15.9264 
 225   0.0000       0.589454        16.0398 
 226   0.0000       0.599433        16.3114 
 227   0.0000       0.601855        16.3773 
 228   0.0000       0.606296        16.4981 
 229   0.0000       0.612014        16.6537 
 230   0.0000       0.617967        16.8157 
 231   0.0000       0.626228        17.0405 
 232   0.0000       0.636184        17.3114 
 233   0.0000       0.639756        17.4087 
 234   0.0000       0.643346        17.5063 
 235   0.0000       0.645320        17.5600 
 236   0.0000       0.651514        17.7286 
 237   0.0000       0.661204        17.9923 
 238   0.0000       0.667056        18.1515 
 239   0.0000       0.669935        18.2299 
 240   0.0000       0.675920        18.3927 
 241   0.0000       0.679252        18.4834 
 242   0.0000       0.686403        18.6780 
 243   0.0000       0.691555        18.8182 
 244   0.0000       0.697924        18.9915 
 245   0.0000       0.705217        19.1899 
 246   0.0000       0.707631        19.2556 
 247   0.0000       0.713842        19.4246 
 248   0.0000       0.720965        19.6185 
 249   0.0000       0.724871        19.7247 
 250   0.0000       0.731483        19.9047 
 251   0.0000       0.732591        19.9348 
 252   0.0000       0.734829        19.9957 
 253   0.0000       0.747451        20.3392 
 254   0.0000       0.750998        20.4357 
 255   0.0000       0.761240        20.7144 
 256   0.0000       0.763872        20.7860 
 257   0.0000       0.770387        20.9633 
 258   0.0000       0.773383        21.0448 
 259   0.0000       0.778387        21.1810 
 260   0.0000       0.781416        21.2634 
 261   0.0000       0.792051        21.5528 
 262   0.0000       0.798987        21.7415 
 263   0.0000       0.804870        21.9016 
 264   0.0000       0.810521        22.0554 
 265   0.0000       0.818849        22.2820 
 266   0.0000       0.826941        22.5022 
 267   0.0000       0.831991        22.6396 
 268   0.0000       0.838569        22.8186 
 269   0.0000       0.843833        22.9619 
 270   0.0000       0.847763        23.0688 
 271   0.0000       0.861662        23.4470 
 272   0.0000       0.870664        23.6920 
 273   0.0000       0.877366        23.8743 
 274   0.0000       0.882436        24.0123 
 275   0.0000       0.885108        24.0850 
 276   0.0000       0.888684        24.1823 
 277   0.0000       0.898916        24.4607 
 278   0.0000       0.904917        24.6240 
 279   0.0000       0.906674        24.6718 
 280   0.0000       0.910117        24.7656 
 281   0.0000       0.911021        24.7901 
 282   0.0000       0.916784        24.9470 
 283   0.0000       0.925503        25.1842 
 284   0.0000       0.929965        25.3056 
 285   0.0000       0.945632        25.7319 
 286   0.0000       0.946278        25.7495 
 287   0.0000       0.957269        26.0486 
 288   0.0000       0.963111        26.2076 
 289   0.0000       0.970638        26.4124 
 290   0.0000       0.975954        26.5570 
 291   0.0000       0.984357        26.7857 
 292   0.0000       0.986878        26.8543 
 293   0.0000       0.994421        27.0596 
 294   0.0000       0.998285        27.1647 
 295   0.0000       1.011583        27.5266 
 296   0.0000       1.026348        27.9284 
 297   0.0000       1.030045        28.0289 
 298   0.0000       1.039363        28.2825 
 299   0.0000       1.048263        28.5247 
 300   0.0000       1.059986        28.8437 
 301   0.0000       1.061778        28.8924 
 302   0.0000       1.065508        28.9939 
 303   0.0000       1.067540        29.0492 
 304   0.0000       1.072924        29.1957 
 305   0.0000       1.080618        29.4051 
 306   0.0000       1.087644        29.5963 
 307   0.0000       1.096385        29.8341 
 308   0.0000       1.100588        29.9485 
 309   0.0000       1.103278        30.0217 
 310   0.0000       1.115254        30.3476 
 311   0.0000       1.120128        30.4802 
 312   0.0000       1.126776        30.6611 
 313   0.0000       1.131710        30.7954 
 314   0.0000       1.136509        30.9260 
 315   0.0000       1.145257        31.1640 
 316   0.0000       1.152114        31.3506 
 317   0.0000       1.164953        31.7000 
 318   0.0000       1.167406        31.7667 
 319   0.0000       1.175232        31.9797 
 320   0.0000       1.178235        32.0614 
 321   0.0000       1.185742        32.2657 
[...]
 24:    237.64   0.003452   17.45  0.004534  ( 0.016421 -0.038055  0.053063)
 25:    259.05   0.001058    5.35  0.001274  (-0.028496 -0.012869 -0.017228)
 26:    268.92   0.002673   13.51  0.003102  (-0.004889 -0.054959 -0.007608)
 27:    285.31   0.001873    9.46  0.002048  (-0.004223  0.043624 -0.011293)
 28:    309.65   0.000128    0.64  0.000129  ( 0.011007  0.001584  0.002205)
 29:    318.28   0.000618    3.12  0.000605  ( 0.005624 -0.015372 -0.018373)
 30:    330.33   0.000260    1.31  0.000245  (-0.006444  0.014269  0.000121)
 31:    366.38   0.004057   20.50  0.003456  ( 0.026578 -0.052432  0.000268)
 32:    411.52   0.000241    1.22  0.000183  ( 0.004214 -0.012065  0.004389)
 33:    439.70   0.001127    5.70  0.000800  (-0.003289 -0.011600  0.025582)
 34:    465.10   0.001028    5.20  0.000690  ( 0.001904  0.025037 -0.007701)
 35:    490.07   0.001553    7.85  0.000989  ( 0.004744 -0.027488 -0.014526)
 36:    494.24   0.018196   91.96  0.011489  (-0.038551  0.042779  0.090403)
 37:    502.55   0.000103    0.52  0.000064  (-0.002701 -0.005961  0.004600)
 38:    517.63   0.011132   56.25  0.006711  ( 0.038831 -0.021741 -0.068778)
 39:    547.96   0.001746    8.83  0.000995  (-0.030088 -0.004334  0.008395)
 40:    567.88   0.003565   18.02  0.001959  ( 0.043114  0.009223  0.003901)
 41:    573.22   0.001336    6.75  0.000727  ( 0.002962 -0.026778  0.001152)
 42:    585.05   0.002496   12.61  0.001331  (-0.009268  0.020605 -0.028651)
 43:    618.41   0.005640   28.50  0.002846  (-0.005370  0.052096 -0.010171)
 44:    638.59   0.000689    3.48  0.000337  ( 0.013671  0.005494 -0.010929)
 45:    657.16   0.000502    2.54  0.000238  ( 0.006350  0.011372 -0.008294)
 46:    697.06   0.015059   76.10  0.006742  ( 0.057462 -0.034727 -0.047263)
 47:    707.04   0.014535   73.45  0.006415  ( 0.026209 -0.060478  0.045505)
 48:    725.67   0.007079   35.78  0.003044  ( 0.050531  0.008370 -0.020517)
 49:    732.48   0.012207   61.69  0.005201  (-0.033870 -0.023547  0.059152)
 50:    755.36   0.005533   27.96  0.002286  ( 0.017258 -0.043476 -0.009885)
 51:    768.81   0.015299   77.32  0.006210  ( 0.023199  0.051435 -0.055012)
 52:    782.07   0.008858   44.77  0.003535  ( 0.045729 -0.004779 -0.037690)
 53:    785.16   0.001469    7.42  0.000584  (-0.004998 -0.023339  0.003759)
 54:    800.23   0.000764    3.86  0.000298  (-0.011024  0.012005  0.005691)
 55:    813.32   0.005033   25.43  0.001931  ( 0.038805 -0.000155  0.020620)
 56:    840.29   0.001169    5.91  0.000434  ( 0.009873 -0.014477  0.011279)
 57:    872.56   0.001811    9.15  0.000648  ( 0.010074  0.019488 -0.012899)
 58:    874.11   0.001348    6.81  0.000481  ( 0.008595  0.014434 -0.014110)
 59:    882.15   0.000213    1.08  0.000075  ( 0.002172  0.007972  0.002652)
 60:    908.45   0.005109   25.82  0.001755  (-0.030258  0.020624 -0.020346)
 61:    960.20   0.003249   16.42  0.001056  (-0.010383  0.021878 -0.021665)
 62:    967.60   0.001861    9.41  0.000600  (-0.023678  0.006093 -0.001586)
 63:    983.22   0.002358   11.92  0.000749  ( 0.010115 -0.020642  0.014838)
 64:    990.21   0.000151    0.76  0.000048  ( 0.005862 -0.003627 -0.000000)
 65:   1010.41   0.000076    0.39  0.000024  ( 0.001058 -0.001103  0.004612)
 66:   1025.26   0.009234   46.67  0.002811  ( 0.042121 -0.003156 -0.032039)
 67:   1050.67   0.000065    0.33  0.000019  (-0.003358  0.000002  0.002814)
 68:   1052.96   0.003160   15.97  0.000937  (-0.018853  0.024032 -0.001914)
 69:   1063.03   0.000936    4.73  0.000275  (-0.009433  0.013604 -0.000799)
 70:   1073.52   0.010524   53.19  0.003059  (-0.006813  0.039413  0.038204)
 71:   1085.18   0.001180    5.96  0.000339  (-0.004947 -0.012212  0.012876)
 72:   1086.28   0.005982   30.23  0.001719  (-0.026822 -0.019124 -0.025168)
 73:   1129.05   0.009712   49.08  0.002684  ( 0.012358  0.036116  0.035032)
 74:   1134.45   0.006877   34.75  0.001892  (-0.034354  0.023914 -0.011816)
 75:   1154.92   0.032293  163.19  0.008726  ( 0.080885 -0.004311  0.046525)
 76:   1169.68   0.000364    1.84  0.000097  ( 0.001724  0.006859  0.006853)
 77:   1171.20   0.000270    1.36  0.000072  (-0.000845  0.006794 -0.005003)
 78:   1174.88   0.001605    8.11  0.000426  ( 0.014464 -0.001571  0.014653)
 79:   1175.44   0.001295    6.54  0.000344  ( 0.001973 -0.013901 -0.012108)
 80:   1195.40   0.003105   15.69  0.000811  (-0.020220  0.014545 -0.013794)
 81:   1206.42   0.008781   44.38  0.002271  (-0.019100  0.042996 -0.007611)
 82:   1213.36   0.004034   20.39  0.001038  (-0.002170 -0.029926 -0.011717)
 83:   1221.18   0.003177   16.06  0.000812  (-0.025646 -0.009900 -0.007497)
 84:   1233.83   0.017763   89.77  0.004493  (-0.012395  0.059569 -0.028119)
 85:   1242.19   0.012712   64.24  0.003193  (-0.012914  0.052636 -0.016004)
 86:   1273.03   0.056730  286.69  0.013907  ( 0.008931 -0.114270 -0.027736)
 87:   1296.33   0.079383  401.17  0.019110  (-0.089180 -0.055984 -0.089568)
 88:   1312.41   0.010122   51.15  0.002407  (-0.047156 -0.013382  0.002021)
 89:   1314.38   0.018153   91.74  0.004310  (-0.020998  0.061955 -0.005526)
 90:   1327.57   0.024188  122.23  0.005686  (-0.062786  0.034483 -0.023547)
 91:   1351.95   0.024781  125.23  0.005720  ( 0.010318 -0.055526 -0.050304)
 92:   1369.45   0.035515  179.48  0.008093  (-0.084100  0.030981 -0.007778)
 93:   1379.73   0.014246   71.99  0.003222  (-0.020538  0.052726 -0.004503)
 94:   1389.23   0.041241  208.42  0.009264  ( 0.090330  0.028819  0.016556)
 95:   1406.04   0.096833  489.35  0.021492  ( 0.033878  0.125273 -0.068195)
 96:   1421.15   0.004017   20.30  0.000882  (-0.020694 -0.015516 -0.014593)
 97:   1439.12   0.267853  1353.62  0.058082  (-0.194790  0.093732 -0.106552)
 98:   1465.32   0.006572   33.21  0.001400  ( 0.025204  0.009035  0.026129)
 99:   1466.12   0.004208   21.27  0.000896  (-0.012707  0.008492 -0.025733)
100:   1467.85   0.016513   83.45  0.003511  ( 0.047739 -0.034762 -0.004819)
101:   1473.10   0.008274   41.81  0.001753  ( 0.009031 -0.039953  0.008658)
102:   1473.96   0.002752   13.91  0.000583  ( 0.014121  0.012684 -0.014912)
103:   1484.18   0.004066   20.55  0.000855  (-0.022107 -0.001866 -0.019043)
104:   1497.42   0.020540  103.80  0.004281  (-0.048699 -0.014300 -0.041285)
105:   1528.62   0.018961   95.82  0.003871  (-0.039490 -0.026027 -0.040423)
106:   1536.63   0.002724   13.77  0.000553  (-0.008047 -0.018234  0.012490)
107:   1538.46   0.034919  176.46  0.007083  (-0.061854 -0.006508 -0.056699)
108:   1645.82   0.001433    7.24  0.000272  (-0.009288  0.002725 -0.013342)
109:   1647.80   0.005618   28.39  0.001064  ( 0.008643  0.017406  0.026199)
110:   1663.90   0.011869   59.98  0.002226  (-0.037911 -0.004719 -0.027685)
111:   1696.31   0.013077   66.09  0.002406  ( 0.001464  0.045829 -0.017419)
112:   1796.32   0.104480  528.00  0.018151  ( 0.109813  0.076281 -0.016523)
113:   2171.08   0.046668  235.84  0.006708  ( 0.075467  0.029669  0.011508)
114:   3037.24   0.012604   63.69  0.001295  (-0.003757 -0.027041 -0.023445)
115:   3075.98   0.005681   28.71  0.000576  ( 0.016850 -0.016785 -0.003261)
116:   3108.40   0.007543   38.12  0.000757  (-0.010907 -0.015142  0.020224)
117:   3132.34   0.001401    7.08  0.000140  (-0.003260  0.000039 -0.011357)
118:   3152.23   0.000679    3.43  0.000067  ( 0.003806 -0.004495  0.005701)
119:   3163.37   0.002576   13.02  0.000254  (-0.001653  0.000050  0.015854)
120:   3166.55   0.003906   19.74  0.000385  ( 0.017512 -0.001943  0.008628)
121:   3191.70   0.000042    0.21  0.000004  (-0.001661  0.000430  0.001068)
122:   3195.72   0.001726    8.72  0.000169  ( 0.005915  0.011543 -0.000581)
123:   3198.59   0.002826   14.28  0.000276  ( 0.012014 -0.010642 -0.004259)
124:   3214.68   0.002588   13.08  0.000251  (-0.012511 -0.001660 -0.009591)
125:   3223.15   0.000009    0.05  0.000001  ( 0.000287  0.000866  0.000268)
126:   3231.78   0.000433    2.19  0.000042  (-0.000800  0.005087  0.003908)
127:   3240.38   0.000316    1.60  0.000030  (-0.000622 -0.005303  0.001376)
128:   3243.63   0.000895    4.52  0.000086  ( 0.003327  0.008608  0.000983)
129:   3252.63   0.001987   10.04  0.000191  ( 0.008797  0.004767  0.009513)
130:   3281.62   0.002410   12.18  0.000229  ( 0.010079 -0.002495  0.011016)
131:   3454.02   0.047924  242.19  0.004330  (-0.058472 -0.028953 -0.008517)

* The epsilon (eps) is given for a Dirac delta lineshape.
** The dipole moment derivative (T) already includes vibrational overlap.

The first frequency considered to be a vibration is 6
The total number of vibrations considered is 126


--------------------------
THERMOCHEMISTRY AT 298.15K
--------------------------

Temperature         ... 298.15 K
Pressure            ... 1.00 atm
Total Mass          ... 354.36 AMU

Throughout the following assumptions are being made:
  (1) The electronic state is orbitally nondegenerate
  (2) There are no thermally accessible electronically excited states
  (3) Hindered rotations indicated by low frequency modes are not
      treated as such but are treated as vibrations and this may
      cause some error
  (4) All equations used are the standard statistical mechanics
      equations for an ideal gas
  (5) All vibrations are strictly harmonic

freq.      14.27  E(vib)   ...       0.57 
freq.      25.38  E(vib)   ...       0.56 
freq.      41.69  E(vib)   ...       0.53 
freq.      50.20  E(vib)   ...       0.52 
freq.      67.28  E(vib)   ...       0.50 
freq.      73.03  E(vib)   ...       0.49 
freq.      80.61  E(vib)   ...       0.48 
freq.      87.69  E(vib)   ...       0.48 
freq.      97.18  E(vib)   ...       0.46 
freq.     102.60  E(vib)   ...       0.46 
freq.     122.09  E(vib)   ...       0.44 
freq.     137.66  E(vib)   ...       0.42 
freq.     145.30  E(vib)   ...       0.41 
freq.     153.46  E(vib)   ...       0.40 
freq.     169.72  E(vib)   ...       0.38 
freq.     180.82  E(vib)   ...       0.37 
freq.     221.40  E(vib)   ...       0.33 
freq.     234.44  E(vib)   ...       0.32 
freq.     237.64  E(vib)   ...       0.32 
freq.     259.05  E(vib)   ...       0.30 
freq.     268.92  E(vib)   ...       0.29 
freq.     285.31  E(vib)   ...       0.28 
freq.     309.65  E(vib)   ...       0.26 
freq.     318.28  E(vib)   ...       0.25 
freq.     330.33  E(vib)   ...       0.24 
freq.     366.38  E(vib)   ...       0.22 
freq.     411.52  E(vib)   ...       0.19 
freq.     439.70  E(vib)   ...       0.17 
freq.     465.10  E(vib)   ...       0.16 
freq.     490.07  E(vib)   ...       0.15 
freq.     494.24  E(vib)   ...       0.14 
freq.     502.55  E(vib)   ...       0.14 
freq.     517.63  E(vib)   ...       0.13 
freq.     547.96  E(vib)   ...       0.12 
freq.     567.88  E(vib)   ...       0.11 
freq.     573.22  E(vib)   ...       0.11 
freq.     585.05  E(vib)   ...       0.11 
freq.     618.41  E(vib)   ...       0.09 
freq.     638.59  E(vib)   ...       0.09 
freq.     657.16  E(vib)   ...       0.08 
freq.     697.06  E(vib)   ...       0.07 
freq.     707.04  E(vib)   ...       0.07 
freq.     725.67  E(vib)   ...       0.06 
freq.     732.48  E(vib)   ...       0.06 
freq.     755.36  E(vib)   ...       0.06 
freq.     768.81  E(vib)   ...       0.06 
freq.     782.07  E(vib)   ...       0.05 
freq.     785.16  E(vib)   ...       0.05 
freq.     800.23  E(vib)   ...       0.05 
freq.     813.32  E(vib)   ...       0.05 
freq.     840.29  E(vib)   ...       0.04 
freq.     872.56  E(vib)   ...       0.04 
freq.     874.11  E(vib)   ...       0.04 
freq.     882.15  E(vib)   ...       0.04 
freq.     908.45  E(vib)   ...       0.03 
freq.     960.20  E(vib)   ...       0.03 
freq.     967.60  E(vib)   ...       0.03 
freq.     983.22  E(vib)   ...       0.02 
freq.     990.21  E(vib)   ...       0.02 
freq.    1010.41  E(vib)   ...       0.02 
freq.    1025.26  E(vib)   ...       0.02 
freq.    1050.67  E(vib)   ...       0.02 
freq.    1052.96  E(vib)   ...       0.02 
freq.    1063.03  E(vib)   ...       0.02 
freq.    1073.52  E(vib)   ...       0.02 
freq.    1085.18  E(vib)   ...       0.02 
freq.    1086.28  E(vib)   ...       0.02 
freq.    1129.05  E(vib)   ...       0.01 
freq.    1134.45  E(vib)   ...       0.01 
freq.    1154.92  E(vib)   ...       0.01 
freq.    1169.68  E(vib)   ...       0.01 
freq.    1171.20  E(vib)   ...       0.01 
freq.    1174.88  E(vib)   ...       0.01 
freq.    1175.44  E(vib)   ...       0.01 
freq.    1195.40  E(vib)   ...       0.01 
freq.    1206.42  E(vib)   ...       0.01 
freq.    1213.36  E(vib)   ...       0.01 
freq.    1221.18  E(vib)   ...       0.01 
freq.    1233.83  E(vib)   ...       0.01 
freq.    1242.19  E(vib)   ...       0.01 
freq.    1273.03  E(vib)   ...       0.01 
freq.    1296.33  E(vib)   ...       0.01 
freq.    1312.41  E(vib)   ...       0.01 
freq.    1314.38  E(vib)   ...       0.01 
freq.    1327.57  E(vib)   ...       0.01 
freq.    1351.95  E(vib)   ...       0.01 
freq.    1369.45  E(vib)   ...       0.01 
freq.    1379.73  E(vib)   ...       0.01 
freq.    1389.23  E(vib)   ...       0.00 
freq.    1406.04  E(vib)   ...       0.00 
freq.    1421.15  E(vib)   ...       0.00 
freq.    1439.12  E(vib)   ...       0.00 
freq.    1465.32  E(vib)   ...       0.00 
freq.    1466.12  E(vib)   ...       0.00 
freq.    1467.85  E(vib)   ...       0.00 
freq.    1473.10  E(vib)   ...       0.00 
freq.    1473.96  E(vib)   ...       0.00 
freq.    1484.18  E(vib)   ...       0.00 
freq.    1497.42  E(vib)   ...       0.00 
freq.    1528.62  E(vib)   ...       0.00 
freq.    1536.63  E(vib)   ...       0.00 
freq.    1538.46  E(vib)   ...       0.00 
freq.    1645.82  E(vib)   ...       0.00 
freq.    1647.80  E(vib)   ...       0.00 
freq.    1663.90  E(vib)   ...       0.00 
freq.    1696.31  E(vib)   ...       0.00 
freq.    1796.32  E(vib)   ...       0.00 
freq.    2171.08  E(vib)   ...       0.00 
freq.    3037.24  E(vib)   ...       0.00 
freq.    3075.98  E(vib)   ...       0.00 
freq.    3108.40  E(vib)   ...       0.00 
freq.    3132.34  E(vib)   ...       0.00 
freq.    3152.23  E(vib)   ...       0.00 
freq.    3163.37  E(vib)   ...       0.00 
freq.    3166.55  E(vib)   ...       0.00 
freq.    3191.70  E(vib)   ...       0.00 
freq.    3195.72  E(vib)   ...       0.00 
freq.    3198.59  E(vib)   ...       0.00 
freq.    3214.68  E(vib)   ...       0.00 
freq.    3223.15  E(vib)   ...       0.00 
freq.    3231.78  E(vib)   ...       0.00 
freq.    3240.38  E(vib)   ...       0.00 
freq.    3243.63  E(vib)   ...       0.00 
freq.    3252.63  E(vib)   ...       0.00 
freq.    3281.62  E(vib)   ...       0.00 
freq.    3454.02  E(vib)   ...       0.00 

------------
INNER ENERGY
------------

The inner energy is: U= E(el) + E(ZPE) + E(vib) + E(rot) + E(trans)
    E(el)   - is the total energy from the electronic structure calculation
              = E(kin-el) + E(nuc-el) + E(el-el) + E(nuc-nuc)
    E(ZPE)  - the the zero temperature vibrational energy from the frequency calculation
    E(vib)  - the the finite temperature correction to E(ZPE) due to population
              of excited vibrational states
    E(rot)  - is the rotational thermal energy
    E(trans)- is the translational thermal energy

Summary of contributions to the inner energy U:
Electronic energy                ...  -1219.43889360 Eh
Zero point energy                ...      0.34400799 Eh     215.87 kcal/mol
Thermal vibrational correction   ...      0.02124776 Eh      13.33 kcal/mol
Thermal rotational correction    ...      0.00141627 Eh       0.89 kcal/mol
Thermal translational correction ...      0.00141627 Eh       0.89 kcal/mol
-----------------------------------------------------------------------
Total thermal energy                  -1219.07080531 Eh


Summary of corrections to the electronic energy:
(perhaps to be used in another calculation)
Total thermal correction                  0.02408031 Eh      15.11 kcal/mol
Non-thermal (ZPE) correction              0.34400799 Eh     215.87 kcal/mol
-----------------------------------------------------------------------
Total correction                          0.36808829 Eh     230.98 kcal/mol


--------
ENTHALPY
--------

The enthalpy is H = U + kB*T
                kB is Boltzmann's constant
Total free energy                 ...  -1219.07080531 Eh 
Thermal Enthalpy correction       ...      0.00094421 Eh       0.59 kcal/mol
-----------------------------------------------------------------------
Total Enthalpy                    ...  -1219.06986110 Eh


Note: Only C1 symmetry has been detected, increase convergence thresholds 
      if your molecule has a higher symmetry. Symmetry factor of 1.0 is   
      used for the rotational entropy correction. 
 

Note: Rotational entropy computed according to Herzberg 
Infrared and Raman Spectra, Chapter V,1, Van Nostrand Reinhold, 1945 
Point Group:  C1, Symmetry Number:   1  
Rotational constants in cm-1:     0.008832     0.006902     0.005311 

Vibrational entropy computed according to the QRRHO of S. Grimme
Chem.Eur.J. 2012 18 9955


-------
ENTROPY
-------

The entropy contributions are T*S = T*(S(el)+S(vib)+S(rot)+S(trans))
     S(el)   - electronic entropy
     S(vib)  - vibrational entropy
     S(rot)  - rotational entropy
     S(trans)- translational entropy
The entropies will be listed as multiplied by the temperature to get
units of energy

Electronic entropy                ...      0.00000000 Eh      0.00 kcal/mol
Vibrational entropy               ...      0.03841760 Eh     24.11 kcal/mol
Rotational entropy                ...      0.01656543 Eh     10.39 kcal/mol
Translational entropy             ...      0.02066304 Eh     12.97 kcal/mol
-----------------------------------------------------------------------
Final entropy term                ...      0.07564606 Eh     47.47 kcal/mol

In case the symmetry of your molecule has not been determined correctly
or in case you have a reason to use a different symmetry number we print 
out the resulting rotational entropy values for sn=1,12 :
 --------------------------------------------------------
|  sn= 1 | S(rot)=       0.01656543 Eh     10.39 kcal/mol|
|  sn= 2 | S(rot)=       0.01591097 Eh      9.98 kcal/mol|
|  sn= 3 | S(rot)=       0.01552814 Eh      9.74 kcal/mol|
|  sn= 4 | S(rot)=       0.01525651 Eh      9.57 kcal/mol|
|  sn= 5 | S(rot)=       0.01504582 Eh      9.44 kcal/mol|
|  sn= 6 | S(rot)=       0.01487368 Eh      9.33 kcal/mol|
|  sn= 7 | S(rot)=       0.01472813 Eh      9.24 kcal/mol|
|  sn= 8 | S(rot)=       0.01460206 Eh      9.16 kcal/mol|
|  sn= 9 | S(rot)=       0.01449085 Eh      9.09 kcal/mol|
|  sn=10 | S(rot)=       0.01439137 Eh      9.03 kcal/mol|
|  sn=11 | S(rot)=       0.01430138 Eh      8.97 kcal/mol|
|  sn=12 | S(rot)=       0.01421922 Eh      8.92 kcal/mol|
 --------------------------------------------------------


-------------------
GIBBS FREE ENERGY
-------------------

The Gibbs free energy is G = H - T*S

Total enthalpy                    ...  -1219.06986110 Eh 
Total entropy correction          ...     -0.07564606 Eh    -47.47 kcal/mol
-----------------------------------------------------------------------
Final Gibbs free energy         ...  -1219.14550716 Eh

For completeness - the Gibbs free energy minus the electronic energy
G-E(el)                           ...      0.29338644 Eh    184.10 kcal/mol


Timings for individual modules:

Sum of individual times         ...     7380.753 sec (= 123.013 min)
GTO integral calculation        ...       80.700 sec (=   1.345 min)   1.1 %
SCF iterations                  ...     3107.898 sec (=  51.798 min)  42.1 %
SCF Gradient evaluation         ...      897.560 sec (=  14.959 min)  12.2 %
Geometry relaxation             ...        3.867 sec (=   0.064 min)   0.1 %
Analytical frequency calculation...     3290.727 sec (=  54.845 min)  44.6 %
                             ****ORCA TERMINATED NORMALLY****
TOTAL RUN TIME: 0 days 2 hours 4 minutes 39 seconds 982 msec
