
                                 *****************
                                 * O   R   C   A *
                                 *****************

                                            #,                                       
                                            ###                                      
                                            ####                                     
                                            #####                                    
                                            ######                                   
                                           ########,                                 
                                     ,,################,,,,,                         
                               ,,#################################,,                 
                          ,,##########################################,,             
                       ,#########################################, ''#####,          
                    ,#############################################,,   '####,        
                  ,##################################################,,,,####,       
                ,###########''''           ''''###############################       
              ,#####''   ,,,,##########,,,,          '''####'''          '####       
            ,##' ,,,,###########################,,,                        '##       
           ' ,,###''''                  '''############,,,                           
         ,,##''                                '''############,,,,        ,,,,,,###''
      ,#''                                            '''#######################'''  
     '                                                          ''''####''''         
             ,#######,   #######,   ,#######,      ##                                
            ,#'     '#,  ##    ##  ,#'     '#,    #''#        ######   ,####,        
            ##       ##  ##   ,#'  ##            #'  '#       #        #'  '#        
            ##       ##  #######   ##           ,######,      #####,   #    #        
            '#,     ,#'  ##    ##  '#,     ,#' ,#      #,         ##   #,  ,#        
             '#######'   ##     ##  '#######'  #'      '#     #####' # '####'        



                  #######################################################
                  #                        -***-                        #
                  #          Department of theory and spectroscopy      #
                  #    Directorship and core code : Frank Neese         #
                  #        Max Planck Institute fuer Kohlenforschung    #
                  #                Kaiser Wilhelm Platz 1               #
                  #                 D-45470 Muelheim/Ruhr               #
                  #                      Germany                        #
                  #                                                     #
                  #                  All rights reserved                #
                  #                        -***-                        #
                  #######################################################


                         Program Version 5.0.4 -  RELEASE  -


 With contributions from (in alphabetic order):
   Daniel Aravena         : Magnetic Suceptibility
   Michael Atanasov       : Ab Initio Ligand Field Theory (pilot matlab implementation)
   Alexander A. Auer      : GIAO ZORA, VPT2 properties, NMR spectrum
   Ute Becker             : Parallelization
   Giovanni Bistoni       : ED, misc. LED, open-shell LED, HFLD
   Martin Brehm           : Molecular dynamics
   Dmytro Bykov           : SCF Hessian
   Vijay G. Chilkuri      : MRCI spin determinant printing, contributions to CSF-ICE
   Dipayan Datta          : RHF DLPNO-CCSD density
   Achintya Kumar Dutta   : EOM-CC, STEOM-CC
   Dmitry Ganyushin       : Spin-Orbit,Spin-Spin,Magnetic field MRCI
   Miquel Garcia          : C-PCM and meta-GGA Hessian, CC/C-PCM, Gaussian charge scheme
   Yang Guo               : DLPNO-NEVPT2, F12-NEVPT2, CIM, IAO-localization
   Andreas Hansen         : Spin unrestricted coupled pair/coupled cluster methods
   Benjamin Helmich-Paris : MC-RPA, TRAH-SCF, COSX integrals
   Lee Huntington         : MR-EOM, pCC
   Robert Izsak           : Overlap fitted RIJCOSX, COSX-SCS-MP3, EOM
   Marcus Kettner         : VPT2
   Christian Kollmar      : KDIIS, OOCD, Brueckner-CCSD(T), CCSD density, CASPT2, CASPT2-K
   Simone Kossmann        : Meta GGA functionals, TD-DFT gradient, OOMP2, MP2 Hessian
   Martin Krupicka        : Initial AUTO-CI
   Lucas Lang             : DCDCAS
   Marvin Lechner         : AUTO-CI (C++ implementation), FIC-MRCC
   Dagmar Lenk            : GEPOL surface, SMD
   Dimitrios Liakos       : Extrapolation schemes; Compound Job, initial MDCI parallelization
   Dimitrios Manganas     : Further ROCIS development; embedding schemes
   Dimitrios Pantazis     : SARC Basis sets
   Anastasios Papadopoulos: AUTO-CI, single reference methods and gradients
   Taras Petrenko         : DFT Hessian,TD-DFT gradient, ASA, ECA, R-Raman, ABS, FL, XAS/XES, NRVS
   Peter Pinski           : DLPNO-MP2, DLPNO-MP2 Gradient
   Christoph Reimann      : Effective Core Potentials
   Marius Retegan         : Local ZFS, SOC
   Christoph Riplinger    : Optimizer, TS searches, QM/MM, DLPNO-CCSD(T), (RO)-DLPNO pert. Triples
   Tobias Risthaus        : Range-separated hybrids, TD-DFT gradient, RPA, STAB
   Michael Roemelt        : Original ROCIS implementation
   Masaaki Saitow         : Open-shell DLPNO-CCSD energy and density
   Barbara Sandhoefer     : DKH picture change effects
   Avijit Sen             : IP-ROCIS
   Kantharuban Sivalingam : CASSCF convergence, NEVPT2, FIC-MRCI
   Bernardo de Souza      : ESD, SOC TD-DFT
   Georgi Stoychev        : AutoAux, RI-MP2 NMR, DLPNO-MP2 response
   Willem Van den Heuvel  : Paramagnetic NMR
   Boris Wezisla          : Elementary symmetry handling
   Frank Wennmohs         : Technical directorship


 We gratefully acknowledge several colleagues who have allowed us to
 interface, adapt or use parts of their codes:
   Stefan Grimme, W. Hujo, H. Kruse, P. Pracht,  : VdW corrections, initial TS optimization,
                  C. Bannwarth, S. Ehlert          DFT functionals, gCP, sTDA/sTD-DF
   Ed Valeev, F. Pavosevic, A. Kumar             : LibInt (2-el integral package), F12 methods
   Garnet Chan, S. Sharma, J. Yang, R. Olivares  : DMRG
   Ulf Ekstrom                                   : XCFun DFT Library
   Mihaly Kallay                                 : mrcc  (arbitrary order and MRCC methods)
   Jiri Pittner, Ondrej Demel                    : Mk-CCSD
   Frank Weinhold                                : gennbo (NPA and NBO analysis)
   Christopher J. Cramer and Donald G. Truhlar   : smd solvation model
   Lars Goerigk                                  : TD-DFT with DH, B97 family of functionals
   V. Asgeirsson, H. Jonsson                     : NEB implementation
   FAccTs GmbH                                   : IRC, NEB, NEB-TS, DLPNO-Multilevel, CI-OPT
                                                   MM, QMMM, 2- and 3-layer-ONIOM, Crystal-QMMM,
                                                   LR-CPCM, SF, NACMEs, symmetry and pop. for TD-DFT,
                                                   nearIR, NL-DFT gradient (VV10), updates on ESD,
                                                   ML-optimized integration grids
   S Lehtola, MJT Oliveira, MAL Marques          : LibXC Library
   Liviu Ungur et al                             : ANISO software


 Your calculation uses the libint2 library for the computation of 2-el integrals
 For citations please refer to: http://libint.valeyev.net

 Your ORCA version has been built with support for libXC version: 5.1.0
 For citations please refer to: https://tddft.org/programs/libxc/

 This ORCA versions uses:
   CBLAS   interface :  Fast vector & matrix operations
   LAPACKE interface :  Fast linear algebra routines
   SCALAPACK package :  Parallel linear algebra routines
   Shared memory     :  Shared parallel matrices
   BLAS/LAPACK       :  OpenBLAS 0.3.15  USE64BITINT DYNAMIC_ARCH NO_AFFINITY Haswell SINGLE_THREADED
        Core in use  :  Haswell
   Copyright (c) 2011-2014, The OpenBLAS Project


Your calculation utilizes the atom-pairwise dispersion correction
with the Becke-Johnson damping scheme (D3BJ)
Cite in your paper:
S.Grimme, S.Ehrlich, L.Goerigk, J Comput Chem, (2011), 32, 1456–1465 
S.Grimme, J.Antony, S.Ehrlich and H.Krieg, J.Chem.Phys., 132, (2010), 154104 
   

================================================================================

----- Orbital basis set information -----
Your calculation utilizes the basis: def2-TZVP
   F. Weigend and R. Ahlrichs, Phys. Chem. Chem. Phys. 7, 3297 (2005).

----- AuxJ basis set information -----
Your calculation utilizes the auxiliary basis: def2/J
   F. Weigend, Phys. Chem. Chem. Phys. 8, 1057 (2006).

================================================================================
                                        WARNINGS
                       Please study these warnings very carefully!
================================================================================


WARNING: Geometry Optimization
  ===> : Switching off AutoStart
         For restart on a previous wavefunction, please use MOREAD

INFO   : the flag for use of the SHARK integral package has been found!

================================================================================
                                       INPUT FILE
================================================================================
NAME = IM_CHCH2/IM_CHCH2.inp
|  1> %pal nprocs 24 end
|  2> ! PBE0 D3BJ def2-TZVP TightSCF OPT FREQ TightOpt
|  3> ! CPCM(dmso)
|  4> %scf
|  5> MaxIter 800
|  6> end
|  7> 
|  8> %geom
|  9> MaxIter 800
| 10> MaxStep 0.15
| 11> end
| 12> 
| 13> *xyz 0 1
| 14> C      -3.44394100      2.47329200     -0.18941700
| 15> C      -2.61610500      2.48025100      0.92976100
| 16> C      -1.32435700      1.99814000      0.82195200
| 17> N      -0.85828100      1.55258800     -0.36210400
| 18> C      -1.64460900      1.53944200     -1.45966200
| 19> C      -2.94678200      1.99351400     -1.40061200
| 20> C       0.48561300      0.95709700     -0.47756500
| 21> C       1.55993300      1.83372900      0.14864200
| 22> O       1.52934900      2.24181200      1.28539600
| 23> O       2.55196900      2.04533100     -0.69223300
| 24> C       3.68596900      2.74360700     -0.18138900
| 25> H      -4.47109600      2.83803500     -0.12032600
| 26> H      -0.62536500      1.96778800      1.65636200
| 27> H      -1.19327000      1.15216700     -2.37330400
| 28> H      -3.55846300      1.96797000     -2.30308100
| 29> H       0.70598300      0.84084800     -1.54233600
| 30> H       3.40092800      3.75575000      0.13756700
| 31> H       4.40697700      2.79103100     -1.00401100
| 32> C       1.88401300     -1.06903400      0.11807000
| 33> C       0.52072900     -0.43852800      0.19020100
| 34> C      -0.65228900     -1.29109700     -0.25704000
| 35> C      -0.65305000     -1.96806600     -1.47817400
| 36> C      -1.74915500     -2.72912500     -1.88662400
| 37> C      -2.86792400     -2.81571800     -1.06206700
| 38> C      -2.89507800     -2.15229500      0.16490900
| 39> C      -1.79284800     -1.39045300      0.56951200
| 40> O      -1.74757800     -0.71638200      1.74135800
| 41> C      -2.88086600     -0.70554300      2.57655400
| 42> N       2.57308600     -1.13397300     -1.05488300
| 43> O       3.72500300     -1.61987500     -1.10366900
| 44> H       0.36667000     -0.24020200      1.25949400
| 45> H       0.23273400     -1.87012800     -2.10969700
| 46> H      -1.72728200     -3.24877700     -2.84728000
| 47> H      -3.73574100     -3.40559900     -1.36835000
| 48> H      -3.77631000     -2.23264700      0.80193800
| 49> H      -2.62635500     -0.07286200      3.43573200
| 50> H      -3.13009000     -1.71842100      2.93288800
| 51> H      -3.75618100     -0.27862200      2.05882100
| 52> O       2.05345600     -0.69511500     -2.12177500
| 53> H       4.11340000      2.19863900      0.67202900
| 54> H      -2.96465000      2.84372200      1.89709200
| 55> C       2.46826900     -1.66199500      1.28875300
| 56> H       3.47041000     -2.06481100      1.11876800
| 57> C       1.92140300     -1.77815800      2.52035500
| 58> H       0.91486500     -1.42124700      2.76017900
| 59> H       2.48105400     -2.25571300      3.32818300
| 60> *
| 61> 
| 62>                          ****END OF INPUT****
================================================================================

                       *****************************
                       * Geometry Optimization Run *
                       *****************************

Geometry optimization settings:
Update method            Update   .... BFGS
Choice of coordinates    CoordSys .... Z-matrix Internals
Initial Hessian          InHess   .... Almoef's Model

Convergence Tolerances:
Energy Change            TolE     ....  1.0000e-06 Eh
Max. Gradient            TolMAXG  ....  1.0000e-04 Eh/bohr
RMS Gradient             TolRMSG  ....  3.0000e-05 Eh/bohr
Max. Displacement        TolMAXD  ....  1.0000e-03 bohr
RMS Displacement         TolRMSD  ....  6.0000e-04 bohr
Strict Convergence                ....  False
------------------------------------------------------------------------------
                        ORCA OPTIMIZATION COORDINATE SETUP
------------------------------------------------------------------------------

The optimization will be done in new redundant internal coordinates
Making redundant internal coordinates   ...  (new redundants) done
Evaluating the initial hessian          ...  (Almloef) done
Evaluating the coordinates              ...  done
Calculating the B-matrix                .... done
Calculating the G-matrix                .... done
Diagonalizing the G-matrix              .... done
Small eigenvalue found = 3.791e-03
Small eigenvalue found = 6.864e-03
Small eigenvalue found = 7.584e-03
Small eigenvalue found = 1.013e-02
Small eigenvalue found = 1.619e-02
Small eigenvalue found = 1.873e-02
Small eigenvalue found = 2.228e-02
The first mode is                       ....   96
The number of degrees of freedom        ....  132

    -----------------------------------------------------------------
                    Redundant Internal Coordinates


    -----------------------------------------------------------------
         Definition                    Initial Value    Approx d2E/dq
    -----------------------------------------------------------------
      1. B(C   1,C   0)                  1.3921         0.620013   
      2. B(C   2,C   1)                  1.3830         0.641091   
      3. B(N   3,C   2)                  1.3482         0.652397   
      4. B(C   4,N   3)                  1.3502         0.647631   
      5. B(C   5,C   4)                  1.3803         0.647380   
      6. B(C   5,C   0)                  1.3944         0.614782   
      7. B(C   6,N   3)                  1.4744         0.410343   
      8. B(C   7,C   6)                  1.5214         0.385508   
      9. B(O   8,C   7)                  1.2082         1.091371   
     10. B(O   9,C   7)                  1.3176         0.730194   
     11. B(C  10,O   9)                  1.4264         0.489624   
     12. B(H  11,C   0)                  1.0922         0.357227   
     13. B(H  12,C   2)                  1.0889         0.361529   
     14. B(H  13,C   4)                  1.0902         0.359900   
     15. B(H  14,C   5)                  1.0905         0.359399   
     16. B(H  15,C   6)                  1.0935         0.355457   
     17. B(H  16,C  10)                  1.0988         0.348614   
     18. B(H  17,C  10)                  1.0949         0.353674   
     19. B(C  19,C  18)                  1.5038         0.411384   
     20. B(C  19,C   6)                  1.5476         0.350248   
     21. B(C  20,C  19)                  1.5175         0.391099   
     22. B(C  21,C  20)                  1.3962         0.610661   
     23. B(C  22,C  21)                  1.3955         0.612244   
     24. B(C  23,C  22)                  1.3925         0.619101   
     25. B(C  24,C  23)                  1.3951         0.613172   
     26. B(C  25,C  24)                  1.3996         0.603037   
     27. B(C  25,C  20)                  1.4121         0.576144   
     28. B(O  26,C  25)                  1.3526         0.641912   
     29. B(C  27,O  26)                  1.4078         0.524100   
     30. B(N  28,C  18)                  1.3619         0.620379   
     31. B(O  29,N  28)                  1.2512         0.834695   
     32. B(H  30,C  19)                  1.0984         0.349174   
     33. B(H  31,C  21)                  1.0923         0.357126   
     34. B(H  32,C  22)                  1.0924         0.356916   
     35. B(H  33,C  23)                  1.0931         0.356018   
     36. B(H  34,C  24)                  1.0903         0.359656   
     37. B(H  35,C  27)                  1.0969         0.351053   
     38. B(H  36,C  27)                  1.1023         0.344223   
     39. B(H  37,H  11)                  3.8695         0.000003   
     40. B(H  37,C  27)                  1.1029         0.343378   
     41. B(O  38,N  28)                  1.2653         0.792565   
     42. B(H  39,C  10)                  1.0991         0.348267   
     43. B(H  40,C   1)                  1.0906         0.359358   
     44. B(C  41,C  18)                  1.4365         0.526736   
     45. B(H  42,C  41)                  1.0934         0.355679   
     46. B(C  43,C  41)                  1.3526         0.716940   
     47. B(H  44,C  43)                  1.0945         0.354143   
     48. B(H  45,C  43)                  1.0926         0.356629   
     49. A(C   1,C   0,H  11)          120.4468         0.352432   
     50. A(C   5,C   0,H  11)          120.3425         0.351927   
     51. A(C   1,C   0,C   5)          119.2107         0.433408   
     52. A(C   0,C   1,C   2)          119.4078         0.436690   
     53. A(C   0,C   1,H  40)          121.6493         0.352787   
     54. A(C   2,C   1,H  40)          118.9368         0.354791   
     55. A(C   1,C   2,H  12)          123.3358         0.355153   
     56. A(C   1,C   2,N   3)          120.4343         0.437826   
     57. A(N   3,C   2,H  12)          116.2216         0.354010   
     58. A(C   4,N   3,C   6)          117.5948         0.401206   
     59. A(C   2,N   3,C   4)          121.0496         0.435751   
     60. A(C   2,N   3,C   6)          121.1531         0.401725   
     61. A(C   5,C   4,H  13)          122.9076         0.355469   
     62. A(N   3,C   4,C   5)          120.7580         0.438018   
     63. A(N   3,C   4,H  13)          116.3341         0.353300   
     64. A(C   0,C   5,C   4)          119.1237         0.436792   
     65. A(C   0,C   5,H  14)          121.7961         0.352288   
     66. A(C   4,C   5,H  14)          119.0802         0.355385   
     67. A(H  15,C   6,C  19)          108.6452         0.320229   
     68. A(C   7,C   6,C  19)          109.0260         0.361308   
     69. A(N   3,C   6,C  19)          110.5557         0.362911   
     70. A(C   7,C   6,H  15)          108.6458         0.325304   
     71. A(N   3,C   6,C   7)          112.2508         0.368922   
     72. A(N   3,C   6,H  15)          107.6295         0.326695   
     73. A(C   6,C   7,O   9)          111.1935         0.407924   
     74. A(C   6,C   7,O   8)          124.3330         0.438294   
     75. A(O   8,C   7,O   9)          124.4226         0.489304   
     76. A(C   7,O   9,C  10)          116.6574         0.422887   
     77. A(O   9,C  10,H  39)          110.1535         0.335250   
     78. A(H  16,C  10,H  17)          110.4269         0.288549   
     79. A(O   9,C  10,H  17)          106.0014         0.336110   
     80. A(O   9,C  10,H  16)          110.4051         0.335305   
     81. A(H  17,C  10,H  39)          110.4118         0.288504   
     82. A(H  16,C  10,H  39)          109.4032         0.287854   
     83. A(C  19,C  18,N  28)          121.3318         0.400927   
     84. A(N  28,C  18,C  41)          118.4517         0.418875   
     85. A(C  19,C  18,C  41)          120.1801         0.392080   
     86. A(C   6,C  19,C  20)          111.2201         0.362197   
     87. A(C   6,C  19,C  18)          112.2098         0.365342   
     88. A(C  20,C  19,H  30)          106.2564         0.325121   
     89. A(C  18,C  19,H  30)          104.4515         0.327839   
     90. A(C   6,C  19,H  30)          104.7174         0.319298   
     91. A(C  18,C  19,C  20)          116.8127         0.372328   
     92. A(C  21,C  20,C  25)          118.5149         0.427220   
     93. A(C  19,C  20,C  25)          119.4309         0.394773   
     94. A(C  19,C  20,C  21)          122.0447         0.398827   
     95. A(C  22,C  21,H  31)          121.1073         0.351665   
     96. A(C  20,C  21,H  31)          117.5006         0.351511   
     97. A(C  20,C  21,C  22)          121.3878         0.431904   
     98. A(C  23,C  22,H  32)          120.4794         0.352292   
     99. A(C  21,C  22,H  32)          120.0713         0.351630   
    100. A(C  21,C  22,C  23)          119.4490         0.432971   
    101. A(C  24,C  23,H  33)          119.1824         0.351570   
    102. A(C  22,C  23,H  33)          120.3636         0.352142   
    103. A(C  22,C  23,C  24)          120.4540         0.433089   
    104. A(C  25,C  24,H  34)          120.5106         0.351184   
    105. A(C  23,C  24,H  34)          119.6384         0.352175   
    106. A(C  23,C  24,C  25)          119.8510         0.431048   
    107. A(C  24,C  25,O  26)          123.2327         0.431769   
    108. A(C  20,C  25,O  26)          116.4242         0.428247   
    109. A(C  20,C  25,C  24)          120.3429         0.426259   
    110. A(C  25,O  26,C  27)          119.3963         0.418323   
    111. A(H  36,C  27,H  37)          109.1469         0.286651   
    112. A(H  35,C  27,H  37)          109.1809         0.287532   
    113. A(O  26,C  27,H  37)          111.3063         0.338272   
    114. A(H  35,C  27,H  36)          109.2235         0.287643   
    115. A(O  26,C  27,H  36)          111.5130         0.338411   
    116. A(O  26,C  27,H  35)          106.3995         0.339523   
    117. A(C  18,N  28,O  38)          120.1251         0.444846   
    118. A(C  18,N  28,O  29)          121.1929         0.449042   
    119. A(O  29,N  28,O  38)          118.6816         0.466373   
    120. A(H  42,C  41,C  43)          118.7189         0.360969   
    121. A(C  18,C  41,C  43)          127.8136         0.432683   
    122. A(C  18,C  41,H  42)          113.4639         0.342639   
    123. A(H  44,C  43,H  45)          116.8428         0.289638   
    124. A(C  41,C  43,H  45)          120.2429         0.361133   
    125. A(C  41,C  43,H  44)          122.9102         0.360703   
    126. D(H  40,C   1,C   0,C   5)   -179.8148         0.026601   
    127. D(C   2,C   1,C   0,C   5)     -0.7223         0.026601   
    128. D(H  40,C   1,C   0,H  11)      0.1171         0.026601   
    129. D(C   2,C   1,C   0,H  11)    179.2096         0.026601   
    130. D(H  12,C   2,C   1,C   0)   -179.6064         0.028562   
    131. D(H  12,C   2,C   1,H  40)     -0.4892         0.028562   
    132. D(N   3,C   2,C   1,H  40)   -179.4001         0.028562   
    133. D(N   3,C   2,C   1,C   0)      1.4826         0.028562   
    134. D(C   4,N   3,C   2,H  12)    179.6129         0.034757   
    135. D(C   6,N   3,C   2,H  12)      4.9084         0.034757   
    136. D(C   4,N   3,C   2,C   1)     -1.4013         0.034757   
    137. D(C   6,N   3,C   2,C   1)   -176.1058         0.034757   
    138. D(C   5,C   4,N   3,C   6)    175.4282         0.034208   
    139. D(C   5,C   4,N   3,C   2)      0.5413         0.034208   
    140. D(H  13,C   4,N   3,C   2)   -179.2741         0.034208   
    141. D(H  13,C   4,N   3,C   6)     -4.3872         0.034208   
    142. D(H  14,C   5,C   4,H  13)     -0.0323         0.029164   
    143. D(C   0,C   5,C   4,H  13)   -179.9795         0.029164   
    144. D(H  14,C   5,C   0,H  11)      0.0114         0.026127   
    145. D(C   0,C   5,C   4,N   3)      0.2175         0.029164   
    146. D(H  14,C   5,C   0,C   1)    179.9433         0.026127   
    147. D(H  14,C   5,C   4,N   3)   -179.8353         0.029164   
    148. D(C   4,C   5,C   0,H  11)    179.9571         0.026127   
    149. D(C   4,C   5,C   0,C   1)     -0.1110         0.026127   
    150. D(C  19,C   6,N   3,C   4)   -103.4166         0.014364   
    151. D(C  19,C   6,N   3,C   2)     71.4648         0.014364   
    152. D(H  15,C   6,N   3,C   4)     15.1017         0.014364   
    153. D(C   7,C   6,N   3,C   2)    -50.5134         0.014364   
    154. D(H  15,C   6,N   3,C   2)   -170.0169         0.014364   
    155. D(C   7,C   6,N   3,C   4)    134.6052         0.014364   
    156. D(O   8,C   7,C   6,N   3)     54.2314         0.011071   
    157. D(O   9,C   7,C   6,C  19)    108.8841         0.011071   
    158. D(O   9,C   7,C   6,H  15)     -9.3628         0.011071   
    159. D(O   9,C   7,C   6,N   3)   -128.2708         0.011071   
    160. D(O   8,C   7,C   6,C  19)    -68.6138         0.011071   
    161. D(O   8,C   7,C   6,H  15)    173.1393         0.011071   
    162. D(C  10,O   9,C   7,O   8)      3.5116         0.040266   
    163. D(C  10,O   9,C   7,C   6)   -173.9836         0.040266   
    164. D(H  39,C  10,O   9,C   7)     58.6138         0.018930   
    165. D(H  17,C  10,O   9,C   7)    178.0684         0.018930   
    166. D(H  16,C  10,O   9,C   7)    -62.3234         0.018930   
    167. D(H  30,C  19,C  18,C  41)     19.8702         0.012531   
    168. D(C  20,C  19,C  18,C  41)    -97.1408         0.012531   
    169. D(C  20,C  19,C  18,N  28)     80.6330         0.012531   
    170. D(C   6,C  19,C  18,C  41)    132.7376         0.012531   
    171. D(C   6,C  19,C  18,N  28)    -49.4886         0.012531   
    172. D(H  30,C  19,C   6,H  15)    175.9535         0.009883   
    173. D(H  30,C  19,C   6,C   7)     57.7062         0.009883   
    174. D(H  30,C  19,C   6,N   3)    -66.1485         0.009883   
    175. D(C  20,C  19,C   6,H  15)    -69.6863         0.009883   
    176. D(C  20,C  19,C   6,C   7)    172.0665         0.009883   
    177. D(C  20,C  19,C   6,N   3)     48.2118         0.009883   
    178. D(C  18,C  19,C   6,H  15)     63.2508         0.009883   
    179. D(H  30,C  19,C  18,N  28)   -162.3560         0.012531   
    180. D(C  18,C  19,C   6,N   3)   -178.8512         0.009883   
    181. D(C  18,C  19,C   6,C   7)    -54.9965         0.009883   
    182. D(C  25,C  20,C  19,H  30)     14.9081         0.011376   
    183. D(C  25,C  20,C  19,C  18)    130.9256         0.011376   
    184. D(C  25,C  20,C  19,C   6)    -98.4889         0.011376   
    185. D(C  21,C  20,C  19,H  30)   -166.2334         0.011376   
    186. D(C  21,C  20,C  19,C  18)    -50.2159         0.011376   
    187. D(C  21,C  20,C  19,C   6)     80.3697         0.011376   
    188. D(C  22,C  21,C  20,C  19)   -178.8355         0.025758   
    189. D(H  31,C  21,C  20,C  25)    179.2857         0.025758   
    190. D(H  31,C  21,C  20,C  19)      0.4172         0.025758   
    191. D(C  22,C  21,C  20,C  25)      0.0331         0.025758   
    192. D(H  32,C  22,C  21,H  31)      0.6791         0.025899   
    193. D(H  32,C  22,C  21,C  20)    179.9049         0.025899   
    194. D(C  23,C  22,C  21,H  31)   -179.1365         0.025899   
    195. D(C  23,C  22,C  21,C  20)      0.0892         0.025899   
    196. D(H  33,C  23,C  22,H  32)      0.0305         0.026518   
    197. D(H  33,C  23,C  22,C  21)    179.8454         0.026518   
    198. D(C  24,C  23,C  22,H  32)    179.9743         0.026518   
    199. D(C  24,C  23,C  22,C  21)     -0.2108         0.026518   
    200. D(H  34,C  24,C  23,H  33)      0.2016         0.025982   
    201. D(H  34,C  24,C  23,C  22)   -179.7428         0.025982   
    202. D(C  25,C  24,C  23,H  33)   -179.8468         0.025982   
    203. D(C  25,C  24,C  23,C  22)      0.2088         0.025982   
    204. D(O  26,C  25,C  24,H  34)     -0.2794         0.025083   
    205. D(O  26,C  25,C  24,C  23)    179.7694         0.025083   
    206. D(C  20,C  25,C  24,H  34)    179.8672         0.025083   
    207. D(C  20,C  25,C  24,C  23)     -0.0840         0.025083   
    208. D(O  26,C  25,C  20,C  21)   -179.8987         0.022792   
    209. D(O  26,C  25,C  20,C  19)     -0.9998         0.022792   
    210. D(C  24,C  25,C  20,C  21)     -0.0356         0.022792   
    211. D(C  24,C  25,C  20,C  19)    178.8632         0.022792   
    212. D(C  27,O  26,C  25,C  24)     -3.6822         0.030391   
    213. D(C  27,O  26,C  25,C  20)    176.1765         0.030391   
    214. D(H  37,C  27,O  26,C  25)    -58.9480         0.021792   
    215. D(H  36,C  27,O  26,C  25)     63.2027         0.021792   
    216. D(H  35,C  27,O  26,C  25)   -177.7898         0.021792   
    217. D(O  38,N  28,C  18,C  41)    175.6863         0.031168   
    218. D(O  38,N  28,C  18,C  19)     -2.1249         0.031168   
    219. D(O  29,N  28,C  18,C  41)     -4.5395         0.031168   
    220. D(O  29,N  28,C  18,C  19)    177.6493         0.031168   
    221. D(C  43,C  41,C  18,N  28)   -175.6707         0.018932   
    222. D(C  43,C  41,C  18,C  19)      2.1666         0.018932   
    223. D(H  42,C  41,C  18,N  28)      3.6287         0.018932   
    224. D(H  42,C  41,C  18,C  19)   -178.5340         0.018932   
    225. D(H  45,C  43,C  41,H  42)      0.7334         0.036351   
    226. D(H  45,C  43,C  41,C  18)   -179.9994         0.036351   
    227. D(H  44,C  43,C  41,H  42)   -178.5025         0.036351   
    228. D(H  44,C  43,C  41,C  18)      0.7647         0.036351   
    -----------------------------------------------------------------

Number of atoms                         .... 46
Number of degrees of freedom            .... 228

         *************************************************************
         *                GEOMETRY OPTIMIZATION CYCLE   1            *
         *************************************************************
---------------------------------
CARTESIAN COORDINATES (ANGSTROEM)
---------------------------------
  C     -3.443941    2.473292   -0.189417
  C     -2.616105    2.480251    0.929761
  C     -1.324357    1.998140    0.821952
  N     -0.858281    1.552588   -0.362104
  C     -1.644609    1.539442   -1.459662
  C     -2.946782    1.993514   -1.400612
  C      0.485613    0.957097   -0.477565
  C      1.559933    1.833729    0.148642
  O      1.529349    2.241812    1.285396
  O      2.551969    2.045331   -0.692233
  C      3.685969    2.743607   -0.181389
  H     -4.471096    2.838035   -0.120326
  H     -0.625365    1.967788    1.656362
  H     -1.193270    1.152167   -2.373304
  H     -3.558463    1.967970   -2.303081
  H      0.705983    0.840848   -1.542336
  H      3.400928    3.755750    0.137567
  H      4.406977    2.791031   -1.004011
  C      1.884013   -1.069034    0.118070
  C      0.520729   -0.438528    0.190201
  C     -0.652289   -1.291097   -0.257040
  C     -0.653050   -1.968066   -1.478174
  C     -1.749155   -2.729125   -1.886624
  C     -2.867924   -2.815718   -1.062067
  C     -2.895078   -2.152295    0.164909
  C     -1.792848   -1.390453    0.569512
  O     -1.747578   -0.716382    1.741358
  C     -2.880866   -0.705543    2.576554
  N      2.573086   -1.133973   -1.054883
  O      3.725003   -1.619875   -1.103669
  H      0.366670   -0.240202    1.259494
  H      0.232734   -1.870128   -2.109697
  H     -1.727282   -3.248777   -2.847280
  H     -3.735741   -3.405599   -1.368350
  H     -3.776310   -2.232647    0.801938
  H     -2.626355   -0.072862    3.435732
  H     -3.130090   -1.718421    2.932888
  H     -3.756181   -0.278622    2.058821
  O      2.053456   -0.695115   -2.121775
  H      4.113400    2.198639    0.672029
  H     -2.964650    2.843722    1.897092
  C      2.468269   -1.661995    1.288753
  H      3.470410   -2.064811    1.118768
  C      1.921403   -1.778158    2.520355
  H      0.914865   -1.421247    2.760179
  H      2.481054   -2.255713    3.328183

----------------------------
CARTESIAN COORDINATES (A.U.)
----------------------------
  NO LB      ZA    FRAG     MASS         X           Y           Z
   0 C     6.0000    0    12.011   -6.508105    4.673845   -0.357946
   1 C     6.0000    0    12.011   -4.943722    4.686995    1.756994
   2 C     6.0000    0    12.011   -2.502672    3.775937    1.553264
   3 N     7.0000    0    14.007   -1.621916    2.933966   -0.684277
   4 C     6.0000    0    12.011   -3.107861    2.909124   -2.758361
   5 C     6.0000    0    12.011   -5.568611    3.767196   -2.646773
   6 C     6.0000    0    12.011    0.917676    1.808651   -0.902467
   7 C     6.0000    0    12.011    2.947846    3.465246    0.280893
   8 O     8.0000    0    15.999    2.890051    4.236411    2.429046
   9 O     8.0000    0    15.999    4.822523    3.865115   -1.308131
  10 C     6.0000    0    12.011    6.965472    5.184666   -0.342776
  11 H     1.0000    0     1.008   -8.449147    5.363109   -0.227383
  12 H     1.0000    0     1.008   -1.181769    3.718580    3.130071
  13 H     1.0000    0     1.008   -2.254954    2.177280   -4.484895
  14 H     1.0000    0     1.008   -6.724521    3.718924   -4.352192
  15 H     1.0000    0     1.008    1.334115    1.588972   -2.914593
  16 H     1.0000    0     1.008    6.426823    7.097339    0.259964
  17 H     1.0000    0     1.008    8.327980    5.274284   -1.897306
  18 C     6.0000    0    12.011    3.560269   -2.020181    0.223120
  19 C     6.0000    0    12.011    0.984035   -0.828698    0.359428
  20 C     6.0000    0    12.011   -1.232648   -2.439820   -0.485735
  21 C     6.0000    0    12.011   -1.234086   -3.719106   -2.793344
  22 C     6.0000    0    12.011   -3.305424   -5.157299   -3.565203
  23 C     6.0000    0    12.011   -5.419591   -5.320936   -2.007016
  24 C     6.0000    0    12.011   -5.470905   -4.067248    0.311633
  25 C     6.0000    0    12.011   -3.387992   -2.627575    1.076222
  26 O     8.0000    0    15.999   -3.302444   -1.353766    3.290690
  27 C     6.0000    0    12.011   -5.444048   -1.333283    4.868981
  28 N     7.0000    0    14.007    4.862428   -2.142898   -1.993440
  29 O     8.0000    0    15.999    7.039236   -3.061120   -2.085632
  30 H     1.0000    0     1.008    0.692906   -0.453916    2.380099
  31 H     1.0000    0     1.008    0.439804   -3.534030   -3.986750
  32 H     1.0000    0     1.008   -3.264090   -6.139299   -5.380579
  33 H     1.0000    0     1.008   -7.059527   -6.435649   -2.585807
  34 H     1.0000    0     1.008   -7.136192   -4.219091    1.515443
  35 H     1.0000    0     1.008   -4.963092   -0.137689    6.492593
  36 H     1.0000    0     1.008   -5.915013   -3.247345    5.542355
  37 H     1.0000    0     1.008   -7.098153   -0.526519    3.890608
  38 O     8.0000    0    15.999    3.880469   -1.313577   -4.009574
  39 H     1.0000    0     1.008    7.773199    4.154826    1.269951
  40 H     1.0000    0     1.008   -5.602377    5.373856    3.584984
  41 C     6.0000    0    12.011    4.664352   -3.140715    2.435390
  42 H     1.0000    0     1.008    6.558124   -3.901927    2.114165
  43 C     6.0000    0    12.011    3.630925   -3.360232    4.762781
  44 H     1.0000    0     1.008    1.728844   -2.685768    5.215982
  45 H     1.0000    0     1.008    4.688513   -4.262680    6.289354

--------------------------------
INTERNAL COORDINATES (ANGSTROEM)
--------------------------------
 C      0   0   0     0.000000000000     0.00000000     0.00000000
 C      1   0   0     1.392092046619     0.00000000     0.00000000
 C      2   1   0     1.382991935011   119.40784181     0.00000000
 N      3   2   1     1.348232930030   120.43427834     1.48258733
 C      4   3   2     1.350228908098   121.04964000   358.59866335
 C      5   4   3     1.380334309366   120.75800348     0.54128962
 C      4   3   2     1.474446288217   121.15306906   183.89422181
 C      7   4   3     1.521440873867   112.25075337   309.48658188
 O      8   7   4     1.208170837448   124.33296915    54.23139289
 O      8   7   4     1.317566543794   111.19346785   231.72922590
 C     10   8   7     1.426361442451   116.65743700   186.01639730
 H      1   2   3     1.092180578638   120.44679287   179.20956484
 H      3   2   1     1.088921993564   123.33576613   180.39355236
 H      5   4   3     1.090151605379   116.33409820   180.72585240
 H      6   5   4     1.090530346968   119.08022282   180.16469917
 H      7   4   3     1.093532829568   107.62948929   189.98308319
 H     11  10   8     1.098824259864   110.40512095   297.67656950
 H     11  10   8     1.094901149293   106.00140873   178.06838566
 C      7   4   3     2.532885793396   143.88826433    70.39340177
 C     19   7   4     1.503756616562    34.44758005     1.82527007
 C     20  19   7     1.517520886237   116.81272633   130.12166327
 C     21  20  19     1.396229154558   122.04465384   309.78412243
 C     22  21  20     1.395524408603   121.38784170   181.16452139
 C     23  22  21     1.392492969196   119.44900817     0.08920678
 C     24  23  22     1.395112010278   120.45402110   359.78918705
 C     25  24  23     1.399649167996   119.85096635     0.20878720
 O     26  25  24     1.352643387467   123.23273476   179.76938548
 C     27  26  25     1.407839313729   119.39631011   356.31781570
 N     19   7   4     1.361931500942    96.60056182   141.00113436
 O     29  19   7     1.251156905543   121.19291395   151.99619442
 H     20  19   7     1.098387407797   104.45151241   247.13258696
 H     22  21  20     1.092257499873   117.50055974     0.41715296
 H     23  22  21     1.092417767875   120.07132099   179.90488021
 H     24  23  22     1.093103478971   120.36355935   179.84540334
 H     25  24  23     1.090335832929   119.63838291   180.25715194
 H     28  27  26     1.096926584857   106.39947824   182.21022426
 H     28  27  26     1.102274178513   111.51297595    63.20270107
 H     28  27  26     1.102943946334   111.30625844   301.05200396
 O     29  19   7     1.265255002254   120.12512102   332.22193756
 H     11  10   8     1.099094929253   110.15350414    58.61381410
 H      2   1   3     1.090561345559   121.64926373   180.90749411
 C     19   7   4     1.436473636217   138.27997709   289.26175243
 H     42  19   7     1.093362800703   113.46390400   220.09549967
 C     42  19   7     1.352553049211   127.81360980    40.79610235
 H     44  42  19     1.094540889296   122.91016214     0.76469226
 H     44  42  19     1.092636306101   120.24286634   180.00055547

---------------------------
INTERNAL COORDINATES (A.U.)
---------------------------
 C      0   0   0     0.000000000000     0.00000000     0.00000000
 C      1   0   0     2.630672721321     0.00000000     0.00000000
 C      2   1   0     2.613476002593   119.40784181     0.00000000
 N      3   2   1     2.547791002490   120.43427834     1.48258733
 C      4   3   2     2.551562854409   121.04964000   358.59866335
 C      5   4   3     2.608453817957   120.75800348     0.54128962
 C      4   3   2     2.786299683908   121.15306906   183.89422181
 C      7   4   3     2.875106580562   112.25075337   309.48658188
 O      8   7   4     2.283112005768   124.33296915    54.23139289
 O      8   7   4     2.489839930988   111.19346785   231.72922590
 C     10   8   7     2.695432494218   116.65743700   186.01639730
 H      1   2   3     2.063922182414   120.44679287   179.20956484
 H      3   2   1     2.057764349040   123.33576613   180.39355236
 H      5   4   3     2.060087978621   116.33409820   180.72585240
 H      6   5   4     2.060803696500   119.08022282   180.16469917
 H      7   4   3     2.066477566335   107.62948929   189.98308319
 H     11  10   8     2.076476920452   110.40512095   297.67656950
 H     11  10   8     2.069063315880   106.00140873   178.06838566
 C      7   4   3     4.786460478018   143.88826433    70.39340177
 C     19   7   4     2.841688177374    34.44758005     1.82527007
 C     20  19   7     2.867698877494   116.81272633   130.12166327
 C     21  20  19     2.638490722311   122.04465384   309.78412243
 C     22  21  20     2.637158945462   121.38784170   181.16452139
 C     23  22  21     2.631430355190   119.44900817     0.08920678
 C     24  23  22     2.636379625569   120.45402110   359.78918705
 C     25  24  23     2.644953611084   119.85096635     0.20878720
 O     26  25  24     2.556125559171   123.23273476   179.76938548
 C     27  26  25     2.660430743515   119.39631011   356.31781570
 N     19   7   4     2.573677549941    96.60056182   141.00113436
 O     29  19   7     2.364343902041   121.19291395   151.99619442
 H     20  19   7     2.075651389683   104.45151241   247.13258696
 H     22  21  20     2.064067542482   117.50055974     0.41715296
 H     23  22  21     2.064370405113   120.07132099   179.90488021
 H     24  23  22     2.065666211292   120.36355935   179.84540334
 H     25  24  23     2.060436118237   119.63838291   180.25715194
 H     28  27  26     2.072890834397   106.39947824   182.21022426
 H     28  27  26     2.082996321882   111.51297595    63.20270107
 H     28  27  26     2.084261999638   111.30625844   301.05200396
 O     29  19   7     2.390985443833   120.12512102   332.22193756
 H     11  10   8     2.076988411469   110.15350414    58.61381410
 H      2   1   3     2.060862275347   121.64926373   180.90749411
 C     19   7   4     2.714541771048   138.27997709   289.26175243
 H     42  19   7     2.066156258347   113.46390400   220.09549967
 C     42  19   7     2.555954844608   127.81360980    40.79610235
 H     44  42  19     2.068382523148   122.91016214     0.76469226
 H     44  42  19     2.064783382510   120.24286634   180.00055547

---------------------
BASIS SET INFORMATION
---------------------
There are 4 groups of distinct atoms

 Group   1 Type C   : 11s6p2d1f contracted to 5s3p2d1f pattern {62111/411/11/1}
 Group   2 Type N   : 11s6p2d1f contracted to 5s3p2d1f pattern {62111/411/11/1}
 Group   3 Type O   : 11s6p2d1f contracted to 5s3p2d1f pattern {62111/411/11/1}
 Group   4 Type H   : 5s1p contracted to 3s1p pattern {311/1}

Atom   0C    basis set group =>   1
Atom   1C    basis set group =>   1
Atom   2C    basis set group =>   1
Atom   3N    basis set group =>   2
Atom   4C    basis set group =>   1
Atom   5C    basis set group =>   1
Atom   6C    basis set group =>   1
Atom   7C    basis set group =>   1
Atom   8O    basis set group =>   3
Atom   9O    basis set group =>   3
Atom  10C    basis set group =>   1
Atom  11H    basis set group =>   4
Atom  12H    basis set group =>   4
Atom  13H    basis set group =>   4
Atom  14H    basis set group =>   4
Atom  15H    basis set group =>   4
Atom  16H    basis set group =>   4
Atom  17H    basis set group =>   4
Atom  18C    basis set group =>   1
Atom  19C    basis set group =>   1
Atom  20C    basis set group =>   1
Atom  21C    basis set group =>   1
Atom  22C    basis set group =>   1
Atom  23C    basis set group =>   1
Atom  24C    basis set group =>   1
Atom  25C    basis set group =>   1
Atom  26O    basis set group =>   3
Atom  27C    basis set group =>   1
Atom  28N    basis set group =>   2
Atom  29O    basis set group =>   3
Atom  30H    basis set group =>   4
Atom  31H    basis set group =>   4
Atom  32H    basis set group =>   4
Atom  33H    basis set group =>   4
Atom  34H    basis set group =>   4
Atom  35H    basis set group =>   4
Atom  36H    basis set group =>   4
Atom  37H    basis set group =>   4
Atom  38O    basis set group =>   3
Atom  39H    basis set group =>   4
Atom  40H    basis set group =>   4
Atom  41C    basis set group =>   1
Atom  42H    basis set group =>   4
Atom  43C    basis set group =>   1
Atom  44H    basis set group =>   4
Atom  45H    basis set group =>   4
---------------------------------
AUXILIARY/J BASIS SET INFORMATION
---------------------------------
There are 4 groups of distinct atoms

 Group   1 Type C   : 12s5p4d2f1g contracted to 6s4p3d1f1g pattern {711111/2111/211/2/1}
 Group   2 Type N   : 12s5p4d2f1g contracted to 6s4p3d1f1g pattern {711111/2111/211/2/1}
 Group   3 Type O   : 12s5p4d2f1g contracted to 6s4p3d1f1g pattern {711111/2111/211/2/1}
 Group   4 Type H   : 5s2p1d contracted to 3s1p1d pattern {311/2/1}

Atom   0C    basis set group =>   1
Atom   1C    basis set group =>   1
Atom   2C    basis set group =>   1
Atom   3N    basis set group =>   2
Atom   4C    basis set group =>   1
Atom   5C    basis set group =>   1
Atom   6C    basis set group =>   1
Atom   7C    basis set group =>   1
Atom   8O    basis set group =>   3
Atom   9O    basis set group =>   3
Atom  10C    basis set group =>   1
Atom  11H    basis set group =>   4
Atom  12H    basis set group =>   4
Atom  13H    basis set group =>   4
Atom  14H    basis set group =>   4
Atom  15H    basis set group =>   4
Atom  16H    basis set group =>   4
Atom  17H    basis set group =>   4
Atom  18C    basis set group =>   1
Atom  19C    basis set group =>   1
Atom  20C    basis set group =>   1
Atom  21C    basis set group =>   1
Atom  22C    basis set group =>   1
Atom  23C    basis set group =>   1
Atom  24C    basis set group =>   1
Atom  25C    basis set group =>   1
Atom  26O    basis set group =>   3
Atom  27C    basis set group =>   1
Atom  28N    basis set group =>   2
Atom  29O    basis set group =>   3
Atom  30H    basis set group =>   4
Atom  31H    basis set group =>   4
Atom  32H    basis set group =>   4
Atom  33H    basis set group =>   4
Atom  34H    basis set group =>   4
Atom  35H    basis set group =>   4
Atom  36H    basis set group =>   4
Atom  37H    basis set group =>   4
Atom  38O    basis set group =>   3
Atom  39H    basis set group =>   4
Atom  40H    basis set group =>   4
Atom  41C    basis set group =>   1
Atom  42H    basis set group =>   4
Atom  43C    basis set group =>   1
Atom  44H    basis set group =>   4
Atom  45H    basis set group =>   4


           ************************************************************
           *        Program running with 24 parallel MPI-processes    *
           *              working on a common directory               *
           ************************************************************
------------------------------------------------------------------------------
                           ORCA GTO INTEGRAL CALCULATION
                           -- RI-GTO INTEGRALS CHOSEN --
------------------------------------------------------------------------------
------------------------------------------------------------------------------
                   ___                                                        
                  /   \      - P O W E R E D   B Y -                         
                 /     \                                                     
                 |  |  |   _    _      __       _____    __    __             
                 |  |  |  | |  | |    /  \     |  _  \  |  |  /  |          
                  \  \/   | |  | |   /    \    | | | |  |  | /  /          
                 / \  \   | |__| |  /  /\  \   | |_| |  |  |/  /          
                |  |  |   |  __  | /  /__\  \  |    /   |      \           
                |  |  |   | |  | | |   __   |  |    \   |  |\   \          
                \     /   | |  | | |  |  |  |  | |\  \  |  | \   \       
                 \___/    |_|  |_| |__|  |__|  |_| \__\ |__|  \__/        
                                                                              
                      - O R C A' S   B I G   F R I E N D -                    
                                      &                                       
                       - I N T E G R A L  F E E D E R -                       
                                                                              
 v1 FN, 2020, v2 2021                                                         
------------------------------------------------------------------------------


Reading SHARK input file IM_CHCH2/IM_CHCH2.SHARKINP.tmp ... ok
----------------------
SHARK INTEGRAL PACKAGE
----------------------

Number of atoms                             ...     46
Number of basis functions                   ...    926
Number of shells                            ...    366
Maximum angular momentum                    ...      3
Integral batch strategy                     ... SHARK/LIBINT Hybrid
RI-J (if used) integral strategy            ... SPLIT-RIJ (Revised 2003 algorithm where possible)
Printlevel                                  ...      1
Contraction scheme used                     ... SEGMENTED contraction
Coulomb Range Separation                    ... NOT USED
Exchange Range Separation                   ... NOT USED
Finite Nucleus Model                        ... NOT USED
Auxiliary Coulomb fitting basis             ... AVAILABLE
   # of basis functions in Aux-J            ...   1494
   # of shells in Aux-J                     ...    490
   Maximum angular momentum in Aux-J        ...      4
Auxiliary J/K fitting basis                 ... NOT available
Auxiliary Correlation fitting basis         ... NOT available
Auxiliary 'external' fitting basis          ... NOT available
Integral threshold                          ...     2.500000e-11
Primitive cut-off                           ...     2.500000e-12
Primitive pair pre-selection threshold      ...     2.500000e-12

Calculating pre-screening integrals         ... done (  0.1 sec) Dimension = 366
Organizing shell pair data                  ... done (  1.3 sec)
Shell pair information
Total number of shell pairs                 ...     67161
Shell pairs after pre-screening             ...     49114
Total number of primitive shell pairs       ...    205752
Primitive shell pairs kept                  ...     98056
          la=0 lb=0:  12705 shell pairs
          la=1 lb=0:  14119 shell pairs
          la=1 lb=1:   3944 shell pairs
          la=2 lb=0:   7009 shell pairs
          la=2 lb=1:   3979 shell pairs
          la=2 lb=2:   1032 shell pairs
          la=3 lb=0:   3243 shell pairs
          la=3 lb=1:   1899 shell pairs
          la=3 lb=2:    942 shell pairs
          la=3 lb=3:    242 shell pairs

Calculating one electron integrals          ... done (  0.1 sec)
Calculating RI/J V-Matrix + Cholesky decomp.... done (  0.2 sec)
Calculating Nuclear repulsion               ... done (  0.0 sec) ENN=   2522.573061772607 Eh

SHARK setup successfully completed in   3.1 seconds

Maximum memory used throughout the entire GTOINT-calculation: 73.2 MB


           ************************************************************
           *        Program running with 24 parallel MPI-processes    *
           *              working on a common directory               *
           ************************************************************
-------------------------------------------------------------------------------
                                 ORCA SCF
-------------------------------------------------------------------------------

------------
SCF SETTINGS
------------
Hamiltonian:
 Density Functional     Method          .... DFT(GTOs)
 Exchange Functional    Exchange        .... PBE
   PBE kappa parameter   XKappa         ....  0.804000
   PBE mue parameter    XMuePBE         ....  0.219520
 Correlation Functional Correlation     .... PBE
   PBE beta parameter  CBetaPBE         ....  0.066725
 LDA part of GGA corr.  LDAOpt          .... PW91-LDA
 Gradients option       PostSCFGGA      .... off
 Hybrid DFT is turned on
   Fraction HF Exchange ScalHFX         ....  0.250000
   Scaling of DF-GGA-X  ScalDFX         ....  0.750000
   Scaling of DF-GGA-C  ScalDFC         ....  1.000000
   Scaling of DF-LDA-C  ScalLDAC        ....  1.000000
   Perturbative correction              ....  0.000000
   Density functional embedding theory  .... OFF
   NL short-range parameter             ....  6.900000
 RI-approximation to the Coulomb term is turned on
   Number of AuxJ basis functions       .... 1494
   RIJ-COSX (HFX calculated with COS-X)).... on


General Settings:
 Integral files         IntName         .... IM_CHCH2/IM_CHCH2
 Hartree-Fock type      HFTyp           .... RHF
 Total Charge           Charge          ....    0
 Multiplicity           Mult            ....    1
 Number of Electrons    NEL             ....  188
 Basis Dimension        Dim             ....  926
 Nuclear Repulsion      ENuc            ....   2522.5730617726 Eh

Convergence Acceleration:
 DIIS                   CNVDIIS         .... on
   Start iteration      DIISMaxIt       ....    12
   Startup error        DIISStart       ....  0.200000
   # of expansion vecs  DIISMaxEq       ....     5
   Bias factor          DIISBfac        ....   1.050
   Max. coefficient     DIISMaxC        ....  10.000
 Trust-Rad. Augm. Hess. CNVTRAH         .... auto
   Auto Start mean grad. ratio tolernc. ....  1.125000
   Auto Start start iteration           ....    20
   Auto Start num. interpolation iter.  ....    10
   Max. Number of Micro iterations      ....    16
   Max. Number of Macro iterations      .... Maxiter - #DIIS iter
   Number of Davidson start vectors     ....     2
   Converg. threshold I  (grad. norm)   ....   1.000e-05
   Converg. threshold II (energy diff.) ....   1.000e-08
   Grad. Scal. Fac. for Micro threshold ....   0.100
   Minimum threshold for Micro iter.    ....   0.010
   NR start threshold (gradient norm)   ....   0.001
   Initial trust radius                 ....   0.400
   Minimum AH scaling param. (alpha)    ....   1.000
   Maximum AH scaling param. (alpha)    .... 1000.000
   Orbital update algorithm             .... Taylor
   White noise on init. David. guess    .... on
   Maximum white noise                  ....   0.010
   Quad. conv. algorithm                .... NR
 SOSCF                  CNVSOSCF        .... on
   Start iteration      SOSCFMaxIt      ....   150
   Startup grad/error   SOSCFStart      ....  0.003300
 Level Shifting         CNVShift        .... on
   Level shift para.    LevelShift      ....    0.2500
   Turn off err/grad.   ShiftErr        ....    0.0010
 Zerner damping         CNVZerner       .... off
 Static damping         CNVDamp         .... on
   Fraction old density DampFac         ....    0.7000
   Max. Damping (<1)    DampMax         ....    0.9800
   Min. Damping (>=0)   DampMin         ....    0.0000
   Turn off err/grad.   DampErr         ....    0.1000
 Fernandez-Rico         CNVRico         .... off

SCF Procedure:
 Maximum # iterations   MaxIter         ....   800
 SCF integral mode      SCFMode         .... Direct
   Integral package                     .... SHARK and LIBINT hybrid scheme
 Reset frequency        DirectResetFreq ....    20
 Integral Threshold     Thresh          ....  2.500e-11 Eh
 Primitive CutOff       TCut            ....  2.500e-12 Eh

Convergence Tolerance:
 Convergence Check Mode ConvCheckMode   .... Total+1el-Energy
 Convergence forced     ConvForced      .... 0
 Energy Change          TolE            ....  1.000e-08 Eh
 1-El. energy change                    ....  1.000e-05 Eh
 Orbital Gradient       TolG            ....  1.000e-05
 Orbital Rotation angle TolX            ....  1.000e-05
 DIIS Error             TolErr          ....  5.000e-07


Diagonalization of the overlap matrix:
Smallest eigenvalue                        ... 5.720e-06
Time for diagonalization                   ...    0.299 sec
Threshold for overlap eigenvalues          ... 1.000e-08
Number of eigenvalues below threshold      ... 0
Time for construction of square roots      ...    0.261 sec
Total time needed                          ...    0.568 sec

Time for model grid setup =    0.352 sec

------------------------------
INITIAL GUESS: MODEL POTENTIAL
------------------------------
Loading Hartree-Fock densities                     ... done
Calculating cut-offs                               ... done
Initializing the effective Hamiltonian             ... done
Setting up the integral package (SHARK)            ... done
Starting the Coulomb interaction                   ... done (   0.5 sec)
Reading the grid                                   ... done
Mapping shells                                     ... done
Starting the XC term evaluation                    ... done (   0.3 sec)
  promolecular density results
     # of electrons  =    188.001755192
     EX              =   -156.966102349
     EC              =     -6.347940996
     EX+EC           =   -163.314043345
Transforming the Hamiltonian                       ... done (   0.2 sec)
Diagonalizing the Hamiltonian                      ... done (   0.3 sec)
Back transforming the eigenvectors                 ... done (   0.1 sec)
Now organizing SCF variables                       ... done
                      ------------------
                      INITIAL GUESS DONE (   1.9 sec)
                      ------------------
-------------------
DFT GRID GENERATION
-------------------

General Integration Accuracy     IntAcc      ... 4.388
Radial Grid Type                 RadialGrid  ... OptM3 with GC (2021)
Angular Grid (max. ang.)         AngularGrid ... 4 (Lebedev-302)
Angular grid pruning method      GridPruning ... 4 (adaptive)
Weight generation scheme         WeightScheme... Becke
Basis function cutoff            BFCut       ... 1.0000e-11
Integration weight cutoff        WCut        ... 1.0000e-14
Angular grids for H and He will be reduced by one unit
Partially contracted basis set               ... off
Rotationally invariant grid construction     ... off

Total number of grid points                  ...   218216
Total number of batches                      ...     3434
Average number of points per batch           ...       63
Average number of grid points per atom       ...     4744
Time for grid setup =    1.502 sec

--------------------
COSX GRID GENERATION
--------------------

GRIDX 1
-------
General Integration Accuracy     IntAcc      ... 3.816
Radial Grid Type                 RadialGrid  ... OptM3 with GC (2021)
Angular Grid (max. ang.)         AngularGrid ... 1 (Lebedev-50)
Angular grid pruning method      GridPruning ... 4 (adaptive)
Weight generation scheme         WeightScheme... Becke
Basis function cutoff            BFCut       ... 1.0000e-11
Integration weight cutoff        WCut        ... 1.0000e-14
Angular grids for H and He will be reduced by one unit
Partially contracted basis set               ... on
Rotationally invariant grid construction     ... off

Total number of grid points                  ...    27677
Total number of batches                      ...      453
Average number of points per batch           ...       61
Average number of grid points per atom       ...      602
UseSFitting                                  ... on

GRIDX 2
-------
General Integration Accuracy     IntAcc      ... 4.020
Radial Grid Type                 RadialGrid  ... OptM3 with GC (2021)
Angular Grid (max. ang.)         AngularGrid ... 2 (Lebedev-110)
Angular grid pruning method      GridPruning ... 4 (adaptive)
Weight generation scheme         WeightScheme... Becke
Basis function cutoff            BFCut       ... 1.0000e-11
Integration weight cutoff        WCut        ... 1.0000e-14
Angular grids for H and He will be reduced by one unit
Partially contracted basis set               ... on
Rotationally invariant grid construction     ... off

Total number of grid points                  ...    59713
Total number of batches                      ...      958
Average number of points per batch           ...       62
Average number of grid points per atom       ...     1298
UseSFitting                                  ... on

GRIDX 3
-------
General Integration Accuracy     IntAcc      ... 4.338
Radial Grid Type                 RadialGrid  ... OptM3 with GC (2021)
Angular Grid (max. ang.)         AngularGrid ... 3 (Lebedev-194)
Angular grid pruning method      GridPruning ... 4 (adaptive)
Weight generation scheme         WeightScheme... Becke
Basis function cutoff            BFCut       ... 1.0000e-11
Integration weight cutoff        WCut        ... 1.0000e-14
Angular grids for H and He will be reduced by one unit
Partially contracted basis set               ... on
Rotationally invariant grid construction     ... off

Total number of grid points                  ...   130296
Total number of batches                      ...     2062
Average number of points per batch           ...       63
Average number of grid points per atom       ...     2833
UseSFitting                                  ... on

Time for X-Grid setup             =    2.758 sec


--------------------
CPCM SOLVATION MODEL
--------------------
CPCM parameters:
  Epsilon                                         ...      47.2000
  Refrac                                          ...       1.4790
  Rsolv                                           ...       1.3000
  Surface type                                    ... GAUSSIAN VDW
  Epsilon function type                           ...         CPCM
Radii:
 Radius for C  used is    3.8550 Bohr (=   2.0400 Ang.)
 Radius for N  used is    3.5149 Bohr (=   1.8600 Ang.)
 Radius for O  used is    3.4469 Bohr (=   1.8240 Ang.)
 Radius for H  used is    2.4944 Bohr (=   1.3200 Ang.)
Calculating surface                               ...        done! (  0.0s)
GEPOL surface points                              ...         2317
GEPOL Volume                                      ...    2791.0237
GEPOL Surface-area                                ...    1365.3172
Calculating surface distance matrix               ...        done! (  0.1s)
Performing Cholesky decomposition & store         ...        done! (  0.3s)
Overall time for CPCM initialization              ...                 0.4s
--------------
SCF ITERATIONS
--------------
ITER       Energy         Delta-E        Max-DP      RMS-DP      [F,P]     Damp
               ***  Starting incremental Fock matrix formation  ***
  0  -1220.0518760194   0.000000000000 0.07642010  0.00071423  0.2622503 0.7000
  1  -1220.3119710811  -0.260095061780 0.10017185  0.00069341  0.1052259 0.7000
                               ***Turning on DIIS***
  2  -1220.4174000227  -0.105428941600 0.16144856  0.00141461  0.0399048 0.0000
  3  -1220.5897314254  -0.172331402643 0.10928562  0.00050718  0.0503351 0.0000
  4  -1220.6214601490  -0.031728723642 0.03030978  0.00023025  0.0161998 0.0000
  5  -1220.6235736579  -0.002113508865 0.01244224  0.00007862  0.0065571 0.0000
                      *** Initiating the SOSCF procedure ***
                           *** Shutting down DIIS ***
                      *** Re-Reading the Fockian *** 
                      *** Removing any level shift *** 
ITER      Energy       Delta-E        Grad      Rot      Max-DP    RMS-DP
  6  -1220.62373385  -0.0001601954  0.000337  0.000337  0.003447  0.000024
               *** Restarting incremental Fock matrix formation ***
  7  -1220.62375447  -0.0000206170  0.000166  0.000891  0.002005  0.000022
  8  -1220.62375306   0.0000014120  0.000277  0.000341  0.001110  0.000006
  9  -1220.62375802  -0.0000049618  0.000021  0.000068  0.000589  0.000005
 10  -1220.62375798   0.0000000450  0.000030  0.000053  0.000140  0.000001
 11  -1220.62375811  -0.0000001393  0.000009  0.000026  0.000168  0.000001
 12  -1220.62375814  -0.0000000282  0.000012  0.000018  0.000120  0.000001
                  ***Gradient check signals convergence***
              ***Rediagonalizing the Fockian in SOSCF/NRSCF***

               *****************************************************
               *                     SUCCESS                       *
               *           SCF CONVERGED AFTER  13 CYCLES          *
               *****************************************************

Old exchange energy                            =    -39.979647885 Eh
New exchange energy                            =    -39.979648832 Eh
Exchange energy change after final integration =     -0.000000947 Eh
Total energy after final integration           =  -1220.623759052 Eh
Final COS-X integration done in                =    20.098 sec

----------------
TOTAL SCF ENERGY
----------------

Total Energy       :        -1220.62375905 Eh          -33214.86109 eV

Components:
Nuclear Repulsion  :         2522.57306177 Eh           68642.70274 eV
Electronic Energy  :        -3743.19682082 Eh         -101857.56383 eV
One Electron Energy:        -6680.63659100 Eh         -181789.36363 eV
Two Electron Energy:         2937.43977017 Eh           79931.79980 eV
Max COSX asymmetry :            0.00000290 Eh               0.00008 eV
CPCM Dielectric    :           -0.07230252 Eh              -1.96745 eV

Virial components:
Potential Energy   :        -2435.38956117 Eh          -66270.31908 eV
Kinetic Energy     :         1214.76580212 Eh           33055.45798 eV
Virial Ratio       :            2.00482229


DFT components:
N(Alpha)           :       94.000019939502 electrons
N(Beta)            :       94.000019939502 electrons
N(Total)           :      188.000039879004 electrons
E(X)               :     -119.738254993923 Eh       
E(C)               :       -6.340221881983 Eh       
E(XC)              :     -126.078476875905 Eh       
DFET-embed. en.    :        0.000000000000 Eh       
CPCM Solvation Model Properties:
Surface-charge          :           -0.03116498
Charge-correction       :           -0.00044438 Eh              -0.01209 eV
Free-energy (cav+disp)  :  This term is not implemented in the current solvation scheme

---------------
SCF CONVERGENCE
---------------

  Last Energy change         ...    3.7541e-08  Tolerance :   1.0000e-08
  Last MAX-Density change    ...    1.9984e-15  Tolerance :   1.0000e-07
  Last RMS-Density change    ...    1.3567e-17  Tolerance :   5.0000e-09
  Last Orbital Gradient      ...    2.4047e-06  Tolerance :   1.0000e-05
  Last Orbital Rotation      ...    6.3084e-06  Tolerance :   1.0000e-05

             **** THE GBW FILE WAS UPDATED (IM_CHCH2/IM_CHCH2.gbw) ****
             **** DENSITY IM_CHCH2/IM_CHCH2.scfp WAS UPDATED ****
             **** ENERGY FILE WAS UPDATED (IM_CHCH2/IM_CHCH2.en.tmp) ****
             **** THE GBW FILE WAS UPDATED (IM_CHCH2/IM_CHCH2.gbw) ****
             **** DENSITY IM_CHCH2/IM_CHCH2.scfp WAS UPDATED ****
----------------
ORBITAL ENERGIES
----------------

  NO   OCC          E(Eh)            E(eV) 
   0   2.0000     -19.273989      -524.4719 
   1   2.0000     -19.247954      -523.7634 
   2   2.0000     -19.215335      -522.8758 
   3   2.0000     -19.174294      -521.7591 
   4   2.0000     -19.172580      -521.7124 
   5   2.0000     -14.559137      -396.1742 
   6   2.0000     -14.515622      -394.9902 
   7   2.0000     -10.373715      -282.2831 
   8   2.0000     -10.315131      -280.6890 
   9   2.0000     -10.312578      -280.6195 
  10   2.0000     -10.301716      -280.3239 
  11   2.0000     -10.293559      -280.1020 
  12   2.0000     -10.281871      -279.7839 
  13   2.0000     -10.276121      -279.6275 
  14   2.0000     -10.270629      -279.4780 
  15   2.0000     -10.270358      -279.4706 
  16   2.0000     -10.270086      -279.4633 
  17   2.0000     -10.258275      -279.1418 
  18   2.0000     -10.240376      -278.6548 
  19   2.0000     -10.239930      -278.6427 
  20   2.0000     -10.231993      -278.4267 
  21   2.0000     -10.228764      -278.3388 
  22   2.0000     -10.226759      -278.2843 
  23   2.0000     -10.223580      -278.1977 
  24   2.0000     -10.223122      -278.1853 
  25   2.0000     -10.203322      -277.6465 
  26   2.0000      -1.193895       -32.4875 
  27   2.0000      -1.166017       -31.7289 
  28   2.0000      -1.111595       -30.2480 
  29   2.0000      -1.081409       -29.4266 
  30   2.0000      -1.069065       -29.0907 
  31   2.0000      -1.009516       -27.4703 
  32   2.0000      -0.904333       -24.6082 
  33   2.0000      -0.884941       -24.0805 
  34   2.0000      -0.862285       -23.4640 
  35   2.0000      -0.842001       -22.9120 
  36   2.0000      -0.818935       -22.2843 
  37   2.0000      -0.794522       -21.6201 
  38   2.0000      -0.775589       -21.1048 
  39   2.0000      -0.761049       -20.7092 
  40   2.0000      -0.754810       -20.5394 
  41   2.0000      -0.722042       -19.6478 
  42   2.0000      -0.714803       -19.4508 
  43   2.0000      -0.704739       -19.1769 
  44   2.0000      -0.676861       -18.4183 
  45   2.0000      -0.630262       -17.1503 
  46   2.0000      -0.616971       -16.7886 
  47   2.0000      -0.613102       -16.6834 
  48   2.0000      -0.607392       -16.5280 
  49   2.0000      -0.577684       -15.7196 
  50   2.0000      -0.566208       -15.4073 
  51   2.0000      -0.555333       -15.1114 
  52   2.0000      -0.551841       -15.0164 
  53   2.0000      -0.543510       -14.7897 
  54   2.0000      -0.535622       -14.5750 
  55   2.0000      -0.524404       -14.2697 
  56   2.0000      -0.516506       -14.0548 
  57   2.0000      -0.514683       -14.0052 
  58   2.0000      -0.506088       -13.7714 
  59   2.0000      -0.501050       -13.6343 
  60   2.0000      -0.499107       -13.5814 
  61   2.0000      -0.493577       -13.4309 
  62   2.0000      -0.492075       -13.3900 
  63   2.0000      -0.486873       -13.2485 
  64   2.0000      -0.479416       -13.0456 
  65   2.0000      -0.471430       -12.8283 
  66   2.0000      -0.457764       -12.4564 
  67   2.0000      -0.450318       -12.2538 
  68   2.0000      -0.432851       -11.7785 
  69   2.0000      -0.428451       -11.6588 
  70   2.0000      -0.426488       -11.6053 
  71   2.0000      -0.423646       -11.5280 
  72   2.0000      -0.415438       -11.3047 
  73   2.0000      -0.413468       -11.2510 
  74   2.0000      -0.410644       -11.1742 
  75   2.0000      -0.404971       -11.0198 
  76   2.0000      -0.388300       -10.5662 
  77   2.0000      -0.385567       -10.4918 
  78   2.0000      -0.379684       -10.3317 
  79   2.0000      -0.365828        -9.9547 
  80   2.0000      -0.351555        -9.5663 
  81   2.0000      -0.347015        -9.4427 
  82   2.0000      -0.343715        -9.3530 
  83   2.0000      -0.340438        -9.2638 
  84   2.0000      -0.337306        -9.1786 
  85   2.0000      -0.319484        -8.6936 
  86   2.0000      -0.314159        -8.5487 
  87   2.0000      -0.306096        -8.3293 
  88   2.0000      -0.293299        -7.9811 
  89   2.0000      -0.282394        -7.6843 
  90   2.0000      -0.268897        -7.3170 
  91   2.0000      -0.257692        -7.0122 
  92   2.0000      -0.240227        -6.5369 
  93   2.0000      -0.191701        -5.2164 
  94   0.0000      -0.086574        -2.3558 
  95   0.0000      -0.049668        -1.3515 
  96   0.0000      -0.025547        -0.6952 
  97   0.0000      -0.024176        -0.6579 
  98   0.0000      -0.005836        -0.1588 
  99   0.0000       0.002971         0.0808 
 100   0.0000       0.044246         1.2040 
 101   0.0000       0.057391         1.5617 
 102   0.0000       0.060251         1.6395 
 103   0.0000       0.065830         1.7913 
 104   0.0000       0.070882         1.9288 
 105   0.0000       0.077038         2.0963 
 106   0.0000       0.082262         2.2385 
 107   0.0000       0.089435         2.4336 
 108   0.0000       0.091674         2.4946 
 109   0.0000       0.094642         2.5753 
 110   0.0000       0.100584         2.7370 
 111   0.0000       0.103650         2.8205 
 112   0.0000       0.109765         2.9869 
 113   0.0000       0.113648         3.0925 
 114   0.0000       0.119378         3.2484 
 115   0.0000       0.125368         3.4114 
 116   0.0000       0.128171         3.4877 
 117   0.0000       0.132133         3.5955 
 118   0.0000       0.135045         3.6748 
 119   0.0000       0.137160         3.7323 
 120   0.0000       0.137462         3.7405 
 121   0.0000       0.144245         3.9251 
 122   0.0000       0.148352         4.0369 
 123   0.0000       0.152203         4.1417 
 124   0.0000       0.154488         4.2038 
 125   0.0000       0.160377         4.3641 
 126   0.0000       0.167132         4.5479 
 127   0.0000       0.168441         4.5835 
 128   0.0000       0.176633         4.8064 
 129   0.0000       0.185967         5.0604 
 130   0.0000       0.194059         5.2806 
 131   0.0000       0.197407         5.3717 
 132   0.0000       0.203715         5.5434 
 133   0.0000       0.210570         5.7299 
 134   0.0000       0.212358         5.7786 
 135   0.0000       0.213482         5.8091 
 136   0.0000       0.216346         5.8871 
 137   0.0000       0.218202         5.9376 
 138   0.0000       0.224252         6.1022 
 139   0.0000       0.225673         6.1409 
 140   0.0000       0.230312         6.2671 
 141   0.0000       0.233780         6.3615 
 142   0.0000       0.234696         6.3864 
 143   0.0000       0.239836         6.5263 
 144   0.0000       0.241425         6.5695 
 145   0.0000       0.245655         6.6846 
 146   0.0000       0.250271         6.8102 
 147   0.0000       0.255871         6.9626 
 148   0.0000       0.258449         7.0328 
 149   0.0000       0.264201         7.1893 
 150   0.0000       0.268855         7.3159 
 151   0.0000       0.277631         7.5547 
 152   0.0000       0.282687         7.6923 
 153   0.0000       0.287119         7.8129 
 154   0.0000       0.288417         7.8482 
 155   0.0000       0.296962         8.0807 
 156   0.0000       0.298813         8.1311 
 157   0.0000       0.307131         8.3575 
 158   0.0000       0.307822         8.3763 
 159   0.0000       0.310710         8.4548 
 160   0.0000       0.314569         8.5599 
 161   0.0000       0.316486         8.6120 
 162   0.0000       0.317042         8.6271 
 163   0.0000       0.326736         8.8909 
 164   0.0000       0.332031         9.0350 
 165   0.0000       0.335448         9.1280 
 166   0.0000       0.342433         9.3181 
 167   0.0000       0.346382         9.4255 
 168   0.0000       0.349840         9.5196 
 169   0.0000       0.353424         9.6171 
 170   0.0000       0.358188         9.7468 
 171   0.0000       0.365772         9.9532 
 172   0.0000       0.370324        10.0770 
 173   0.0000       0.370839        10.0910 
 174   0.0000       0.375668        10.2224 
 175   0.0000       0.381685        10.3862 
 176   0.0000       0.383722        10.4416 
 177   0.0000       0.391122        10.6430 
 178   0.0000       0.391524        10.6539 
 179   0.0000       0.394880        10.7452 
 180   0.0000       0.398541        10.8449 
 181   0.0000       0.401609        10.9283 
 182   0.0000       0.402851        10.9621 
 183   0.0000       0.405933        11.0460 
 184   0.0000       0.415934        11.3181 
 185   0.0000       0.416162        11.3244 
 186   0.0000       0.417845        11.3702 
 187   0.0000       0.419248        11.4083 
 188   0.0000       0.423511        11.5243 
 189   0.0000       0.427180        11.6242 
 190   0.0000       0.434359        11.8195 
 191   0.0000       0.437025        11.8920 
 192   0.0000       0.438292        11.9265 
 193   0.0000       0.444851        12.1050 
 194   0.0000       0.446217        12.1422 
 195   0.0000       0.448323        12.1995 
 196   0.0000       0.456376        12.4186 
 197   0.0000       0.457747        12.4559 
 198   0.0000       0.460954        12.5432 
 199   0.0000       0.465058        12.6549 
 200   0.0000       0.467905        12.7323 
 201   0.0000       0.471669        12.8348 
 202   0.0000       0.475684        12.9440 
 203   0.0000       0.477493        12.9933 
 204   0.0000       0.480474        13.0744 
 205   0.0000       0.486734        13.2447 
 206   0.0000       0.487504        13.2656 
 207   0.0000       0.492460        13.4005 
 208   0.0000       0.495792        13.4912 
 209   0.0000       0.501290        13.6408 
 210   0.0000       0.504848        13.7376 
 211   0.0000       0.509099        13.8533 
 212   0.0000       0.515351        14.0234 
 213   0.0000       0.519135        14.1264 
 214   0.0000       0.523822        14.2539 
 215   0.0000       0.525120        14.2892 
 216   0.0000       0.534003        14.5310 
 217   0.0000       0.538976        14.6663 
 218   0.0000       0.542004        14.7487 
 219   0.0000       0.549080        14.9412 
 220   0.0000       0.552239        15.0272 
 221   0.0000       0.556027        15.1303 
 222   0.0000       0.564832        15.3699 
 223   0.0000       0.568636        15.4734 
 224   0.0000       0.574848        15.6424 
 225   0.0000       0.574953        15.6453 
 226   0.0000       0.583854        15.8875 
 227   0.0000       0.589989        16.0544 
 228   0.0000       0.593615        16.1531 
 229   0.0000       0.599207        16.3052 
 230   0.0000       0.602423        16.3928 
 231   0.0000       0.606084        16.4924 
 232   0.0000       0.608034        16.5454 
 233   0.0000       0.615645        16.7525 
 234   0.0000       0.616818        16.7845 
 235   0.0000       0.621567        16.9137 
 236   0.0000       0.629881        17.1399 
 237   0.0000       0.634115        17.2551 
 238   0.0000       0.646781        17.5998 
 239   0.0000       0.649668        17.6784 
 240   0.0000       0.654126        17.7997 
 241   0.0000       0.657684        17.8965 
 242   0.0000       0.668543        18.1920 
 243   0.0000       0.673439        18.3252 
 244   0.0000       0.681600        18.5473 
 245   0.0000       0.689857        18.7720 
 246   0.0000       0.695374        18.9221 
 247   0.0000       0.697037        18.9673 
 248   0.0000       0.700987        19.0748 
 249   0.0000       0.703400        19.1405 
 250   0.0000       0.712251        19.3813 
 251   0.0000       0.714708        19.4482 
 252   0.0000       0.723803        19.6957 
 253   0.0000       0.729086        19.8394 
 254   0.0000       0.733846        19.9690 
 255   0.0000       0.739051        20.1106 
 256   0.0000       0.744263        20.2524 
 257   0.0000       0.754680        20.5359 
 258   0.0000       0.757477        20.6120 
 259   0.0000       0.764257        20.7965 
 260   0.0000       0.767493        20.8846 
 261   0.0000       0.773872        21.0581 
 262   0.0000       0.781300        21.2603 
 263   0.0000       0.783189        21.3117 
 264   0.0000       0.786661        21.4061 
 265   0.0000       0.798045        21.7159 
 266   0.0000       0.800576        21.7848 
 267   0.0000       0.806572        21.9480 
 268   0.0000       0.813002        22.1229 
 269   0.0000       0.818290        22.2668 
 270   0.0000       0.823717        22.4145 
 271   0.0000       0.828032        22.5319 
 272   0.0000       0.843957        22.9652 
 273   0.0000       0.845607        23.0101 
 274   0.0000       0.850091        23.1322 
 275   0.0000       0.857438        23.3321 
 276   0.0000       0.859798        23.3963 
 277   0.0000       0.864504        23.5243 
 278   0.0000       0.873505        23.7693 
 279   0.0000       0.878496        23.9051 
 280   0.0000       0.883093        24.0302 
 281   0.0000       0.887061        24.1381 
 282   0.0000       0.895672        24.3725 
 283   0.0000       0.903562        24.5872 
 284   0.0000       0.914074        24.8732 
 285   0.0000       0.919023        25.0079 
 286   0.0000       0.920564        25.0498 
 287   0.0000       0.932574        25.3766 
[...]
 33:    412.47   0.000068    0.34  0.000051  (-0.006602 -0.002561  0.001007)
 34:    443.10   0.000483    2.44  0.000340  ( 0.010979 -0.005455  0.013767)
 35:    478.52   0.000186    0.94  0.000121  ( 0.008457  0.001026  0.006988)
 36:    483.40   0.000240    1.21  0.000155  ( 0.009328 -0.002078  0.007991)
 37:    498.25   0.000935    4.73  0.000586  ( 0.022275  0.004507  0.008326)
 38:    530.22   0.012508   63.21  0.007362  ( 0.009266 -0.077948  0.034641)
 39:    572.30   0.006303   31.85  0.003437  (-0.012555 -0.051478 -0.025087)
 40:    574.80   0.004524   22.86  0.002456  (-0.016412  0.009265 -0.045838)
 41:    598.57   0.000521    2.63  0.000272  ( 0.002245  0.013354  0.009389)
 42:    613.14   0.004789   24.20  0.002438  (-0.044060  0.016102  0.015396)
 43:    637.16   0.003185   16.10  0.001560  ( 0.018839  0.016525 -0.030528)
 44:    657.65   0.000559    2.82  0.000265  ( 0.011000 -0.004566 -0.011103)
 45:    685.46   0.000926    4.68  0.000422  ( 0.007702  0.019002 -0.001045)
 46:    699.20   0.015823   79.96  0.007062  (-0.044622 -0.068911  0.017949)
 47:    713.67   0.012490   63.12  0.005462  ( 0.024320 -0.069160  0.009326)
 48:    734.39   0.000822    4.15  0.000349  ( 0.016368  0.008272  0.003605)
 49:    762.40   0.006509   32.89  0.002664  (-0.021747 -0.046586  0.004582)
 50:    771.62   0.009631   48.67  0.003895  (-0.051927  0.030718 -0.015966)
 51:    776.58   0.011108   56.13  0.004464  ( 0.026078 -0.037822  0.048508)
 52:    785.98   0.010344   52.27  0.004107  (-0.000060 -0.064083 -0.000535)
 53:    803.16   0.001588    8.02  0.000617  (-0.002453  0.024501  0.003246)
 54:    811.28   0.005706   28.83  0.002195  ( 0.011801  0.017256  0.041924)
 55:    849.27   0.009698   49.01  0.003563  (-0.027327 -0.052647 -0.006696)
 56:    856.56   0.014317   72.35  0.005216  (-0.022306 -0.059606 -0.034140)
 57:    865.28   0.004791   24.21  0.001728  (-0.027184 -0.003734  0.031225)
 58:    880.92   0.001633    8.25  0.000578  (-0.014721  0.015684  0.010757)
 59:    882.21   0.000296    1.49  0.000105  (-0.008552  0.005013  0.002512)
 60:    916.67   0.003093   15.63  0.001053  ( 0.025814  0.007655 -0.018108)
 61:    966.00   0.002851   14.41  0.000921  (-0.028652 -0.006445 -0.007655)
 62:    976.48   0.000683    3.45  0.000218  (-0.005509 -0.013430  0.002774)
 63:    990.93   0.001285    6.50  0.000405  (-0.019694 -0.002197  0.003484)
 64:   1007.64   0.001182    5.97  0.000366  (-0.009886 -0.016010  0.003470)
 65:   1013.84   0.002277   11.51  0.000701  (-0.021043 -0.014794  0.006251)
 66:   1017.33   0.000775    3.92  0.000238  (-0.014370 -0.005571  0.000364)
 67:   1030.39   0.007267   36.72  0.002201  (-0.020070 -0.038327 -0.018142)
 68:   1046.92   0.007317   36.98  0.002181  (-0.000805 -0.015912 -0.043899)
 69:   1050.42   0.000241    1.22  0.000072  (-0.000322 -0.006622 -0.005260)
 70:   1062.69   0.000268    1.35  0.000079  ( 0.004531  0.005060  0.005706)
 71:   1068.36   0.010835   54.76  0.003165  (-0.054163 -0.010715  0.010791)
 72:   1085.14   0.012414   62.74  0.003570  (-0.013292  0.007938  0.057709)
 73:   1085.57   0.007831   39.57  0.002251  (-0.027354  0.014184  0.036079)
 74:   1101.17   0.004861   24.56  0.001377  ( 0.009353 -0.000173 -0.035915)
 75:   1127.00   0.006480   32.75  0.001794  (-0.021733  0.006642  0.035746)
 76:   1133.84   0.000475    2.40  0.000131  ( 0.010903 -0.002779 -0.002023)
 77:   1165.49   0.059131  298.83  0.015833  (-0.049018 -0.000061  0.115887)
 78:   1170.84   0.000308    1.56  0.000082  ( 0.005838 -0.005232  0.004542)
 79:   1171.11   0.000601    3.04  0.000160  ( 0.003620 -0.006948  0.009935)
 80:   1175.29   0.008942   45.19  0.002374  ( 0.034383  0.001573 -0.034492)
 81:   1177.18   0.001466    7.41  0.000389  (-0.010348  0.000160 -0.016776)
 82:   1196.75   0.002740   13.84  0.000714  ( 0.007860  0.001756 -0.025485)
 83:   1201.85   0.011531   58.27  0.002994  ( 0.052586  0.014170  0.005296)
 84:   1206.47   0.024412  123.37  0.006314  ( 0.053370 -0.016083 -0.056632)
 85:   1219.41   0.008114   41.01  0.002077  (-0.026366  0.017045  0.033028)
 86:   1225.96   0.025047  126.58  0.006376  (-0.063726  0.012068 -0.046573)
 87:   1235.23   0.001328    6.71  0.000336  ( 0.007350 -0.002043 -0.016653)
 88:   1260.43   0.096490  487.62  0.023889  (-0.101914 -0.071181  0.091849)
 89:   1267.66   0.066274  334.92  0.016315  (-0.089694  0.028387  0.086395)
 90:   1292.11   0.046822  236.62  0.011308  ( 0.010088  0.006472 -0.105663)
 91:   1294.15   0.015680   79.24  0.003781  ( 0.011377 -0.046227 -0.038918)
 92:   1314.74   0.036539  184.65  0.008673  ( 0.049885 -0.027388 -0.073717)
 93:   1328.85   0.033407  168.83  0.007845  (-0.087345  0.014526 -0.002258)
 94:   1351.19   0.041130  207.85  0.009499  ( 0.008314  0.066729 -0.070549)
 95:   1370.11   0.055577  280.87  0.012659  (-0.101848  0.017131 -0.044633)
 96:   1380.25   0.007443   37.62  0.001683  ( 0.039427  0.009126  0.006717)
 97:   1390.45   0.015041   76.01  0.003376  ( 0.007431  0.021422  0.053494)
 98:   1422.18   0.007640   38.61  0.001676  (-0.018442 -0.032805 -0.016128)
 99:   1427.65   0.008143   41.15  0.001780  (-0.030397  0.020223 -0.021140)
100:   1460.94   0.086903  439.17  0.018563  (-0.096627  0.020134  0.093919)
101:   1464.72   0.051045  257.96  0.010875  (-0.030656  0.011329  0.099031)
102:   1465.16   0.004561   23.05  0.000971  ( 0.020485 -0.023389 -0.002159)
103:   1470.62   0.005108   25.81  0.001084  ( 0.027233  0.016989 -0.007325)
104:   1471.49   0.021863  110.49  0.004637  ( 0.012918  0.017448  0.064539)
105:   1472.80   0.002988   15.10  0.000633  (-0.013830  0.020994  0.001077)
106:   1475.96   0.154259  779.56  0.032615  ( 0.098376  0.028246 -0.148793)
107:   1483.55   0.002549   12.88  0.000536  ( 0.016525  0.013614  0.008815)
108:   1497.19   0.011516   58.20  0.002400  (-0.010788  0.021033  0.042914)
109:   1527.22   0.032821  165.86  0.006706  (-0.018255  0.012252  0.078887)
110:   1532.18   0.014438   72.96  0.002941  ( 0.012241  0.035624  0.039008)
111:   1535.86   0.005513   27.86  0.001120  (-0.009128  0.017424 -0.027077)
112:   1644.12   0.002063   10.42  0.000392  ( 0.016343 -0.007646  0.008121)
113:   1645.16   0.002661   13.45  0.000505  ( 0.005359 -0.001185 -0.021787)
114:   1649.24   0.033658  170.09  0.006369  (-0.001922  0.023899 -0.076117)
115:   1661.97   0.014014   70.82  0.002631  (-0.000222  0.020835  0.046875)
116:   1695.54   0.014921   75.40  0.002746  ( 0.047490 -0.022154  0.000198)
117:   1788.59   0.084943  429.27  0.014820  ( 0.017478 -0.017510 -0.119199)
118:   3036.60   0.012093   61.11  0.001243  (-0.026974  0.000935  0.022678)
119:   3076.44   0.004870   24.61  0.000494  ( 0.017879  0.012717  0.003557)
120:   3108.29   0.007772   39.28  0.000780  (-0.008362  0.022305 -0.014589)
121:   3116.25   0.001172    5.92  0.000117  ( 0.000800 -0.010793  0.000495)
122:   3154.00   0.000494    2.50  0.000049  ( 0.005450 -0.003293 -0.002883)
123:   3162.73   0.002985   15.08  0.000295  (-0.008485  0.014635 -0.002885)
124:   3164.50   0.003706   18.73  0.000365  (-0.005176 -0.010800 -0.014899)
125:   3191.01   0.001426    7.21  0.000140  ( 0.010935  0.004336 -0.001066)
126:   3196.42   0.001386    7.00  0.000135  (-0.005050 -0.003176  0.009986)
127:   3197.18   0.002881   14.56  0.000281  ( 0.010815 -0.010253 -0.007691)
128:   3197.75   0.001241    6.27  0.000121  ( 0.002356 -0.000117 -0.010748)
129:   3202.88   0.000840    4.24  0.000082  ( 0.005948 -0.003178 -0.006028)
130:   3212.69   0.005263   26.59  0.000511  (-0.012539 -0.012084 -0.014420)
131:   3223.07   0.000058    0.29  0.000006  (-0.002172  0.000943  0.000203)
132:   3229.77   0.000640    3.24  0.000062  ( 0.006965  0.001823 -0.003168)
133:   3241.45   0.003321   16.79  0.000320  (-0.012055  0.008840 -0.009813)
134:   3241.67   0.000096    0.49  0.000009  (-0.002524  0.000832 -0.001480)
135:   3244.38   0.001208    6.11  0.000116  (-0.010048  0.003564  0.001593)
136:   3259.86   0.002564   12.96  0.000245  ( 0.002081 -0.003757 -0.015067)
137:   3268.83   0.006539   33.05  0.000624  ( 0.018942  0.001034  0.016260)

* The epsilon (eps) is given for a Dirac delta lineshape.
** The dipole moment derivative (T) already includes vibrational overlap.

The first frequency considered to be a vibration is 6
The total number of vibrations considered is 132


--------------------------
THERMOCHEMISTRY AT 298.15K
--------------------------

Temperature         ... 298.15 K
Pressure            ... 1.00 atm
Total Mass          ... 356.38 AMU

Throughout the following assumptions are being made:
  (1) The electronic state is orbitally nondegenerate
  (2) There are no thermally accessible electronically excited states
  (3) Hindered rotations indicated by low frequency modes are not
      treated as such but are treated as vibrations and this may
      cause some error
  (4) All equations used are the standard statistical mechanics
      equations for an ideal gas
  (5) All vibrations are strictly harmonic

freq.      21.95  E(vib)   ...       0.56 
freq.      29.25  E(vib)   ...       0.55 
freq.      32.86  E(vib)   ...       0.55 
freq.      38.23  E(vib)   ...       0.54 
freq.      51.36  E(vib)   ...       0.52 
freq.      68.43  E(vib)   ...       0.50 
freq.      70.26  E(vib)   ...       0.50 
freq.      86.83  E(vib)   ...       0.48 
freq.      99.95  E(vib)   ...       0.46 
freq.     105.65  E(vib)   ...       0.45 
freq.     122.82  E(vib)   ...       0.43 
freq.     151.92  E(vib)   ...       0.40 
freq.     157.07  E(vib)   ...       0.40 
freq.     161.52  E(vib)   ...       0.39 
freq.     172.10  E(vib)   ...       0.38 
freq.     181.04  E(vib)   ...       0.37 
freq.     205.42  E(vib)   ...       0.35 
freq.     210.58  E(vib)   ...       0.34 
freq.     215.29  E(vib)   ...       0.34 
freq.     248.03  E(vib)   ...       0.31 
freq.     267.00  E(vib)   ...       0.29 
freq.     282.65  E(vib)   ...       0.28 
freq.     286.92  E(vib)   ...       0.27 
freq.     314.57  E(vib)   ...       0.25 
freq.     338.76  E(vib)   ...       0.23 
freq.     358.55  E(vib)   ...       0.22 
freq.     361.32  E(vib)   ...       0.22 
freq.     412.47  E(vib)   ...       0.19 
freq.     443.10  E(vib)   ...       0.17 
freq.     478.52  E(vib)   ...       0.15 
freq.     483.40  E(vib)   ...       0.15 
freq.     498.25  E(vib)   ...       0.14 
freq.     530.22  E(vib)   ...       0.13 
freq.     572.30  E(vib)   ...       0.11 
freq.     574.80  E(vib)   ...       0.11 
freq.     598.57  E(vib)   ...       0.10 
freq.     613.14  E(vib)   ...       0.10 
freq.     637.16  E(vib)   ...       0.09 
freq.     657.65  E(vib)   ...       0.08 
freq.     685.46  E(vib)   ...       0.07 
freq.     699.20  E(vib)   ...       0.07 
freq.     713.67  E(vib)   ...       0.07 
freq.     734.39  E(vib)   ...       0.06 
freq.     762.40  E(vib)   ...       0.06 
freq.     771.62  E(vib)   ...       0.05 
freq.     776.58  E(vib)   ...       0.05 
freq.     785.98  E(vib)   ...       0.05 
freq.     803.16  E(vib)   ...       0.05 
freq.     811.28  E(vib)   ...       0.05 
freq.     849.27  E(vib)   ...       0.04 
freq.     856.56  E(vib)   ...       0.04 
freq.     865.28  E(vib)   ...       0.04 
freq.     880.92  E(vib)   ...       0.04 
freq.     882.21  E(vib)   ...       0.04 
freq.     916.67  E(vib)   ...       0.03 
freq.     966.00  E(vib)   ...       0.03 
freq.     976.48  E(vib)   ...       0.03 
freq.     990.93  E(vib)   ...       0.02 
freq.    1007.64  E(vib)   ...       0.02 
freq.    1013.84  E(vib)   ...       0.02 
freq.    1017.33  E(vib)   ...       0.02 
freq.    1030.39  E(vib)   ...       0.02 
freq.    1046.92  E(vib)   ...       0.02 
freq.    1050.42  E(vib)   ...       0.02 
freq.    1062.69  E(vib)   ...       0.02 
freq.    1068.36  E(vib)   ...       0.02 
freq.    1085.14  E(vib)   ...       0.02 
freq.    1085.57  E(vib)   ...       0.02 
freq.    1101.17  E(vib)   ...       0.02 
freq.    1127.00  E(vib)   ...       0.01 
freq.    1133.84  E(vib)   ...       0.01 
freq.    1165.49  E(vib)   ...       0.01 
freq.    1170.84  E(vib)   ...       0.01 
freq.    1171.11  E(vib)   ...       0.01 
freq.    1175.29  E(vib)   ...       0.01 
freq.    1177.18  E(vib)   ...       0.01 
freq.    1196.75  E(vib)   ...       0.01 
freq.    1201.85  E(vib)   ...       0.01 
freq.    1206.47  E(vib)   ...       0.01 
freq.    1219.41  E(vib)   ...       0.01 
freq.    1225.96  E(vib)   ...       0.01 
freq.    1235.23  E(vib)   ...       0.01 
freq.    1260.43  E(vib)   ...       0.01 
freq.    1267.66  E(vib)   ...       0.01 
freq.    1292.11  E(vib)   ...       0.01 
freq.    1294.15  E(vib)   ...       0.01 
freq.    1314.74  E(vib)   ...       0.01 
freq.    1328.85  E(vib)   ...       0.01 
freq.    1351.19  E(vib)   ...       0.01 
freq.    1370.11  E(vib)   ...       0.01 
freq.    1380.25  E(vib)   ...       0.01 
freq.    1390.45  E(vib)   ...       0.00 
freq.    1422.18  E(vib)   ...       0.00 
freq.    1427.65  E(vib)   ...       0.00 
freq.    1460.94  E(vib)   ...       0.00 
freq.    1464.72  E(vib)   ...       0.00 
freq.    1465.16  E(vib)   ...       0.00 
freq.    1470.62  E(vib)   ...       0.00 
freq.    1471.49  E(vib)   ...       0.00 
freq.    1472.80  E(vib)   ...       0.00 
freq.    1475.96  E(vib)   ...       0.00 
freq.    1483.55  E(vib)   ...       0.00 
freq.    1497.19  E(vib)   ...       0.00 
freq.    1527.22  E(vib)   ...       0.00 
freq.    1532.18  E(vib)   ...       0.00 
freq.    1535.86  E(vib)   ...       0.00 
freq.    1644.12  E(vib)   ...       0.00 
freq.    1645.16  E(vib)   ...       0.00 
freq.    1649.24  E(vib)   ...       0.00 
freq.    1661.97  E(vib)   ...       0.00 
freq.    1695.54  E(vib)   ...       0.00 
freq.    1788.59  E(vib)   ...       0.00 
freq.    3036.60  E(vib)   ...       0.00 
freq.    3076.44  E(vib)   ...       0.00 
freq.    3108.29  E(vib)   ...       0.00 
freq.    3116.25  E(vib)   ...       0.00 
freq.    3154.00  E(vib)   ...       0.00 
freq.    3162.73  E(vib)   ...       0.00 
freq.    3164.50  E(vib)   ...       0.00 
freq.    3191.01  E(vib)   ...       0.00 
freq.    3196.42  E(vib)   ...       0.00 
freq.    3197.18  E(vib)   ...       0.00 
freq.    3197.75  E(vib)   ...       0.00 
freq.    3202.88  E(vib)   ...       0.00 
freq.    3212.69  E(vib)   ...       0.00 
freq.    3223.07  E(vib)   ...       0.00 
freq.    3229.77  E(vib)   ...       0.00 
freq.    3241.45  E(vib)   ...       0.00 
freq.    3241.67  E(vib)   ...       0.00 
freq.    3244.38  E(vib)   ...       0.00 
freq.    3259.86  E(vib)   ...       0.00 
freq.    3268.83  E(vib)   ...       0.00 

------------
INNER ENERGY
------------

The inner energy is: U= E(el) + E(ZPE) + E(vib) + E(rot) + E(trans)
    E(el)   - is the total energy from the electronic structure calculation
              = E(kin-el) + E(nuc-el) + E(el-el) + E(nuc-nuc)
    E(ZPE)  - the the zero temperature vibrational energy from the frequency calculation
    E(vib)  - the the finite temperature correction to E(ZPE) due to population
              of excited vibrational states
    E(rot)  - is the rotational thermal energy
    E(trans)- is the translational thermal energy

Summary of contributions to the inner energy U:
Electronic energy                ...  -1220.68700875 Eh
Zero point energy                ...      0.36817855 Eh     231.04 kcal/mol
Thermal vibrational correction   ...      0.02145303 Eh      13.46 kcal/mol
Thermal rotational correction    ...      0.00141627 Eh       0.89 kcal/mol
Thermal translational correction ...      0.00141627 Eh       0.89 kcal/mol
-----------------------------------------------------------------------
Total thermal energy                  -1220.29454463 Eh


Summary of corrections to the electronic energy:
(perhaps to be used in another calculation)
Total thermal correction                  0.02428557 Eh      15.24 kcal/mol
Non-thermal (ZPE) correction              0.36817855 Eh     231.04 kcal/mol
-----------------------------------------------------------------------
Total correction                          0.39246413 Eh     246.27 kcal/mol


--------
ENTHALPY
--------

The enthalpy is H = U + kB*T
                kB is Boltzmann's constant
Total free energy                 ...  -1220.29454463 Eh 
Thermal Enthalpy correction       ...      0.00094421 Eh       0.59 kcal/mol
-----------------------------------------------------------------------
Total Enthalpy                    ...  -1220.29360042 Eh


Note: Only C1 symmetry has been detected, increase convergence thresholds 
      if your molecule has a higher symmetry. Symmetry factor of 1.0 is   
      used for the rotational entropy correction. 
 

Note: Rotational entropy computed according to Herzberg 
Infrared and Raman Spectra, Chapter V,1, Van Nostrand Reinhold, 1945 
Point Group:  C1, Symmetry Number:   1  
Rotational constants in cm-1:     0.009114     0.006884     0.005442 

Vibrational entropy computed according to the QRRHO of S. Grimme
Chem.Eur.J. 2012 18 9955


-------
ENTROPY
-------

The entropy contributions are T*S = T*(S(el)+S(vib)+S(rot)+S(trans))
     S(el)   - electronic entropy
     S(vib)  - vibrational entropy
     S(rot)  - rotational entropy
     S(trans)- translational entropy
The entropies will be listed as multiplied by the temperature to get
units of energy

Electronic entropy                ...      0.00000000 Eh      0.00 kcal/mol
Vibrational entropy               ...      0.03873810 Eh     24.31 kcal/mol
Rotational entropy                ...      0.01654032 Eh     10.38 kcal/mol
Translational entropy             ...      0.02067107 Eh     12.97 kcal/mol
-----------------------------------------------------------------------
Final entropy term                ...      0.07594949 Eh     47.66 kcal/mol

In case the symmetry of your molecule has not been determined correctly
or in case you have a reason to use a different symmetry number we print 
out the resulting rotational entropy values for sn=1,12 :
 --------------------------------------------------------
|  sn= 1 | S(rot)=       0.01654032 Eh     10.38 kcal/mol|
|  sn= 2 | S(rot)=       0.01588587 Eh      9.97 kcal/mol|
|  sn= 3 | S(rot)=       0.01550303 Eh      9.73 kcal/mol|
|  sn= 4 | S(rot)=       0.01523141 Eh      9.56 kcal/mol|
|  sn= 5 | S(rot)=       0.01502072 Eh      9.43 kcal/mol|
|  sn= 6 | S(rot)=       0.01484858 Eh      9.32 kcal/mol|
|  sn= 7 | S(rot)=       0.01470303 Eh      9.23 kcal/mol|
|  sn= 8 | S(rot)=       0.01457695 Eh      9.15 kcal/mol|
|  sn= 9 | S(rot)=       0.01446574 Eh      9.08 kcal/mol|
|  sn=10 | S(rot)=       0.01436626 Eh      9.01 kcal/mol|
|  sn=11 | S(rot)=       0.01427627 Eh      8.96 kcal/mol|
|  sn=12 | S(rot)=       0.01419412 Eh      8.91 kcal/mol|
 --------------------------------------------------------


-------------------
GIBBS FREE ENERGY
-------------------

The Gibbs free energy is G = H - T*S

Total enthalpy                    ...  -1220.29360042 Eh 
Total entropy correction          ...     -0.07594949 Eh    -47.66 kcal/mol
-----------------------------------------------------------------------
Final Gibbs free energy         ...  -1220.36954991 Eh

For completeness - the Gibbs free energy minus the electronic energy
G-E(el)                           ...      0.31745885 Eh    199.21 kcal/mol


Timings for individual modules:

Sum of individual times         ...     7469.095 sec (= 124.485 min)
GTO integral calculation        ...       59.555 sec (=   0.993 min)   0.8 %
SCF iterations                  ...     2761.429 sec (=  46.024 min)  37.0 %
SCF Gradient evaluation         ...      819.919 sec (=  13.665 min)  11.0 %
Geometry relaxation             ...        3.970 sec (=   0.066 min)   0.1 %
Analytical frequency calculation...     3824.222 sec (=  63.737 min)  51.2 %
                             ****ORCA TERMINATED NORMALLY****
TOTAL RUN TIME: 0 days 2 hours 5 minutes 29 seconds 457 msec
