
                                 *****************
                                 * O   R   C   A *
                                 *****************

                                            #,                                       
                                            ###                                      
                                            ####                                     
                                            #####                                    
                                            ######                                   
                                           ########,                                 
                                     ,,################,,,,,                         
                               ,,#################################,,                 
                          ,,##########################################,,             
                       ,#########################################, ''#####,          
                    ,#############################################,,   '####,        
                  ,##################################################,,,,####,       
                ,###########''''           ''''###############################       
              ,#####''   ,,,,##########,,,,          '''####'''          '####       
            ,##' ,,,,###########################,,,                        '##       
           ' ,,###''''                  '''############,,,                           
         ,,##''                                '''############,,,,        ,,,,,,###''
      ,#''                                            '''#######################'''  
     '                                                          ''''####''''         
             ,#######,   #######,   ,#######,      ##                                
            ,#'     '#,  ##    ##  ,#'     '#,    #''#        ######   ,####,        
            ##       ##  ##   ,#'  ##            #'  '#       #        #'  '#        
            ##       ##  #######   ##           ,######,      #####,   #    #        
            '#,     ,#'  ##    ##  '#,     ,#' ,#      #,         ##   #,  ,#        
             '#######'   ##     ##  '#######'  #'      '#     #####' # '####'        



                  #######################################################
                  #                        -***-                        #
                  #          Department of theory and spectroscopy      #
                  #    Directorship and core code : Frank Neese         #
                  #        Max Planck Institute fuer Kohlenforschung    #
                  #                Kaiser Wilhelm Platz 1               #
                  #                 D-45470 Muelheim/Ruhr               #
                  #                      Germany                        #
                  #                                                     #
                  #                  All rights reserved                #
                  #                        -***-                        #
                  #######################################################


                         Program Version 5.0.4 -  RELEASE  -


 With contributions from (in alphabetic order):
   Daniel Aravena         : Magnetic Suceptibility
   Michael Atanasov       : Ab Initio Ligand Field Theory (pilot matlab implementation)
   Alexander A. Auer      : GIAO ZORA, VPT2 properties, NMR spectrum
   Ute Becker             : Parallelization
   Giovanni Bistoni       : ED, misc. LED, open-shell LED, HFLD
   Martin Brehm           : Molecular dynamics
   Dmytro Bykov           : SCF Hessian
   Vijay G. Chilkuri      : MRCI spin determinant printing, contributions to CSF-ICE
   Dipayan Datta          : RHF DLPNO-CCSD density
   Achintya Kumar Dutta   : EOM-CC, STEOM-CC
   Dmitry Ganyushin       : Spin-Orbit,Spin-Spin,Magnetic field MRCI
   Miquel Garcia          : C-PCM and meta-GGA Hessian, CC/C-PCM, Gaussian charge scheme
   Yang Guo               : DLPNO-NEVPT2, F12-NEVPT2, CIM, IAO-localization
   Andreas Hansen         : Spin unrestricted coupled pair/coupled cluster methods
   Benjamin Helmich-Paris : MC-RPA, TRAH-SCF, COSX integrals
   Lee Huntington         : MR-EOM, pCC
   Robert Izsak           : Overlap fitted RIJCOSX, COSX-SCS-MP3, EOM
   Marcus Kettner         : VPT2
   Christian Kollmar      : KDIIS, OOCD, Brueckner-CCSD(T), CCSD density, CASPT2, CASPT2-K
   Simone Kossmann        : Meta GGA functionals, TD-DFT gradient, OOMP2, MP2 Hessian
   Martin Krupicka        : Initial AUTO-CI
   Lucas Lang             : DCDCAS
   Marvin Lechner         : AUTO-CI (C++ implementation), FIC-MRCC
   Dagmar Lenk            : GEPOL surface, SMD
   Dimitrios Liakos       : Extrapolation schemes; Compound Job, initial MDCI parallelization
   Dimitrios Manganas     : Further ROCIS development; embedding schemes
   Dimitrios Pantazis     : SARC Basis sets
   Anastasios Papadopoulos: AUTO-CI, single reference methods and gradients
   Taras Petrenko         : DFT Hessian,TD-DFT gradient, ASA, ECA, R-Raman, ABS, FL, XAS/XES, NRVS
   Peter Pinski           : DLPNO-MP2, DLPNO-MP2 Gradient
   Christoph Reimann      : Effective Core Potentials
   Marius Retegan         : Local ZFS, SOC
   Christoph Riplinger    : Optimizer, TS searches, QM/MM, DLPNO-CCSD(T), (RO)-DLPNO pert. Triples
   Tobias Risthaus        : Range-separated hybrids, TD-DFT gradient, RPA, STAB
   Michael Roemelt        : Original ROCIS implementation
   Masaaki Saitow         : Open-shell DLPNO-CCSD energy and density
   Barbara Sandhoefer     : DKH picture change effects
   Avijit Sen             : IP-ROCIS
   Kantharuban Sivalingam : CASSCF convergence, NEVPT2, FIC-MRCI
   Bernardo de Souza      : ESD, SOC TD-DFT
   Georgi Stoychev        : AutoAux, RI-MP2 NMR, DLPNO-MP2 response
   Willem Van den Heuvel  : Paramagnetic NMR
   Boris Wezisla          : Elementary symmetry handling
   Frank Wennmohs         : Technical directorship


 We gratefully acknowledge several colleagues who have allowed us to
 interface, adapt or use parts of their codes:
   Stefan Grimme, W. Hujo, H. Kruse, P. Pracht,  : VdW corrections, initial TS optimization,
                  C. Bannwarth, S. Ehlert          DFT functionals, gCP, sTDA/sTD-DF
   Ed Valeev, F. Pavosevic, A. Kumar             : LibInt (2-el integral package), F12 methods
   Garnet Chan, S. Sharma, J. Yang, R. Olivares  : DMRG
   Ulf Ekstrom                                   : XCFun DFT Library
   Mihaly Kallay                                 : mrcc  (arbitrary order and MRCC methods)
   Jiri Pittner, Ondrej Demel                    : Mk-CCSD
   Frank Weinhold                                : gennbo (NPA and NBO analysis)
   Christopher J. Cramer and Donald G. Truhlar   : smd solvation model
   Lars Goerigk                                  : TD-DFT with DH, B97 family of functionals
   V. Asgeirsson, H. Jonsson                     : NEB implementation
   FAccTs GmbH                                   : IRC, NEB, NEB-TS, DLPNO-Multilevel, CI-OPT
                                                   MM, QMMM, 2- and 3-layer-ONIOM, Crystal-QMMM,
                                                   LR-CPCM, SF, NACMEs, symmetry and pop. for TD-DFT,
                                                   nearIR, NL-DFT gradient (VV10), updates on ESD,
                                                   ML-optimized integration grids
   S Lehtola, MJT Oliveira, MAL Marques          : LibXC Library
   Liviu Ungur et al                             : ANISO software


 Your calculation uses the libint2 library for the computation of 2-el integrals
 For citations please refer to: http://libint.valeyev.net

 Your ORCA version has been built with support for libXC version: 5.1.0
 For citations please refer to: https://tddft.org/programs/libxc/

 This ORCA versions uses:
   CBLAS   interface :  Fast vector & matrix operations
   LAPACKE interface :  Fast linear algebra routines
   SCALAPACK package :  Parallel linear algebra routines
   Shared memory     :  Shared parallel matrices
   BLAS/LAPACK       :  OpenBLAS 0.3.15  USE64BITINT DYNAMIC_ARCH NO_AFFINITY Haswell SINGLE_THREADED
        Core in use  :  Haswell
   Copyright (c) 2011-2014, The OpenBLAS Project


Your calculation utilizes the atom-pairwise dispersion correction
with the Becke-Johnson damping scheme (D3BJ)
Cite in your paper:
S.Grimme, S.Ehrlich, L.Goerigk, J Comput Chem, (2011), 32, 1456–1465 
S.Grimme, J.Antony, S.Ehrlich and H.Krieg, J.Chem.Phys., 132, (2010), 154104 
   

================================================================================

----- Orbital basis set information -----
Your calculation utilizes the basis: def2-TZVP
   F. Weigend and R. Ahlrichs, Phys. Chem. Chem. Phys. 7, 3297 (2005).

----- AuxJ basis set information -----
Your calculation utilizes the auxiliary basis: def2/J
   F. Weigend, Phys. Chem. Chem. Phys. 8, 1057 (2006).

================================================================================
                                        WARNINGS
                       Please study these warnings very carefully!
================================================================================


WARNING: Geometry Optimization
  ===> : Switching off AutoStart
         For restart on a previous wavefunction, please use MOREAD

INFO   : the flag for use of the SHARK integral package has been found!

================================================================================
                                       INPUT FILE
================================================================================
NAME = IM_F/IM_F.inp
|  1> %pal nprocs 24 end
|  2> ! PBE0 D3BJ def2-TZVP TightSCF OPT FREQ TightOpt
|  3> ! CPCM(dmso)
|  4> %scf
|  5> MaxIter 800
|  6> end
|  7> 
|  8> %geom
|  9> MaxIter 800
| 10> MaxStep 0.15
| 11> end
| 12> 
| 13> *xyz 0 1
| 14> C      -2.40202600      3.54277400      2.08271800
| 15> C      -2.91847000      2.30472700      1.71583300
| 16> C      -2.16955800      1.46465900      0.90690800
| 17> N      -0.95180900      1.85881800      0.47692900
| 18> C      -0.43055100      3.05467200      0.81841900
| 19> C      -1.13869500      3.92267900      1.62375100
| 20> C      -0.15100400      0.91913600     -0.30790500
| 21> C      -0.92816100      0.50285000     -1.55054200
| 22> O      -1.95912800      1.01724800     -1.90566200
| 23> O      -0.23217600     -0.35995600     -2.26445700
| 24> C      -0.84091300     -0.83901000     -3.45680500
| 25> H      -2.97941700      4.21486800      2.72147600
| 26> H      -2.51896300      0.49619500      0.52469900
| 27> H       0.56414000      3.27981800      0.43021600
| 28> H      -0.69921500      4.88584500      1.88530200
| 29> H       0.71596000      1.48018600     -0.68592400
| 30> H      -0.12143200     -1.53101500     -3.90794800
| 31> H      -1.05609100     -0.00955800     -4.14501900
| 32> H      -3.90340700      1.97593100      2.04948400
| 33> C      -0.53072900     -0.90460000      1.47926400
| 34> C       0.43935100     -0.17163800      0.62601400
| 35> C       1.44117500     -1.06475100     -0.08824600
| 36> C       1.21376200     -2.42229600     -0.29655900
| 37> C       2.16054900     -3.22449800     -0.93563800
| 38> C       3.35549000     -2.65853600     -1.37156000
| 39> C       3.61212600     -1.30155300     -1.16777300
| 40> C       2.65856200     -0.50602800     -0.52579400
| 41> O       2.81857100      0.81439300     -0.28398100
| 42> C       4.02102600      1.44490300     -0.66123300
| 43> N      -1.60000600     -1.56604500      1.06392000
| 44> O      -2.20304200     -2.37808200      1.80301900
| 45> H       1.03467600      0.41834500      1.34494500
| 46> H       0.27729900     -2.86370600      0.05026900
| 47> H       1.96223500     -4.28757800     -1.08881800
| 48> H       4.10687600     -3.27386700     -1.87292300
| 49> H       4.55487700     -0.87196500     -1.50793500
| 50> H       3.92999000      2.49447600     -0.35615400
| 51> H       4.17681900      1.39589300     -1.75149800
| 52> H       4.88800200      0.99248400     -0.15240800
| 53> O      -2.04742900     -1.30006500     -0.10971400
| 54> H      -1.77507900     -1.36656900     -3.21722600
| 55> F      -0.05530700     -1.25987100      2.68920600
| 56> *
| 57> 
| 58>                          ****END OF INPUT****
================================================================================

                       *****************************
                       * Geometry Optimization Run *
                       *****************************

Geometry optimization settings:
Update method            Update   .... BFGS
Choice of coordinates    CoordSys .... Z-matrix Internals
Initial Hessian          InHess   .... Almoef's Model

Convergence Tolerances:
Energy Change            TolE     ....  1.0000e-06 Eh
Max. Gradient            TolMAXG  ....  1.0000e-04 Eh/bohr
RMS Gradient             TolRMSG  ....  3.0000e-05 Eh/bohr
Max. Displacement        TolMAXD  ....  1.0000e-03 bohr
RMS Displacement         TolRMSD  ....  6.0000e-04 bohr
Strict Convergence                ....  False
------------------------------------------------------------------------------
                        ORCA OPTIMIZATION COORDINATE SETUP
------------------------------------------------------------------------------

The optimization will be done in new redundant internal coordinates
Making redundant internal coordinates   ...  (new redundants) done
Evaluating the initial hessian          ...  (Almloef) done
Evaluating the coordinates              ...  done
Calculating the B-matrix                .... done
Calculating the G-matrix                .... done
Diagonalizing the G-matrix              .... done
Small eigenvalue found = 3.387e-03
Small eigenvalue found = 5.378e-03
Small eigenvalue found = 8.322e-03
Small eigenvalue found = 1.013e-02
Small eigenvalue found = 1.411e-02
Small eigenvalue found = 2.087e-02
Small eigenvalue found = 2.265e-02
The first mode is                       ....   89
The number of degrees of freedom        ....  120

    -----------------------------------------------------------------
                    Redundant Internal Coordinates


    -----------------------------------------------------------------
         Definition                    Initial Value    Approx d2E/dq
    -----------------------------------------------------------------
      1. B(C   1,C   0)                  1.3907         0.623165   
      2. B(C   2,C   1)                  1.3860         0.634090   
      3. B(N   3,C   2)                  1.3502         0.647598   
      4. B(C   4,N   3)                  1.3485         0.651811   
      5. B(C   5,C   4)                  1.3797         0.648984   
      6. B(C   5,C   0)                  1.3968         0.609435   
      7. B(C   6,N   3)                  1.4630         0.428026   
      8. B(C   7,C   6)                  1.5236         0.382436   
      9. B(O   8,C   7)                  1.2057         1.101497   
     10. B(O   9,C   7)                  1.3185         0.727632   
     11. B(C  10,O   9)                  1.4219         0.497749   
     12. B(H  11,C   0)                  1.0923         0.357080   
     13. B(H  12,C   2)                  1.0982         0.349387   
     14. B(H  13,C   4)                  1.0912         0.358465   
     15. B(H  14,C   5)                  1.0905         0.359409   
     16. B(H  15,C   6)                  1.0997         0.347516   
     17. B(H  16,C  10)                  1.0955         0.352937   
     18. B(H  17,C  10)                  1.0991         0.348313   
     19. B(H  18,C   1)                  1.0907         0.359233   
     20. B(C  20,C  19)                  1.4854         0.440131   
     21. B(C  20,C   6)                  1.5526         0.343834   
     22. B(C  21,C  20)                  1.5204         0.387053   
     23. B(C  22,C  21)                  1.3921         0.619916   
     24. B(C  23,C  22)                  1.3958         0.611546   
     25. B(C  24,C  23)                  1.3922         0.619764   
     26. B(C  25,C  24)                  1.3960         0.611193   
     27. B(C  26,C  25)                  1.3980         0.606799   
     28. B(C  26,C  21)                  1.4091         0.582393   
     29. B(O  27,C  26)                  1.3519         0.643707   
     30. B(C  28,O  27)                  1.4092         0.521544   
     31. B(N  29,C  19)                  1.3242         0.712746   
     32. B(O  30,N  29)                  1.2527         0.829895   
     33. B(H  31,C  20)                  1.1042         0.341742   
     34. B(H  32,C  22)                  1.0918         0.357686   
     35. B(H  33,C  23)                  1.0922         0.357183   
     36. B(H  34,C  24)                  1.0930         0.356196   
     37. B(H  35,C  25)                  1.0904         0.359533   
     38. B(H  36,C  28)                  1.0968         0.351219   
     39. B(H  37,C  28)                  1.1024         0.344027   
     40. B(H  38,C  28)                  1.1024         0.344095   
     41. B(O  39,N  29)                  1.2839         0.740149   
     42. B(H  40,C  10)                  1.0993         0.348050   
     43. B(F  41,C  19)                  1.3477         0.607447   
     44. A(C   5,C   0,H  11)          120.1922         0.351384   
     45. A(C   1,C   0,H  11)          120.3802         0.352710   
     46. A(C   1,C   0,C   5)          119.4273         0.433123   
     47. A(C   0,C   1,C   2)          119.5310         0.436225   
     48. A(C   2,C   1,H  18)          118.9336         0.354110   
     49. A(C   0,C   1,H  18)          121.5354         0.353069   
     50. A(C   1,C   2,N   3)          119.7522         0.436379   
     51. A(N   3,C   2,H  12)          115.6921         0.351529   
     52. A(C   1,C   2,H  12)          124.4519         0.352448   
     53. A(C   2,N   3,C   6)          118.4901         0.404198   
     54. A(C   4,N   3,C   6)          119.5958         0.404661   
     55. A(C   2,N   3,C   4)          121.7933         0.435677   
     56. A(C   5,C   4,H  13)          123.0732         0.355378   
     57. A(N   3,C   4,H  13)          116.4382         0.353446   
     58. A(N   3,C   4,C   5)          120.4875         0.438722   
     59. A(C   0,C   5,C   4)          119.0073         0.436299   
     60. A(C   0,C   5,H  14)          121.7296         0.351770   
     61. A(C   4,C   5,H  14)          119.2631         0.355536   
     62. A(C   7,C   6,C  20)          119.5111         0.359681   
     63. A(N   3,C   6,C  20)          109.6759         0.364384   
     64. A(H  15,C   6,C  20)          105.3932         0.318090   
     65. A(N   3,C   6,H  15)          106.7535         0.327752   
     66. A(N   3,C   6,C   7)          109.5010         0.371097   
     67. A(C   7,C   6,H  15)          105.1393         0.323674   
     68. A(C   6,C   7,O   9)          110.5573         0.407094   
     69. A(C   6,C   7,O   8)          124.0435         0.438392   
     70. A(O   8,C   7,O   9)          124.8255         0.489823   
     71. A(C   7,O   9,C  10)          116.6493         0.423867   
     72. A(O   9,C  10,H  40)          110.0446         0.336134   
     73. A(H  16,C  10,H  17)          110.3311         0.288416   
     74. A(O   9,C  10,H  17)          110.7721         0.336176   
     75. A(O   9,C  10,H  16)          106.0808         0.336915   
     76. A(H  17,C  10,H  40)          109.4076         0.287788   
     77. A(H  16,C  10,H  40)          110.1652         0.288382   
     78. A(C  20,C  19,N  29)          126.4195         0.415840   
     79. A(N  29,C  19,F  41)          115.7726         0.435726   
     80. A(C  20,C  19,F  41)          114.5459         0.402466   
     81. A(C  21,C  20,H  31)          105.3359         0.323421   
     82. A(C  19,C  20,H  31)          103.9898         0.330340   
     83. A(C   6,C  20,H  31)          102.7832         0.317223   
     84. A(C  19,C  20,C  21)          114.2265         0.376017   
     85. A(C   6,C  20,C  21)          112.3751         0.360417   
     86. A(C   6,C  20,C  19)          116.3521         0.368427   
     87. A(C  22,C  21,C  26)          118.7713         0.429203   
     88. A(C  20,C  21,C  26)          118.8315         0.394800   
     89. A(C  20,C  21,C  22)          122.3778         0.399153   
     90. A(C  23,C  22,H  32)          119.6608         0.351690   
     91. A(C  21,C  22,H  32)          119.1315         0.352499   
     92. A(C  21,C  22,C  23)          121.2075         0.432985   
     93. A(C  24,C  23,H  33)          120.5047         0.352401   
     94. A(C  22,C  23,H  33)          120.0288         0.351606   
     95. A(C  22,C  23,C  24)          119.4664         0.432966   
     96. A(C  25,C  24,H  34)          119.1987         0.351407   
     97. A(C  23,C  24,H  34)          120.3200         0.352236   
     98. A(C  23,C  24,C  25)          120.4804         0.432921   
     99. A(C  26,C  25,H  35)          120.5840         0.351533   
    100. A(C  24,C  25,H  35)          119.7591         0.351962   
    101. A(C  24,C  25,C  26)          119.6566         0.431279   
    102. A(C  25,C  26,O  27)          123.8642         0.432468   
    103. A(C  21,C  26,O  27)          115.7209         0.429292   
    104. A(C  21,C  26,C  25)          120.4147         0.427560   
    105. A(C  26,O  27,C  28)          119.3493         0.418167   
    106. A(H  36,C  28,H  38)          109.2459         0.287647   
    107. A(O  27,C  28,H  38)          111.3397         0.338114   
    108. A(H  36,C  28,H  37)          109.2298         0.287638   
    109. A(O  27,C  28,H  37)          111.4356         0.338103   
    110. A(O  27,C  28,H  36)          106.4320         0.339272   
    111. A(H  37,C  28,H  38)          109.0924         0.286719   
    112. A(C  19,N  29,O  30)          121.8340         0.460048   
    113. A(O  30,N  29,O  39)          120.3886         0.460089   
    114. A(C  19,N  29,O  39)          117.6884         0.450559   
    115. D(C   2,C   1,C   0,H  11)   -179.8682         0.026888   
    116. D(H  18,C   1,C   0,C   5)   -179.6275         0.026888   
    117. D(C   2,C   1,C   0,C   5)      0.3349         0.026888   
    118. D(H  18,C   1,C   0,H  11)      0.1694         0.026888   
    119. D(N   3,C   2,C   1,H  18)    179.5570         0.027901   
    120. D(H  12,C   2,C   1,C   0)   -176.5368         0.027901   
    121. D(H  12,C   2,C   1,H  18)      3.4266         0.027901   
    122. D(N   3,C   2,C   1,C   0)     -0.4064         0.027901   
    123. D(C   4,N   3,C   2,H  12)    176.8200         0.034204   
    124. D(C   6,N   3,C   2,H  12)     -7.1934         0.034204   
    125. D(C   4,N   3,C   2,C   1)      0.3606         0.034204   
    126. D(C   6,N   3,C   2,C   1)    176.3472         0.034204   
    127. D(C   5,C   4,N   3,C   6)   -176.1813         0.034689   
    128. D(C   5,C   4,N   3,C   2)     -0.2380         0.034689   
    129. D(H  13,C   4,N   3,C   2)    179.4051         0.034689   
    130. D(H  13,C   4,N   3,C   6)      3.4619         0.034689   
    131. D(H  14,C   5,C   4,H  13)      0.5478         0.029319   
    132. D(C   0,C   5,C   4,H  13)   -179.4581         0.029319   
    133. D(H  14,C   5,C   0,H  11)     -0.0157         0.025649   
    134. D(C   0,C   5,C   4,N   3)      0.1606         0.029319   
    135. D(H  14,C   5,C   0,C   1)    179.7816         0.025649   
    136. D(H  14,C   5,C   4,N   3)   -179.8335         0.029319   
    137. D(C   4,C   5,C   0,H  11)    179.9904         0.025649   
    138. D(C   4,C   5,C   0,C   1)     -0.2123         0.025649   
    139. D(C  20,C   6,N   3,C   4)    101.0861         0.015620   
    140. D(C  20,C   6,N   3,C   2)    -74.9910         0.015620   
    141. D(H  15,C   6,N   3,C   4)    -12.6196         0.015620   
    142. D(C   7,C   6,N   3,C   2)     57.9781         0.015620   
    143. D(H  15,C   6,N   3,C   2)    171.3033         0.015620   
    144. D(C   7,C   6,N   3,C   4)   -125.9448         0.015620   
    145. D(O   8,C   7,C   6,N   3)      9.2205         0.010905   
    146. D(O   9,C   7,C   6,C  20)    -51.4582         0.010905   
    147. D(O   9,C   7,C   6,H  15)     66.5192         0.010905   
    148. D(O   9,C   7,C   6,N   3)   -179.1122         0.010905   
    149. D(O   8,C   7,C   6,C  20)    136.8745         0.010905   
    150. D(O   8,C   7,C   6,H  15)   -105.1481         0.010905   
    151. D(C  10,O   9,C   7,O   8)     -8.5766         0.039955   
    152. D(C  10,O   9,C   7,C   6)    179.8350         0.039955   
    153. D(H  40,C  10,O   9,C   7)    -61.0619         0.019581   
    154. D(H  17,C  10,O   9,C   7)     60.0489         0.019581   
    155. D(H  16,C  10,O   9,C   7)    179.7895         0.019581   
    156. D(H  31,C  20,C  19,F  41)    -33.7030         0.014294   
    157. D(C  21,C  20,C  19,F  41)     80.5640         0.014294   
    158. D(C  21,C  20,C  19,N  29)    -78.0208         0.014294   
    159. D(C   6,C  20,C  19,F  41)   -145.9057         0.014294   
    160. D(C   6,C  20,C  19,N  29)     55.5096         0.014294   
    161. D(H  31,C  20,C   6,H  15)     55.5001         0.009553   
    162. D(H  31,C  20,C   6,C   7)    173.3467         0.009553   
    163. D(H  31,C  20,C   6,N   3)    -59.0801         0.009553   
    164. D(C  21,C  20,C   6,H  15)    -57.2479         0.009553   
    165. D(C  21,C  20,C   6,C   7)     60.5987         0.009553   
    166. D(C  21,C  20,C   6,N   3)   -171.8281         0.009553   
    167. D(C  19,C  20,C   6,H  15)    168.3944         0.009553   
    168. D(H  31,C  20,C  19,N  29)    167.7122         0.014294   
    169. D(C  19,C  20,C   6,N   3)     53.8142         0.009553   
    170. D(C  19,C  20,C   6,C   7)    -73.7590         0.009553   
    171. D(C  26,C  21,C  20,H  31)    -44.4611         0.011155   
    172. D(C  26,C  21,C  20,C  19)   -157.9322         0.011155   
    173. D(C  26,C  21,C  20,C   6)     66.7009         0.011155   
    174. D(C  22,C  21,C  20,H  31)    133.9122         0.011155   
    175. D(C  22,C  21,C  20,C  19)     20.4412         0.011155   
    176. D(C  22,C  21,C  20,C   6)   -114.9257         0.011155   
    177. D(C  23,C  22,C  21,C  20)   -178.9085         0.026592   
    178. D(H  32,C  22,C  21,C  26)    179.3104         0.026592   
    179. D(H  32,C  22,C  21,C  20)      0.9361         0.026592   
    180. D(C  23,C  22,C  21,C  26)     -0.5342         0.026592   
    181. D(H  33,C  23,C  22,H  32)      0.1405         0.025837   
    182. D(H  33,C  23,C  22,C  21)    179.9843         0.025837   
    183. D(C  24,C  23,C  22,H  32)   -179.7493         0.025837   
    184. D(C  24,C  23,C  22,C  21)      0.0945         0.025837   
    185. D(H  34,C  24,C  23,H  33)      0.0670         0.026578   
    186. D(H  34,C  24,C  23,C  22)    179.9562         0.026578   
    187. D(C  25,C  24,C  23,H  33)   -179.5824         0.026578   
    188. D(C  25,C  24,C  23,C  22)      0.3068         0.026578   
    189. D(H  35,C  25,C  24,H  34)     -0.0713         0.025805   
    190. D(H  35,C  25,C  24,C  23)    179.5820         0.025805   
    191. D(C  26,C  25,C  24,H  34)   -179.9077         0.025805   
    192. D(C  26,C  25,C  24,C  23)     -0.2544         0.025805   
    193. D(O  27,C  26,C  25,H  35)      0.1172         0.025415   
    194. D(O  27,C  26,C  25,C  24)    179.9523         0.025415   
    195. D(C  21,C  26,C  25,H  35)    179.9691         0.025415   
    196. D(C  21,C  26,C  25,C  24)     -0.1958         0.025415   
    197. D(O  27,C  26,C  21,C  22)   -179.5531         0.023312   
    198. D(O  27,C  26,C  21,C  20)     -1.1204         0.023312   
    199. D(C  25,C  26,C  21,C  22)      0.5834         0.023312   
    200. D(C  25,C  26,C  21,C  20)    179.0162         0.023312   
    201. D(C  28,O  27,C  26,C  25)     -1.6295         0.030575   
    202. D(C  28,O  27,C  26,C  21)    178.5123         0.030575   
    203. D(H  38,C  28,O  27,C  26)    -60.1939         0.021571   
    204. D(H  37,C  28,O  27,C  26)     61.8555         0.021571   
    205. D(H  36,C  28,O  27,C  26)   -179.1524         0.021571   
    206. D(O  39,N  29,C  19,F  41)   -176.8868         0.042194   
    207. D(O  39,N  29,C  19,C  20)    -18.5294         0.042194   
    208. D(O  30,N  29,C  19,F  41)      6.5318         0.042194   
    209. D(O  30,N  29,C  19,C  20)    164.8892         0.042194   
    -----------------------------------------------------------------

Number of atoms                         .... 42
Number of degrees of freedom            .... 209

         *************************************************************
         *                GEOMETRY OPTIMIZATION CYCLE   1            *
         *************************************************************
---------------------------------
CARTESIAN COORDINATES (ANGSTROEM)
---------------------------------
  C     -2.402026    3.542774    2.082718
  C     -2.918470    2.304727    1.715833
  C     -2.169558    1.464659    0.906908
  N     -0.951809    1.858818    0.476929
  C     -0.430551    3.054672    0.818419
  C     -1.138695    3.922679    1.623751
  C     -0.151004    0.919136   -0.307905
  C     -0.928161    0.502850   -1.550542
  O     -1.959128    1.017248   -1.905662
  O     -0.232176   -0.359956   -2.264457
  C     -0.840913   -0.839010   -3.456805
  H     -2.979417    4.214868    2.721476
  H     -2.518963    0.496195    0.524699
  H      0.564140    3.279818    0.430216
  H     -0.699215    4.885845    1.885302
  H      0.715960    1.480186   -0.685924
  H     -0.121432   -1.531015   -3.907948
  H     -1.056091   -0.009558   -4.145019
  H     -3.903407    1.975931    2.049484
  C     -0.530729   -0.904600    1.479264
  C      0.439351   -0.171638    0.626014
  C      1.441175   -1.064751   -0.088246
  C      1.213762   -2.422296   -0.296559
  C      2.160549   -3.224498   -0.935638
  C      3.355490   -2.658536   -1.371560
  C      3.612126   -1.301553   -1.167773
  C      2.658562   -0.506028   -0.525794
  O      2.818571    0.814393   -0.283981
  C      4.021026    1.444903   -0.661233
  N     -1.600006   -1.566045    1.063920
  O     -2.203042   -2.378082    1.803019
  H      1.034676    0.418345    1.344945
  H      0.277299   -2.863706    0.050269
  H      1.962235   -4.287578   -1.088818
  H      4.106876   -3.273867   -1.872923
  H      4.554877   -0.871965   -1.507935
  H      3.929990    2.494476   -0.356154
  H      4.176819    1.395893   -1.751498
  H      4.888002    0.992484   -0.152408
  O     -2.047429   -1.300065   -0.109714
  H     -1.775079   -1.366569   -3.217226
  F     -0.055307   -1.259871    2.689206

----------------------------
CARTESIAN COORDINATES (A.U.)
----------------------------
  NO LB      ZA    FRAG     MASS         X           Y           Z
   0 C     6.0000    0    12.011   -4.539171    6.694873    3.935767
   1 C     6.0000    0    12.011   -5.515109    4.355303    3.242454
   2 C     6.0000    0    12.011   -4.099870    2.767804    1.713808
   3 N     7.0000    0    14.007   -1.798658    3.512657    0.901265
   4 C     6.0000    0    12.011   -0.813623    5.772494    1.546588
   5 C     6.0000    0    12.011   -2.151822    7.412789    3.068445
   6 C     6.0000    0    12.011   -0.285356    1.736915   -0.581856
   7 C     6.0000    0    12.011   -1.753970    0.950249   -2.930100
   8 O     8.0000    0    15.999   -3.702215    1.922320   -3.601179
   9 O     8.0000    0    15.999   -0.438749   -0.680218   -4.279204
  10 C     6.0000    0    12.011   -1.589095   -1.585499   -6.532415
  11 H     1.0000    0     1.008   -5.630282    7.964946    5.142844
  12 H     1.0000    0     1.008   -4.760150    0.937673    0.991537
  13 H     1.0000    0     1.008    1.066070    6.197958    0.812990
  14 H     1.0000    0     1.008   -1.321325    9.232909    3.562704
  15 H     1.0000    0     1.008    1.352968    2.797146   -1.296209
  16 H     1.0000    0     1.008   -0.229473   -2.893199   -7.384951
  17 H     1.0000    0     1.008   -1.995723   -0.018062   -7.832951
  18 H     1.0000    0     1.008   -7.376370    3.733968    3.872963
  19 C     6.0000    0    12.011   -1.002932   -1.709446    2.795404
  20 C     6.0000    0    12.011    0.830253   -0.324349    1.182995
  21 C     6.0000    0    12.011    2.723426   -2.012088   -0.166761
  22 C     6.0000    0    12.011    2.293678   -4.577476   -0.560415
  23 C     6.0000    0    12.011    4.082846   -6.093418   -1.768100
  24 C     6.0000    0    12.011    6.340957   -5.023905   -2.591873
  25 C     6.0000    0    12.011    6.825929   -2.459579   -2.206771
  26 C     6.0000    0    12.011    5.023954   -0.956254   -0.993607
  27 O     8.0000    0    15.999    5.326327    1.538980   -0.536646
  28 C     6.0000    0    12.011    7.598638    2.730471   -1.249549
  29 N     7.0000    0    14.007   -3.023573   -2.959396    2.010517
  30 O     8.0000    0    15.999   -4.163146   -4.493924    3.407212
  31 H     1.0000    0     1.008    1.955254    0.790557    2.541578
  32 H     1.0000    0     1.008    0.524019   -5.411620    0.094995
  33 H     1.0000    0     1.008    3.708087   -8.102348   -2.057568
  34 H     1.0000    0     1.008    7.760871   -6.186712   -3.539312
  35 H     1.0000    0     1.008    8.607470   -1.647775   -2.849584
  36 H     1.0000    0     1.008    7.426605    4.713876   -0.673034
  37 H     1.0000    0     1.008    7.893044    2.637855   -3.309852
  38 H     1.0000    0     1.008    9.236985    1.875523   -0.288009
  39 O     8.0000    0    15.999   -3.869080   -2.456767   -0.207329
  40 H     1.0000    0     1.008   -3.354413   -2.582441   -6.079676
  41 F     9.0000    0    18.998   -0.104515   -2.380811    5.081863

--------------------------------
INTERNAL COORDINATES (ANGSTROEM)
--------------------------------
 C      0   0   0     0.000000000000     0.00000000     0.00000000
 C      1   0   0     1.390711825854     0.00000000     0.00000000
 C      2   1   0     1.385980910400   119.53103547     0.00000000
 N      3   2   1     1.350242898416   119.75219608   359.59361822
 C      4   3   2     1.348477701699   121.79325812     0.36056670
 C      5   4   3     1.379660721703   120.48753371   359.76198985
 C      4   3   2     1.462961146683   118.49011774   176.34716470
 C      7   4   3     1.523618636738   109.50096098    57.97811784
 O      8   7   4     1.205656863246   124.04350593     9.22051974
 O      8   7   4     1.318523394213   110.55727398   180.88782183
 C     10   8   7     1.421881578469   116.64930823   179.83504241
 H      1   2   3     1.092292311738   120.38019144   180.13179836
 H      3   2   1     1.098221331518   124.45185762   183.46323524
 H      5   4   3     1.091238963750   116.43822543   179.40514032
 H      6   5   4     1.090522966084   119.26305882   180.16649980
 H      7   4   3     1.099682701581   106.75351565   171.30325642
 H     11  10   8     1.095469687319   106.08083501   179.78954182
 H     11  10   8     1.099059007417   110.77208466    60.04887091
 H      2   1   3     1.090656083917   121.53537994   180.03763541
 C      7   4   3     2.581506751469    90.10642852   309.60027416
 C     20   7   4     1.485370008565    32.61061521   229.46264625
 C     21  20   7     1.520351770264   114.22645208   226.46968527
 C     22  21  20     1.392134837422   122.37778220    20.44115406
 C     23  22  21     1.395835105023   121.20747540   181.09151807
 C     24  23  22     1.392201482907   119.46642355     0.09451316
 C     25  24  23     1.395992134703   120.48044699     0.30680136
 C     26  25  24     1.397956138140   119.65663474   359.74556426
 O     27  26  25     1.351883140028   123.86422466   179.95231375
 C     28  27  26     1.409169953777   119.34926291   358.37051427
 N     20   7   4     1.324150078009   104.74542257    92.76361430
 O     30  20   7     1.252726561731   121.83401459   192.23259879
 H     21  20   7     1.104243441762   103.98982572   112.20264102
 H     23  22  21     1.091831214086   119.13153123     0.93611001
 H     24  23  22     1.092214100530   120.02875467   179.98429000
 H     25  24  23     1.092967528487   120.31998741   179.95619819
 H     26  25  24     1.090429036659   119.75914967   179.58202389
 H     29  28  27     1.096797261059   106.43201354   180.84763440
 H     29  28  27     1.102429684458   111.43555293    61.85550981
 H     29  28  27     1.102376168448   111.33968632   299.80611884
 O     30  20   7     1.283880628129   117.68838351     8.81400109
 H     11  10   8     1.099264622954   110.04460922   298.93813508
 F     20   7   4     1.347665835765   139.10354975   280.61665934

---------------------------
INTERNAL COORDINATES (A.U.)
---------------------------
 C      0   0   0     0.000000000000     0.00000000     0.00000000
 C      1   0   0     2.628064482070     0.00000000     0.00000000
 C      2   1   0     2.619124347499   119.53103547     0.00000000
 N      3   2   1     2.551589292278   119.75219608   359.59361822
 C      4   3   2     2.548253553911   121.79325812     0.36056670
 C      5   4   3     2.607180921746   120.48753371   359.76198985
 C      4   3   2     2.764595911799   118.49011774   176.34716470
 C      7   4   3     2.879221955972   109.50096098    57.97811784
 O      8   7   4     2.278361283018   124.04350593     9.22051974
 O      8   7   4     2.491648116230   110.55727398   180.88782183
 C     10   8   7     2.686966778174   116.64930823   179.83504241
 H      1   2   3     2.064133327372   120.38019144   180.13179836
 H      3   2   1     2.075337551000   124.45185762   183.46323524
 H      5   4   3     2.062142788151   116.43822543   179.40514032
 H      6   5   4     2.060789748651   119.26305882   180.16649980
 H      7   4   3     2.078099140199   106.75351565   171.30325642
 H     11  10   8     2.070137697045   106.08083501   179.78954182
 H     11  10   8     2.076920529037   110.77208466    60.04887091
 H      2   1   3     2.061041304899   121.53537994   180.03763541
 C      7   4   3     4.878340773146    90.10642852   309.60027416
 C     20   7   4     2.806942523728    32.61061521   229.46264625
 C     21  20   7     2.873048473021   114.22645208   226.46968527
 C     22  21  20     2.630753584218   122.37778220    20.44115406
 C     23  22  21     2.637746076606   121.20747540   181.09151807
 C     24  23  22     2.630879525934   119.46642355     0.09451316
 C     25  24  23     2.638042819698   120.48044699     0.30680136
 C     26  25  24     2.641754248318   119.65663474   359.74556426
 O     27  26  25     2.554688899718   123.86422466   179.95231375
 C     28  27  26     2.662945288790   119.34926291   358.37051427
 N     20   7   4     2.502281007647   104.74542257    92.76361430
 O     30  20   7     2.367310122360   121.83401459   192.23259879
 H     21  20   7     2.086717690109   103.98982572   112.20264102
 H     23  22  21     2.063261979090   119.13153123     0.93611001
 H     24  23  22     2.063985529608   120.02875467   179.98429000
 H     25  24  23     2.065409302108   120.31998741   179.95619819
 H     26  25  24     2.060612247761   119.75914967   179.58202389
 H     29  28  27     2.072646447836   106.43201354   180.84763440
 H     29  28  27     2.083290185531   111.43555293    61.85550981
 H     29  28  27     2.083189054928   111.33968632   299.80611884
 O     30  20   7     2.426182775811   117.68838351     8.81400109
 H     11  10   8     2.077309086091   110.04460922   298.93813508
 F     20   7   4     2.546719349639   139.10354975   280.61665934

---------------------
BASIS SET INFORMATION
---------------------
There are 5 groups of distinct atoms

 Group   1 Type C   : 11s6p2d1f contracted to 5s3p2d1f pattern {62111/411/11/1}
 Group   2 Type N   : 11s6p2d1f contracted to 5s3p2d1f pattern {62111/411/11/1}
 Group   3 Type O   : 11s6p2d1f contracted to 5s3p2d1f pattern {62111/411/11/1}
 Group   4 Type H   : 5s1p contracted to 3s1p pattern {311/1}
 Group   5 Type F   : 11s6p2d1f contracted to 5s3p2d1f pattern {62111/411/11/1}

Atom   0C    basis set group =>   1
Atom   1C    basis set group =>   1
Atom   2C    basis set group =>   1
Atom   3N    basis set group =>   2
Atom   4C    basis set group =>   1
Atom   5C    basis set group =>   1
Atom   6C    basis set group =>   1
Atom   7C    basis set group =>   1
Atom   8O    basis set group =>   3
Atom   9O    basis set group =>   3
Atom  10C    basis set group =>   1
Atom  11H    basis set group =>   4
Atom  12H    basis set group =>   4
Atom  13H    basis set group =>   4
Atom  14H    basis set group =>   4
Atom  15H    basis set group =>   4
Atom  16H    basis set group =>   4
Atom  17H    basis set group =>   4
Atom  18H    basis set group =>   4
Atom  19C    basis set group =>   1
Atom  20C    basis set group =>   1
Atom  21C    basis set group =>   1
Atom  22C    basis set group =>   1
Atom  23C    basis set group =>   1
Atom  24C    basis set group =>   1
Atom  25C    basis set group =>   1
Atom  26C    basis set group =>   1
Atom  27O    basis set group =>   3
Atom  28C    basis set group =>   1
Atom  29N    basis set group =>   2
Atom  30O    basis set group =>   3
Atom  31H    basis set group =>   4
Atom  32H    basis set group =>   4
Atom  33H    basis set group =>   4
Atom  34H    basis set group =>   4
Atom  35H    basis set group =>   4
Atom  36H    basis set group =>   4
Atom  37H    basis set group =>   4
Atom  38H    basis set group =>   4
Atom  39O    basis set group =>   3
Atom  40H    basis set group =>   4
Atom  41F    basis set group =>   5
---------------------------------
AUXILIARY/J BASIS SET INFORMATION
---------------------------------
There are 5 groups of distinct atoms

 Group   1 Type C   : 12s5p4d2f1g contracted to 6s4p3d1f1g pattern {711111/2111/211/2/1}
 Group   2 Type N   : 12s5p4d2f1g contracted to 6s4p3d1f1g pattern {711111/2111/211/2/1}
 Group   3 Type O   : 12s5p4d2f1g contracted to 6s4p3d1f1g pattern {711111/2111/211/2/1}
 Group   4 Type H   : 5s2p1d contracted to 3s1p1d pattern {311/2/1}
 Group   5 Type F   : 12s5p4d2f1g contracted to 6s4p3d1f1g pattern {711111/2111/211/2/1}

Atom   0C    basis set group =>   1
Atom   1C    basis set group =>   1
Atom   2C    basis set group =>   1
Atom   3N    basis set group =>   2
Atom   4C    basis set group =>   1
Atom   5C    basis set group =>   1
Atom   6C    basis set group =>   1
Atom   7C    basis set group =>   1
Atom   8O    basis set group =>   3
Atom   9O    basis set group =>   3
Atom  10C    basis set group =>   1
Atom  11H    basis set group =>   4
Atom  12H    basis set group =>   4
Atom  13H    basis set group =>   4
Atom  14H    basis set group =>   4
Atom  15H    basis set group =>   4
Atom  16H    basis set group =>   4
Atom  17H    basis set group =>   4
Atom  18H    basis set group =>   4
Atom  19C    basis set group =>   1
Atom  20C    basis set group =>   1
Atom  21C    basis set group =>   1
Atom  22C    basis set group =>   1
Atom  23C    basis set group =>   1
Atom  24C    basis set group =>   1
Atom  25C    basis set group =>   1
Atom  26C    basis set group =>   1
Atom  27O    basis set group =>   3
Atom  28C    basis set group =>   1
Atom  29N    basis set group =>   2
Atom  30O    basis set group =>   3
Atom  31H    basis set group =>   4
Atom  32H    basis set group =>   4
Atom  33H    basis set group =>   4
Atom  34H    basis set group =>   4
Atom  35H    basis set group =>   4
Atom  36H    basis set group =>   4
Atom  37H    basis set group =>   4
Atom  38H    basis set group =>   4
Atom  39O    basis set group =>   3
Atom  40H    basis set group =>   4
Atom  41F    basis set group =>   5


           ************************************************************
           *        Program running with 24 parallel MPI-processes    *
           *              working on a common directory               *
           ************************************************************
------------------------------------------------------------------------------
                           ORCA GTO INTEGRAL CALCULATION
                           -- RI-GTO INTEGRALS CHOSEN --
------------------------------------------------------------------------------
------------------------------------------------------------------------------
                   ___                                                        
                  /   \      - P O W E R E D   B Y -                         
                 /     \                                                     
                 |  |  |   _    _      __       _____    __    __             
                 |  |  |  | |  | |    /  \     |  _  \  |  |  /  |          
                  \  \/   | |  | |   /    \    | | | |  |  | /  /          
                 / \  \   | |__| |  /  /\  \   | |_| |  |  |/  /          
                |  |  |   |  __  | /  /__\  \  |    /   |      \           
                |  |  |   | |  | | |   __   |  |    \   |  |\   \          
                \     /   | |  | | |  |  |  |  | |\  \  |  | \   \       
                 \___/    |_|  |_| |__|  |__|  |_| \__\ |__|  \__/        
                                                                              
                      - O R C A' S   B I G   F R I E N D -                    
                                      &                                       
                       - I N T E G R A L  F E E D E R -                       
                                                                              
 v1 FN, 2020, v2 2021                                                         
------------------------------------------------------------------------------


Reading SHARK input file IM_F/IM_F.SHARKINP.tmp ... ok
----------------------
SHARK INTEGRAL PACKAGE
----------------------

Number of atoms                             ...     42
Number of basis functions                   ...    877
Number of shells                            ...    343
Maximum angular momentum                    ...      3
Integral batch strategy                     ... SHARK/LIBINT Hybrid
RI-J (if used) integral strategy            ... SPLIT-RIJ (Revised 2003 algorithm where possible)
Printlevel                                  ...      1
Contraction scheme used                     ... SEGMENTED contraction
Coulomb Range Separation                    ... NOT USED
Exchange Range Separation                   ... NOT USED
Finite Nucleus Model                        ... NOT USED
Auxiliary Coulomb fitting basis             ... AVAILABLE
   # of basis functions in Aux-J            ...   1412
   # of shells in Aux-J                     ...    460
   Maximum angular momentum in Aux-J        ...      4
Auxiliary J/K fitting basis                 ... NOT available
Auxiliary Correlation fitting basis         ... NOT available
Auxiliary 'external' fitting basis          ... NOT available
Integral threshold                          ...     2.500000e-11
Primitive cut-off                           ...     2.500000e-12
Primitive pair pre-selection threshold      ...     2.500000e-12

Calculating pre-screening integrals         ... done (  0.1 sec) Dimension = 343
Organizing shell pair data                  ... done (  1.1 sec)
Shell pair information
Total number of shell pairs                 ...     58996
Shell pairs after pre-screening             ...     42620
Total number of primitive shell pairs       ...    182104
Primitive shell pairs kept                  ...     86154
          la=0 lb=0:  10752 shell pairs
          la=1 lb=0:  12211 shell pairs
          la=1 lb=1:   3488 shell pairs
          la=2 lb=0:   6120 shell pairs
          la=2 lb=1:   3546 shell pairs
          la=2 lb=2:    930 shell pairs
          la=3 lb=0:   2844 shell pairs
          la=3 lb=1:   1681 shell pairs
          la=3 lb=2:    834 shell pairs
          la=3 lb=3:    214 shell pairs

Calculating one electron integrals          ... done (  0.1 sec)
Calculating RI/J V-Matrix + Cholesky decomp.... done (  0.4 sec)
Calculating Nuclear repulsion               ... done (  0.0 sec) ENN=   2395.864119124207 Eh

SHARK setup successfully completed in   3.4 seconds

Maximum memory used throughout the entire GTOINT-calculation: 64.7 MB


           ************************************************************
           *        Program running with 24 parallel MPI-processes    *
           *              working on a common directory               *
           ************************************************************
-------------------------------------------------------------------------------
                                 ORCA SCF
-------------------------------------------------------------------------------

------------
SCF SETTINGS
------------
Hamiltonian:
 Density Functional     Method          .... DFT(GTOs)
 Exchange Functional    Exchange        .... PBE
   PBE kappa parameter   XKappa         ....  0.804000
   PBE mue parameter    XMuePBE         ....  0.219520
 Correlation Functional Correlation     .... PBE
   PBE beta parameter  CBetaPBE         ....  0.066725
 LDA part of GGA corr.  LDAOpt          .... PW91-LDA
 Gradients option       PostSCFGGA      .... off
 Hybrid DFT is turned on
   Fraction HF Exchange ScalHFX         ....  0.250000
   Scaling of DF-GGA-X  ScalDFX         ....  0.750000
   Scaling of DF-GGA-C  ScalDFC         ....  1.000000
   Scaling of DF-LDA-C  ScalLDAC        ....  1.000000
   Perturbative correction              ....  0.000000
   Density functional embedding theory  .... OFF
   NL short-range parameter             ....  6.900000
 RI-approximation to the Coulomb term is turned on
   Number of AuxJ basis functions       .... 1412
   RIJ-COSX (HFX calculated with COS-X)).... on


General Settings:
 Integral files         IntName         .... IM_F/IM_F
 Hartree-Fock type      HFTyp           .... RHF
 Total Charge           Charge          ....    0
 Multiplicity           Mult            ....    1
 Number of Electrons    NEL             ....  182
 Basis Dimension        Dim             ....  877
 Nuclear Repulsion      ENuc            ....   2395.8641191242 Eh

Convergence Acceleration:
 DIIS                   CNVDIIS         .... on
   Start iteration      DIISMaxIt       ....    12
   Startup error        DIISStart       ....  0.200000
   # of expansion vecs  DIISMaxEq       ....     5
   Bias factor          DIISBfac        ....   1.050
   Max. coefficient     DIISMaxC        ....  10.000
 Trust-Rad. Augm. Hess. CNVTRAH         .... auto
   Auto Start mean grad. ratio tolernc. ....  1.125000
   Auto Start start iteration           ....    20
   Auto Start num. interpolation iter.  ....    10
   Max. Number of Micro iterations      ....    16
   Max. Number of Macro iterations      .... Maxiter - #DIIS iter
   Number of Davidson start vectors     ....     2
   Converg. threshold I  (grad. norm)   ....   1.000e-05
   Converg. threshold II (energy diff.) ....   1.000e-08
   Grad. Scal. Fac. for Micro threshold ....   0.100
   Minimum threshold for Micro iter.    ....   0.010
   NR start threshold (gradient norm)   ....   0.001
   Initial trust radius                 ....   0.400
   Minimum AH scaling param. (alpha)    ....   1.000
   Maximum AH scaling param. (alpha)    .... 1000.000
   Orbital update algorithm             .... Taylor
   White noise on init. David. guess    .... on
   Maximum white noise                  ....   0.010
   Quad. conv. algorithm                .... NR
 SOSCF                  CNVSOSCF        .... on
   Start iteration      SOSCFMaxIt      ....   150
   Startup grad/error   SOSCFStart      ....  0.003300
 Level Shifting         CNVShift        .... on
   Level shift para.    LevelShift      ....    0.2500
   Turn off err/grad.   ShiftErr        ....    0.0010
 Zerner damping         CNVZerner       .... off
 Static damping         CNVDamp         .... on
   Fraction old density DampFac         ....    0.7000
   Max. Damping (<1)    DampMax         ....    0.9800
   Min. Damping (>=0)   DampMin         ....    0.0000
   Turn off err/grad.   DampErr         ....    0.1000
 Fernandez-Rico         CNVRico         .... off

SCF Procedure:
 Maximum # iterations   MaxIter         ....   800
 SCF integral mode      SCFMode         .... Direct
   Integral package                     .... SHARK and LIBINT hybrid scheme
 Reset frequency        DirectResetFreq ....    20
 Integral Threshold     Thresh          ....  2.500e-11 Eh
 Primitive CutOff       TCut            ....  2.500e-12 Eh

Convergence Tolerance:
 Convergence Check Mode ConvCheckMode   .... Total+1el-Energy
 Convergence forced     ConvForced      .... 0
 Energy Change          TolE            ....  1.000e-08 Eh
 1-El. energy change                    ....  1.000e-05 Eh
 Orbital Gradient       TolG            ....  1.000e-05
 Orbital Rotation angle TolX            ....  1.000e-05
 DIIS Error             TolErr          ....  5.000e-07


Diagonalization of the overlap matrix:
Smallest eigenvalue                        ... 6.053e-06
Time for diagonalization                   ...    0.239 sec
Threshold for overlap eigenvalues          ... 1.000e-08
Number of eigenvalues below threshold      ... 0
Time for construction of square roots      ...    0.137 sec
Total time needed                          ...    0.383 sec

Time for model grid setup =    0.339 sec

------------------------------
INITIAL GUESS: MODEL POTENTIAL
------------------------------
Loading Hartree-Fock densities                     ... done
Calculating cut-offs                               ... done
Initializing the effective Hamiltonian             ... done
Setting up the integral package (SHARK)            ... done
Starting the Coulomb interaction                   ... done (   0.6 sec)
Reading the grid                                   ... done
Mapping shells                                     ... done
Starting the XC term evaluation                    ... done (   0.2 sec)
  promolecular density results
     # of electrons  =    181.986196990
     EX              =   -155.875843572
     EC              =     -6.181030048
     EX+EC           =   -162.056873619
Transforming the Hamiltonian                       ... done (   0.4 sec)
Diagonalizing the Hamiltonian                      ... done (   0.2 sec)
Back transforming the eigenvectors                 ... done (   0.0 sec)
Now organizing SCF variables                       ... done
                      ------------------
                      INITIAL GUESS DONE (   2.2 sec)
                      ------------------
-------------------
DFT GRID GENERATION
-------------------

General Integration Accuracy     IntAcc      ... 4.388
Radial Grid Type                 RadialGrid  ... OptM3 with GC (2021)
Angular Grid (max. ang.)         AngularGrid ... 4 (Lebedev-302)
Angular grid pruning method      GridPruning ... 4 (adaptive)
Weight generation scheme         WeightScheme... Becke
Basis function cutoff            BFCut       ... 1.0000e-11
Integration weight cutoff        WCut        ... 1.0000e-14
Angular grids for H and He will be reduced by one unit
Partially contracted basis set               ... off
Rotationally invariant grid construction     ... off

Total number of grid points                  ...   203325
Total number of batches                      ...     3198
Average number of points per batch           ...       63
Average number of grid points per atom       ...     4841
Time for grid setup =    1.235 sec

--------------------
COSX GRID GENERATION
--------------------

GRIDX 1
-------
General Integration Accuracy     IntAcc      ... 3.816
Radial Grid Type                 RadialGrid  ... OptM3 with GC (2021)
Angular Grid (max. ang.)         AngularGrid ... 1 (Lebedev-50)
Angular grid pruning method      GridPruning ... 4 (adaptive)
Weight generation scheme         WeightScheme... Becke
Basis function cutoff            BFCut       ... 1.0000e-11
Integration weight cutoff        WCut        ... 1.0000e-14
Angular grids for H and He will be reduced by one unit
Partially contracted basis set               ... on
Rotationally invariant grid construction     ... off

Total number of grid points                  ...    25724
Total number of batches                      ...      422
Average number of points per batch           ...       60
Average number of grid points per atom       ...      612
UseSFitting                                  ... on

GRIDX 2
-------
General Integration Accuracy     IntAcc      ... 4.020
Radial Grid Type                 RadialGrid  ... OptM3 with GC (2021)
Angular Grid (max. ang.)         AngularGrid ... 2 (Lebedev-110)
Angular grid pruning method      GridPruning ... 4 (adaptive)
Weight generation scheme         WeightScheme... Becke
Basis function cutoff            BFCut       ... 1.0000e-11
Integration weight cutoff        WCut        ... 1.0000e-14
Angular grids for H and He will be reduced by one unit
Partially contracted basis set               ... on
Rotationally invariant grid construction     ... off

Total number of grid points                  ...    56141
Total number of batches                      ...      896
Average number of points per batch           ...       62
Average number of grid points per atom       ...     1337
UseSFitting                                  ... on

GRIDX 3
-------
General Integration Accuracy     IntAcc      ... 4.338
Radial Grid Type                 RadialGrid  ... OptM3 with GC (2021)
Angular Grid (max. ang.)         AngularGrid ... 3 (Lebedev-194)
Angular grid pruning method      GridPruning ... 4 (adaptive)
Weight generation scheme         WeightScheme... Becke
Basis function cutoff            BFCut       ... 1.0000e-11
Integration weight cutoff        WCut        ... 1.0000e-14
Angular grids for H and He will be reduced by one unit
Partially contracted basis set               ... on
Rotationally invariant grid construction     ... off

Total number of grid points                  ...   122813
Total number of batches                      ...     1937
Average number of points per batch           ...       63
Average number of grid points per atom       ...     2924
UseSFitting                                  ... on

Time for X-Grid setup             =    2.412 sec


--------------------
CPCM SOLVATION MODEL
--------------------
CPCM parameters:
  Epsilon                                         ...      47.2000
  Refrac                                          ...       1.4790
  Rsolv                                           ...       1.3000
  Surface type                                    ... GAUSSIAN VDW
  Epsilon function type                           ...         CPCM
Radii:
 Radius for C  used is    3.8550 Bohr (=   2.0400 Ang.)
 Radius for N  used is    3.5149 Bohr (=   1.8600 Ang.)
 Radius for O  used is    3.4469 Bohr (=   1.8240 Ang.)
 Radius for H  used is    2.4944 Bohr (=   1.3200 Ang.)
 Radius for F  used is    3.3335 Bohr (=   1.7640 Ang.)
Calculating surface                               ...        done! (  0.0s)
GEPOL surface points                              ...         2128
GEPOL Volume                                      ...    2590.7091
GEPOL Surface-area                                ...    1281.6061
Calculating surface distance matrix               ...        done! (  0.1s)
Performing Cholesky decomposition & store         ...        done! (  0.3s)
Overall time for CPCM initialization              ...                 0.5s
--------------
SCF ITERATIONS
--------------
ITER       Energy         Delta-E        Max-DP      RMS-DP      [F,P]     Damp
               ***  Starting incremental Fock matrix formation  ***
  0  -1241.9523186010   0.000000000000 0.44300475  0.00127442  0.2653783 0.7000
  1  -1242.1939617934  -0.241643192356 0.37060493  0.00113934  0.1067586 0.7000
                               ***Turning on DIIS***
  2  -1242.2869085160  -0.092946722566 0.43340613  0.00189849  0.0338510 0.0000
  3  -1242.4455152098  -0.158606693786 0.32638379  0.00092160  0.0575752 0.0000
  4  -1242.4727564938  -0.027241284088 0.06040241  0.00027739  0.0153462 0.0000
  5  -1242.4750297777  -0.002273283893 0.04622234  0.00010643  0.0038884 0.0000
                      *** Initiating the SOSCF procedure ***
                           *** Shutting down DIIS ***
                      *** Re-Reading the Fockian *** 
                      *** Removing any level shift *** 
ITER      Energy       Delta-E        Grad      Rot      Max-DP    RMS-DP
  6  -1242.47513017  -0.0001003904  0.000312  0.000312  0.009496  0.000027
               *** Restarting incremental Fock matrix formation ***
  7  -1242.47514000  -0.0000098286  0.000192  0.000863  0.002843  0.000021
  8  -1242.47513742   0.0000025736  0.000510  0.000832  0.001683  0.000009
  9  -1242.47514327  -0.0000058464  0.000038  0.000125  0.000824  0.000005
 10  -1242.47514321   0.0000000578  0.000046  0.000074  0.000281  0.000001
 11  -1242.47514335  -0.0000001402  0.000005  0.000015  0.000486  0.000002
 12  -1242.47514337  -0.0000000144  0.000008  0.000015  0.000151  0.000001
                  ***Gradient check signals convergence***
              ***Rediagonalizing the Fockian in SOSCF/NRSCF***

               *****************************************************
               *                     SUCCESS                       *
               *           SCF CONVERGED AFTER  13 CYCLES          *
               *****************************************************

Old exchange energy                            =    -39.644291033 Eh
New exchange energy                            =    -39.644318165 Eh
Exchange energy change after final integration =     -0.000027132 Eh
Total energy after final integration           =  -1242.475170439 Eh
Final COS-X integration done in                =    16.655 sec

----------------
TOTAL SCF ENERGY
----------------

Total Energy       :        -1242.47517044 Eh          -33809.46823 eV

Components:
Nuclear Repulsion  :         2395.86411912 Eh           65194.77712 eV
Electronic Energy  :        -3638.33928956 Eh          -99004.24535 eV
One Electron Energy:        -6463.85963154 Eh         -175890.56268 eV
Two Electron Energy:         2825.52034198 Eh           76886.31733 eV
Max COSX asymmetry :            0.00000251 Eh               0.00007 eV
CPCM Dielectric    :           -0.06852198 Eh              -1.86458 eV

Virial components:
Potential Energy   :        -2479.26451660 Eh          -67464.21731 eV
Kinetic Energy     :         1236.78934617 Eh           33654.74908 eV
Virial Ratio       :            2.00459725


DFT components:
N(Alpha)           :       91.000225648844 electrons
N(Beta)            :       91.000225648844 electrons
N(Total)           :      182.000451297688 electrons
E(X)               :     -118.768002888158 Eh       
E(C)               :       -6.172816407953 Eh       
E(XC)              :     -124.940819296111 Eh       
DFET-embed. en.    :        0.000000000000 Eh       
CPCM Solvation Model Properties:
Surface-charge          :           -0.02806552
Charge-correction       :           -0.00046618 Eh              -0.01269 eV
Free-energy (cav+disp)  :  This term is not implemented in the current solvation scheme

---------------
SCF CONVERGENCE
---------------

  Last Energy change         ...    5.9227e-08  Tolerance :   1.0000e-08
  Last MAX-Density change    ...    2.7756e-15  Tolerance :   1.0000e-07
  Last RMS-Density change    ...    1.5669e-17  Tolerance :   5.0000e-09
  Last Orbital Gradient      ...    2.0733e-06  Tolerance :   1.0000e-05
  Last Orbital Rotation      ...    6.5031e-06  Tolerance :   1.0000e-05

             **** THE GBW FILE WAS UPDATED (IM_F/IM_F.gbw) ****
             **** DENSITY IM_F/IM_F.scfp WAS UPDATED ****
             **** ENERGY FILE WAS UPDATED (IM_F/IM_F.en.tmp) ****
             **** THE GBW FILE WAS UPDATED (IM_F/IM_F.gbw) ****
             **** DENSITY IM_F/IM_F.scfp WAS UPDATED ****
----------------
ORBITAL ENERGIES
----------------

  NO   OCC          E(Eh)            E(eV) 
   0   2.0000     -24.783457      -674.3922 
   1   2.0000     -19.263488      -524.1862 
   2   2.0000     -19.249722      -523.8116 
   3   2.0000     -19.203748      -522.5606 
   4   2.0000     -19.177616      -521.8495 
   5   2.0000     -19.174262      -521.7582 
   6   2.0000     -14.556763      -396.1096 
   7   2.0000     -14.509962      -394.8361 
   8   2.0000     -10.368922      -282.1527 
   9   2.0000     -10.313541      -280.6457 
  10   2.0000     -10.312798      -280.6255 
  11   2.0000     -10.308642      -280.5124 
  12   2.0000     -10.306683      -280.4591 
  13   2.0000     -10.293287      -280.0946 
  14   2.0000     -10.279244      -279.7124 
  15   2.0000     -10.273982      -279.5693 
  16   2.0000     -10.272803      -279.5372 
  17   2.0000     -10.270746      -279.4812 
  18   2.0000     -10.267973      -279.4058 
  19   2.0000     -10.266192      -279.3573 
  20   2.0000     -10.244008      -278.7536 
  21   2.0000     -10.231951      -278.4255 
  22   2.0000     -10.231168      -278.4042 
  23   2.0000     -10.229156      -278.3495 
  24   2.0000     -10.223989      -278.2089 
  25   2.0000      -1.265103       -34.4252 
  26   2.0000      -1.188321       -32.3359 
  27   2.0000      -1.158098       -31.5134 
  28   2.0000      -1.112631       -30.2762 
  29   2.0000      -1.079988       -29.3880 
  30   2.0000      -1.060176       -28.8489 
  31   2.0000      -1.010157       -27.4878 
  32   2.0000      -0.903838       -24.5947 
  33   2.0000      -0.886243       -24.1159 
  34   2.0000      -0.853733       -23.2313 
  35   2.0000      -0.838624       -22.8201 
  36   2.0000      -0.817278       -22.2393 
  37   2.0000      -0.791391       -21.5348 
  38   2.0000      -0.776694       -21.1349 
  39   2.0000      -0.755516       -20.5586 
  40   2.0000      -0.729723       -19.8568 
  41   2.0000      -0.711105       -19.3502 
  42   2.0000      -0.709626       -19.3099 
  43   2.0000      -0.677750       -18.4425 
  44   2.0000      -0.635276       -17.2868 
  45   2.0000      -0.617159       -16.7938 
  46   2.0000      -0.609863       -16.5952 
  47   2.0000      -0.601307       -16.3624 
  48   2.0000      -0.575443       -15.6586 
  49   2.0000      -0.565547       -15.3893 
  50   2.0000      -0.557404       -15.1677 
  51   2.0000      -0.554643       -15.0926 
  52   2.0000      -0.543494       -14.7892 
  53   2.0000      -0.537666       -14.6306 
  54   2.0000      -0.526542       -14.3279 
  55   2.0000      -0.515381       -14.0242 
  56   2.0000      -0.512230       -13.9385 
  57   2.0000      -0.505250       -13.7486 
  58   2.0000      -0.503254       -13.6942 
  59   2.0000      -0.494814       -13.4646 
  60   2.0000      -0.490363       -13.3434 
  61   2.0000      -0.483395       -13.1538 
  62   2.0000      -0.481705       -13.1079 
  63   2.0000      -0.473569       -12.8865 
  64   2.0000      -0.462847       -12.5947 
  65   2.0000      -0.459592       -12.5061 
  66   2.0000      -0.451221       -12.2784 
  67   2.0000      -0.449304       -12.2262 
  68   2.0000      -0.438439       -11.9305 
  69   2.0000      -0.430036       -11.7019 
  70   2.0000      -0.425551       -11.5798 
  71   2.0000      -0.417130       -11.3507 
  72   2.0000      -0.410994       -11.1837 
  73   2.0000      -0.407631       -11.0922 
  74   2.0000      -0.396315       -10.7843 
  75   2.0000      -0.389466       -10.5979 
  76   2.0000      -0.382424       -10.4063 
  77   2.0000      -0.373822       -10.1722 
  78   2.0000      -0.367899       -10.0110 
  79   2.0000      -0.346854        -9.4384 
  80   2.0000      -0.342979        -9.3329 
  81   2.0000      -0.340142        -9.2557 
  82   2.0000      -0.330474        -8.9927 
  83   2.0000      -0.320119        -8.7109 
  84   2.0000      -0.307697        -8.3729 
  85   2.0000      -0.298150        -8.1131 
  86   2.0000      -0.286789        -7.8039 
  87   2.0000      -0.268266        -7.2999 
  88   2.0000      -0.265881        -7.2350 
  89   2.0000      -0.240604        -6.5472 
  90   2.0000      -0.208859        -5.6833 
  91   0.0000      -0.083678        -2.2770 
  92   0.0000      -0.046427        -1.2633 
  93   0.0000      -0.017259        -0.4696 
  94   0.0000      -0.001676        -0.0456 
  95   0.0000       0.007098         0.1931 
  96   0.0000       0.013115         0.3569 
  97   0.0000       0.044248         1.2040 
  98   0.0000       0.060405         1.6437 
  99   0.0000       0.064155         1.7457 
 100   0.0000       0.067162         1.8276 
 101   0.0000       0.077984         2.1221 
 102   0.0000       0.083994         2.2856 
 103   0.0000       0.089972         2.4483 
 104   0.0000       0.094832         2.5805 
 105   0.0000       0.096836         2.6350 
 106   0.0000       0.100196         2.7265 
 107   0.0000       0.105672         2.8755 
 108   0.0000       0.109999         2.9932 
 109   0.0000       0.117529         3.1981 
 110   0.0000       0.121268         3.2999 
 111   0.0000       0.123263         3.3542 
 112   0.0000       0.128665         3.5011 
 113   0.0000       0.132702         3.6110 
 114   0.0000       0.134713         3.6657 
 115   0.0000       0.142034         3.8649 
 116   0.0000       0.146267         3.9801 
 117   0.0000       0.151794         4.1305 
 118   0.0000       0.154203         4.1961 
 119   0.0000       0.159748         4.3470 
 120   0.0000       0.161899         4.4055 
 121   0.0000       0.170456         4.6383 
 122   0.0000       0.182836         4.9752 
 123   0.0000       0.193965         5.2781 
 124   0.0000       0.197132         5.3642 
 125   0.0000       0.202363         5.5066 
 126   0.0000       0.204167         5.5557 
 127   0.0000       0.210927         5.7396 
 128   0.0000       0.215252         5.8573 
 129   0.0000       0.215707         5.8697 
 130   0.0000       0.220846         6.0095 
 131   0.0000       0.223219         6.0741 
 132   0.0000       0.225010         6.1228 
 133   0.0000       0.229367         6.2414 
 134   0.0000       0.235947         6.4204 
 135   0.0000       0.237030         6.4499 
 136   0.0000       0.243104         6.6152 
 137   0.0000       0.247766         6.7421 
 138   0.0000       0.250572         6.8184 
 139   0.0000       0.250586         6.8188 
 140   0.0000       0.258596         7.0368 
 141   0.0000       0.261838         7.1250 
 142   0.0000       0.264475         7.1967 
 143   0.0000       0.269828         7.3424 
 144   0.0000       0.278700         7.5838 
 145   0.0000       0.280495         7.6326 
 146   0.0000       0.287519         7.8238 
 147   0.0000       0.292475         7.9586 
 148   0.0000       0.299317         8.1448 
 149   0.0000       0.303395         8.2558 
 150   0.0000       0.306347         8.3361 
 151   0.0000       0.315772         8.5926 
 152   0.0000       0.317540         8.6407 
 153   0.0000       0.321526         8.7492 
 154   0.0000       0.325196         8.8490 
 155   0.0000       0.331129         9.0105 
 156   0.0000       0.333021         9.0620 
 157   0.0000       0.334814         9.1108 
 158   0.0000       0.338604         9.2139 
 159   0.0000       0.344668         9.3789 
 160   0.0000       0.351827         9.5737 
 161   0.0000       0.359734         9.7889 
 162   0.0000       0.364256         9.9119 
 163   0.0000       0.369828        10.0635 
 164   0.0000       0.370988        10.0951 
 165   0.0000       0.373119        10.1531 
 166   0.0000       0.384043        10.4503 
 167   0.0000       0.388245        10.5647 
 168   0.0000       0.391029        10.6404 
 169   0.0000       0.394624        10.7383 
 170   0.0000       0.398872        10.8539 
 171   0.0000       0.404004        10.9935 
 172   0.0000       0.408078        11.1044 
 173   0.0000       0.411045        11.1851 
 174   0.0000       0.414027        11.2662 
 175   0.0000       0.419003        11.4016 
 176   0.0000       0.420142        11.4326 
 177   0.0000       0.424802        11.5594 
 178   0.0000       0.426732        11.6120 
 179   0.0000       0.428606        11.6630 
 180   0.0000       0.429701        11.6928 
 181   0.0000       0.439990        11.9727 
 182   0.0000       0.446240        12.1428 
 183   0.0000       0.449977        12.2445 
 184   0.0000       0.451544        12.2871 
 185   0.0000       0.456526        12.4227 
 186   0.0000       0.458368        12.4728 
 187   0.0000       0.461563        12.5598 
 188   0.0000       0.463170        12.6035 
 189   0.0000       0.465245        12.6600 
 190   0.0000       0.470199        12.7948 
 191   0.0000       0.474245        12.9049 
 192   0.0000       0.477049        12.9812 
 193   0.0000       0.482364        13.1258 
 194   0.0000       0.483721        13.1627 
 195   0.0000       0.488707        13.2984 
 196   0.0000       0.489534        13.3209 
 197   0.0000       0.493809        13.4372 
 198   0.0000       0.500556        13.6208 
 199   0.0000       0.504339        13.7238 
 200   0.0000       0.509778        13.8718 
 201   0.0000       0.512672        13.9505 
 202   0.0000       0.522968        14.2307 
 203   0.0000       0.524807        14.2807 
 204   0.0000       0.529447        14.4070 
 205   0.0000       0.532333        14.4855 
 206   0.0000       0.540564        14.7095 
 207   0.0000       0.550160        14.9706 
 208   0.0000       0.554690        15.0939 
 209   0.0000       0.563787        15.3414 
 210   0.0000       0.569623        15.5002 
 211   0.0000       0.571224        15.5438 
 212   0.0000       0.577097        15.7036 
 213   0.0000       0.579234        15.7618 
 214   0.0000       0.590205        16.0603 
 215   0.0000       0.599411        16.3108 
 216   0.0000       0.608339        16.5537 
 217   0.0000       0.612442        16.6654 
 218   0.0000       0.614352        16.7174 
 219   0.0000       0.629470        17.1288 
 220   0.0000       0.634165        17.2565 
 221   0.0000       0.638456        17.3733 
 222   0.0000       0.648872        17.6567 
 223   0.0000       0.652478        17.7548 
 224   0.0000       0.659494        17.9457 
 225   0.0000       0.661033        17.9876 
 226   0.0000       0.666995        18.1499 
 227   0.0000       0.670955        18.2576 
 228   0.0000       0.676746        18.4152 
 229   0.0000       0.681327        18.5399 
 230   0.0000       0.683698        18.6044 
 231   0.0000       0.687324        18.7030 
 232   0.0000       0.700517        19.0620 
 233   0.0000       0.703321        19.1383 
 234   0.0000       0.711249        19.3541 
 235   0.0000       0.716452        19.4957 
 236   0.0000       0.718723        19.5574 
 237   0.0000       0.726491        19.7688 
 238   0.0000       0.735848        20.0234 
 239   0.0000       0.737287        20.0626 
 240   0.0000       0.744010        20.2455 
 241   0.0000       0.753762        20.5109 
 242   0.0000       0.760878        20.7046 
 243   0.0000       0.764292        20.7974 
 244   0.0000       0.765244        20.8233 
 245   0.0000       0.773922        21.0595 
 246   0.0000       0.777093        21.1458 
 247   0.0000       0.785136        21.3646 
 248   0.0000       0.788675        21.4609 
 249   0.0000       0.791189        21.5293 
 250   0.0000       0.802683        21.8421 
 251   0.0000       0.807314        21.9681 
 252   0.0000       0.813483        22.1360 
 253   0.0000       0.817622        22.2486 
 254   0.0000       0.827007        22.5040 
 255   0.0000       0.833484        22.6802 
 256   0.0000       0.834988        22.7212 
 257   0.0000       0.846539        23.0355 
 258   0.0000       0.854004        23.2386 
 259   0.0000       0.858356        23.3570 
 260   0.0000       0.864101        23.5134 
 261   0.0000       0.864762        23.5314 
 262   0.0000       0.886258        24.1163 
 263   0.0000       0.889531        24.2054 
 264   0.0000       0.893609        24.3163 
 265   0.0000       0.900903        24.5148 
 266   0.0000       0.906518        24.6676 
 267   0.0000       0.911619        24.8064 
 268   0.0000       0.918736        25.0001 
 269   0.0000       0.927714        25.2444 
 270   0.0000       0.937882        25.5211 
 271   0.0000       0.945304        25.7230 
 272   0.0000       0.952897        25.9296 
 273   0.0000       0.957549        26.0562 
 274   0.0000       0.975557        26.5463 
 275   0.0000       0.977820        26.6078 
 276   0.0000       0.979363        26.6498 
 277   0.0000       0.988804        26.9067 
 278   0.0000       0.992261        27.0008 
 279   0.0000       1.004681        27.3388 
 280   0.0000       1.011334        27.5198 
 281   0.0000       1.015093        27.6221 
 282   0.0000       1.020917        27.7806 
 283   0.0000       1.033001        28.1094 
 284   0.0000       1.041436        28.3389 
 285   0.0000       1.044537        28.4233 
 286   0.0000       1.054790        28.7023 
 287   0.0000       1.058499        28.8032 
 288   0.0000       1.063191        28.9309 
 289   0.0000       1.077369        29.3167 
 290   0.0000       1.079653        29.3789 
 291   0.0000       1.085549        29.5393 
 292   0.0000       1.088274        29.6134 
 293   0.0000       1.106653        30.1136 
 294   0.0000       1.109105        30.1803 
 295   0.0000       1.120936        30.5022 
 296   0.0000       1.123941        30.5840 
 297   0.0000       1.133222        30.8365 
 298   0.0000       1.139941        31.0194 
 299   0.0000       1.147655        31.2293 
 300   0.0000       1.149371        31.2760 
 301   0.0000       1.153951        31.4006 
 302   0.0000       1.162545        31.6345 
 303   0.0000       1.169725        31.8298 
 304   0.0000       1.176026        32.0013 
 305   0.0000       1.189337        32.3635 
 306   0.0000       1.195786        32.5390 
 307   0.0000       1.205979        32.8164 
 308   0.0000       1.212877        33.0041 
 309   0.0000       1.217493        33.1297 
 310   0.0000       1.225138        33.3377 
 311   0.0000       1.232402        33.5354 
 312   0.0000       1.233629        33.5688 
 313   0.0000       1.249451        33.9993 
 314   0.0000       1.252433        34.0804 
 315   0.0000       1.261176        34.3183 
 316   0.0000       1.265370        34.4325 
 317   0.0000       1.276901        34.7462 
 318   0.0000       1.282129        34.8885 
 319   0.0000       1.289923        35.1006 
 320   0.0000       1.297831        35.3158 
 321   0.0000       1.298324        35.3292 
 322   0.0000       1.315538        35.7976 
 323   0.0000       1.326619        36.0991 
 324   0.0000       1.331799        36.2401 
 325   0.0000       1.340376        36.4735 
 326   0.0000       1.352155        36.7940 
 327   0.0000       1.360260        37.0146 
 328   0.0000       1.369495        37.2659 
 329   0.0000       1.377105        37.4729 
 330   0.0000       1.379487        37.5377 
 331   0.0000       1.385643        37.7053 
 332   0.0000       1.402430        38.1621 
 333   0.0000       1.411648        38.4129 
 334   0.0000       1.419780        38.6342 
 335   0.0000       1.432408        38.9778 
 336   0.0000       1.443778        39.2872 
 337   0.0000       1.452867        39.5345 
 338   0.0000       1.457625        39.6640 
 339   0.0000       1.463293        39.8182 
 340   0.0000       1.468957        39.9724 
 341   0.0000       1.481530        40.3145 
 342   0.0000       1.486311        40.4446 
 343   0.0000       1.493945        40.6523 
 344   0.0000       1.499988        40.8167 
 345   0.0000       1.502443        40.8835 
[...]
 14:    101.09   0.002191   11.07  0.006765  ( 0.045117 -0.031918  0.060915)
 15:    109.61   0.000446    2.25  0.001270  (-0.020775  0.013081 -0.025827)
 16:    138.23   0.000609    3.08  0.001374  (-0.014200 -0.028016 -0.019684)
 17:    142.83   0.000737    3.73  0.001611  (-0.007719  0.029915  0.025627)
 18:    164.15   0.000192    0.97  0.000366  (-0.001036  0.016308  0.009938)
 19:    175.38   0.002881   14.56  0.005127  ( 0.031874  0.032917 -0.055023)
 20:    192.51   0.000005    0.02  0.000008  ( 0.002489 -0.001127  0.000346)
 21:    193.41   0.003183   16.08  0.005135  (-0.039803  0.056283  0.019582)
 22:    224.89   0.002485   12.56  0.003449  (-0.027451 -0.041979  0.030544)
 23:    251.13   0.000359    1.82  0.000446  ( 0.001184 -0.017089  0.012369)
 24:    254.01   0.002121   10.72  0.002606  (-0.016840  0.047405  0.008655)
 25:    276.46   0.004472   22.60  0.005048  (-0.021126  0.060822  0.030040)
 26:    296.42   0.000668    3.38  0.000703  (-0.016042 -0.002466  0.020976)
 27:    310.31   0.000465    2.35  0.000468  (-0.004575 -0.021135 -0.000397)
 28:    314.11   0.000246    1.24  0.000245  ( 0.000543  0.014225  0.006479)
 29:    360.67   0.002350   11.88  0.002034  ( 0.000273 -0.018718 -0.041025)
 30:    372.10   0.002027   10.24  0.001700  ( 0.013064 -0.018524 -0.034434)
 31:    401.16   0.002436   12.31  0.001895  (-0.029923 -0.024920 -0.019457)
 32:    427.58   0.000649    3.28  0.000474  (-0.005901 -0.018926 -0.008978)
 33:    465.42   0.000334    1.69  0.000224  ( 0.002554 -0.010455  0.010408)
 34:    477.29   0.000176    0.89  0.000115  ( 0.004737  0.009482 -0.001570)
 35:    503.06   0.001081    5.46  0.000670  ( 0.019309 -0.010928 -0.013345)
 36:    548.89   0.004700   23.75  0.002672  (-0.005224  0.022901 -0.046049)
 37:    575.22   0.003571   18.05  0.001937  (-0.024327 -0.007500  0.035905)
 38:    581.74   0.003084   15.59  0.001654  ( 0.004867 -0.039208 -0.009668)
 39:    594.83   0.005302   26.79  0.002782  (-0.021278 -0.041085  0.025316)
 40:    607.16   0.002516   12.71  0.001293  (-0.027857 -0.001835  0.022664)
 41:    652.72   0.001830    9.25  0.000875  (-0.014251  0.014268 -0.021642)
 42:    660.02   0.001520    7.68  0.000718  ( 0.000448  0.026667 -0.002669)
 43:    680.32   0.001046    5.29  0.000480  ( 0.005166  0.017441 -0.012204)
 44:    691.76   0.009871   49.88  0.004453  ( 0.056621 -0.001105  0.035296)
 45:    715.25   0.029487  149.02  0.012865  ( 0.040618 -0.077116  0.072585)
 46:    742.41   0.004866   24.59  0.002045  ( 0.013674  0.023774  0.035961)
 47:    756.86   0.000710    3.59  0.000293  (-0.011046 -0.001244 -0.013005)
 48:    769.67   0.022997  116.22  0.009324  (-0.038005  0.021568 -0.086109)
 49:    785.10   0.003406   17.21  0.001354  (-0.023411 -0.004883 -0.027962)
 50:    808.42   0.001612    8.15  0.000622  ( 0.010520 -0.019998  0.010571)
 51:    811.03   0.001321    6.68  0.000508  ( 0.011222 -0.014059 -0.013596)
 52:    837.04   0.005352   27.05  0.001995  ( 0.005905  0.008396 -0.043474)
 53:    856.53   0.003964   20.03  0.001444  ( 0.012047 -0.034923 -0.008915)
 54:    874.46   0.000203    1.02  0.000072  (-0.007546  0.001017 -0.003790)
 55:    894.55   0.000296    1.50  0.000103  (-0.007397  0.002411 -0.006545)
 56:    925.08   0.005393   27.26  0.001819  (-0.041631 -0.009289  0.000128)
 57:    931.69   0.012474   63.04  0.004178  (-0.047845 -0.035586  0.024951)
 58:    960.10   0.000326    1.65  0.000106  (-0.003412 -0.006939  0.006790)
 59:    990.04   0.000189    0.95  0.000060  (-0.006210 -0.004004 -0.002223)
 60:    998.05   0.000498    2.51  0.000156  ( 0.007709  0.005829  0.007885)
 61:   1036.21   0.003987   20.15  0.001201  ( 0.014842  0.013510 -0.028250)
 62:   1042.55   0.005218   26.37  0.001562  ( 0.007999  0.016968  0.034785)
 63:   1051.86   0.001334    6.74  0.000396  (-0.002775 -0.019695 -0.000220)
 64:   1064.32   0.005979   30.21  0.001753  (-0.024932 -0.002897 -0.033510)
 65:   1070.96   0.013819   69.84  0.004027  (-0.057850 -0.016468  0.020220)
 66:   1082.62   0.016021   80.96  0.004618  ( 0.040299  0.049147  0.024052)
 67:   1084.45   0.001797    9.08  0.000517  (-0.007868  0.021256 -0.001844)
 68:   1088.73   0.007606   38.44  0.002180  ( 0.042293  0.015653  0.012103)
 69:   1127.67   0.015710   79.39  0.004347  ( 0.053448  0.004078  0.038394)
 70:   1133.01   0.004132   20.88  0.001138  (-0.009039 -0.004415  0.032200)
 71:   1158.63   0.074481  376.40  0.020061  (-0.105721 -0.053953 -0.077283)
 72:   1169.43   0.000688    3.48  0.000184  ( 0.010436  0.008632 -0.000556)
 73:   1171.77   0.000114    0.57  0.000030  (-0.002113 -0.000159 -0.005077)
 74:   1174.08   0.001962    9.92  0.000522  ( 0.020659  0.007077 -0.006685)
 75:   1177.10   0.002555   12.91  0.000677  (-0.013853 -0.022031 -0.000160)
 76:   1197.45   0.008899   44.97  0.002319  ( 0.044117  0.012011  0.015116)
 77:   1208.20   0.003071   15.52  0.000793  ( 0.003861  0.014808  0.023644)
 78:   1212.24   0.001652    8.35  0.000425  (-0.003833  0.014472 -0.014183)
 79:   1230.76   0.002443   12.34  0.000619  (-0.013150  0.008944  0.019142)
 80:   1234.63   0.011757   59.42  0.002972  (-0.007573  0.052190  0.013809)
 81:   1257.21   0.032372  163.59  0.008035  (-0.049057  0.005939  0.074789)
 82:   1265.49   0.010023   50.65  0.002472  ( 0.012105  0.046422  0.013042)
 83:   1275.99   0.089770  453.66  0.021955  (-0.005012 -0.101735 -0.107609)
 84:   1286.99   0.006931   35.03  0.001681  (-0.027336 -0.022579 -0.020578)
 85:   1297.42   0.085541  432.29  0.020575  ( 0.056225  0.103990 -0.081239)
 86:   1314.96   0.027345  138.19  0.006489  ( 0.014306 -0.021450 -0.076319)
 87:   1323.01   0.059691  301.65  0.014079  ( 0.010803  0.062408 -0.100339)
 88:   1356.02   0.012225   61.78  0.002813  ( 0.032683 -0.008590 -0.040882)
 89:   1376.26   0.002417   12.21  0.000548  (-0.016696 -0.005322 -0.015524)
 90:   1388.79   0.007502   37.91  0.001686  (-0.022874 -0.033911  0.003537)
 91:   1420.24   0.016035   81.03  0.003523  ( 0.010777  0.053636  0.023029)
 92:   1421.70   0.007793   39.38  0.001711  ( 0.026466 -0.003956  0.031536)
 93:   1465.50   0.008547   43.19  0.001820  ( 0.017913  0.038611 -0.002880)
 94:   1465.63   0.002244   11.34  0.000478  ( 0.004583  0.016436  0.013663)
 95:   1470.58   0.015149   76.56  0.003215  ( 0.007913  0.026684  0.049397)
 96:   1472.64   0.002921   14.76  0.000619  ( 0.022776 -0.010010  0.000048)
 97:   1473.03   0.003095   15.64  0.000656  (-0.011015  0.004811 -0.022610)
 98:   1483.82   0.006227   31.47  0.001310  ( 0.004957  0.035295  0.006271)
 99:   1498.64   0.013292   67.17  0.002768  ( 0.024727  0.046312  0.003409)
100:   1529.95   0.013238   66.90  0.002700  (-0.036288 -0.036685  0.006127)
101:   1533.76   0.037641  190.22  0.007659  ( 0.038465  0.078585  0.001875)
102:   1535.61   0.011506   58.15  0.002338  (-0.013495  0.042123  0.019541)
103:   1638.06   0.070646  357.02  0.013459  (-0.067985 -0.092146  0.018592)
104:   1645.40   0.018730   94.66  0.003552  (-0.042775 -0.037609  0.017556)
105:   1653.65   0.023833  120.44  0.004498  (-0.032460 -0.057371  0.012350)
106:   1665.47   0.004152   20.98  0.000778  ( 0.002059 -0.023879 -0.014269)
107:   1697.25   0.020196  102.06  0.003713  (-0.031406  0.037202  0.036647)
108:   1788.90   0.109359  552.66  0.019077  ( 0.112948 -0.078741  0.010938)
109:   3040.06   0.012660   63.98  0.001300  (-0.030182 -0.017570  0.008941)
110:   3054.53   0.000591    2.99  0.000060  (-0.000612  0.005373  0.005577)
111:   3073.16   0.006093   30.79  0.000619  ( 0.007962  0.007590  0.022309)
112:   3111.79   0.007563   38.22  0.000758  (-0.021413  0.002000 -0.017205)
113:   3112.06   0.003251   16.43  0.000326  ( 0.000446 -0.005334  0.017244)
114:   3157.96   0.003487   17.62  0.000345  (-0.007737 -0.014077  0.009304)
115:   3167.55   0.003594   18.16  0.000354  ( 0.002306 -0.017785 -0.005699)
116:   3179.33   0.021484  108.57  0.002109  (-0.005317  0.043617  0.013343)
117:   3190.00   0.002071   10.47  0.000203  (-0.010602  0.008464  0.004307)
118:   3193.70   0.000476    2.41  0.000047  (-0.005609  0.002049  0.003296)
119:   3206.61   0.001639    8.28  0.000160  ( 0.007090 -0.008628 -0.005899)
120:   3218.43   0.002998   15.15  0.000291  (-0.002440 -0.016810 -0.001470)
121:   3222.72   0.000062    0.31  0.000006  ( 0.001939 -0.000263 -0.001475)
122:   3231.03   0.000484    2.44  0.000047  (-0.006425 -0.000927  0.002140)
123:   3239.08   0.000870    4.39  0.000084  ( 0.006914 -0.003950 -0.004513)
124:   3244.20   0.000789    3.99  0.000076  ( 0.007373  0.003844 -0.002603)
125:   3250.30   0.001278    6.46  0.000123  ( 0.009045  0.006335 -0.000890)

* The epsilon (eps) is given for a Dirac delta lineshape.
** The dipole moment derivative (T) already includes vibrational overlap.

The first frequency considered to be a vibration is 6
The total number of vibrations considered is 120


--------------------------
THERMOCHEMISTRY AT 298.15K
--------------------------

Temperature         ... 298.15 K
Pressure            ... 1.00 atm
Total Mass          ... 348.33 AMU

Throughout the following assumptions are being made:
  (1) The electronic state is orbitally nondegenerate
  (2) There are no thermally accessible electronically excited states
  (3) Hindered rotations indicated by low frequency modes are not
      treated as such but are treated as vibrations and this may
      cause some error
  (4) All equations used are the standard statistical mechanics
      equations for an ideal gas
  (5) All vibrations are strictly harmonic

freq.      26.73  E(vib)   ...       0.56 
freq.      39.05  E(vib)   ...       0.54 
freq.      51.88  E(vib)   ...       0.52 
freq.      58.75  E(vib)   ...       0.51 
freq.      69.57  E(vib)   ...       0.50 
freq.      80.02  E(vib)   ...       0.49 
freq.      88.07  E(vib)   ...       0.48 
freq.      95.67  E(vib)   ...       0.47 
freq.     101.09  E(vib)   ...       0.46 
freq.     109.61  E(vib)   ...       0.45 
freq.     138.23  E(vib)   ...       0.42 
freq.     142.83  E(vib)   ...       0.41 
freq.     164.15  E(vib)   ...       0.39 
freq.     175.38  E(vib)   ...       0.38 
freq.     192.51  E(vib)   ...       0.36 
freq.     193.41  E(vib)   ...       0.36 
freq.     224.89  E(vib)   ...       0.33 
freq.     251.13  E(vib)   ...       0.30 
freq.     254.01  E(vib)   ...       0.30 
freq.     276.46  E(vib)   ...       0.28 
freq.     296.42  E(vib)   ...       0.27 
freq.     310.31  E(vib)   ...       0.26 
freq.     314.11  E(vib)   ...       0.25 
freq.     360.67  E(vib)   ...       0.22 
freq.     372.10  E(vib)   ...       0.21 
freq.     401.16  E(vib)   ...       0.19 
freq.     427.58  E(vib)   ...       0.18 
freq.     465.42  E(vib)   ...       0.16 
freq.     477.29  E(vib)   ...       0.15 
freq.     503.06  E(vib)   ...       0.14 
freq.     548.89  E(vib)   ...       0.12 
freq.     575.22  E(vib)   ...       0.11 
freq.     581.74  E(vib)   ...       0.11 
freq.     594.83  E(vib)   ...       0.10 
freq.     607.16  E(vib)   ...       0.10 
freq.     652.72  E(vib)   ...       0.08 
freq.     660.02  E(vib)   ...       0.08 
freq.     680.32  E(vib)   ...       0.08 
freq.     691.76  E(vib)   ...       0.07 
freq.     715.25  E(vib)   ...       0.07 
freq.     742.41  E(vib)   ...       0.06 
freq.     756.86  E(vib)   ...       0.06 
freq.     769.67  E(vib)   ...       0.05 
freq.     785.10  E(vib)   ...       0.05 
freq.     808.42  E(vib)   ...       0.05 
freq.     811.03  E(vib)   ...       0.05 
freq.     837.04  E(vib)   ...       0.04 
freq.     856.53  E(vib)   ...       0.04 
freq.     874.46  E(vib)   ...       0.04 
freq.     894.55  E(vib)   ...       0.03 
freq.     925.08  E(vib)   ...       0.03 
freq.     931.69  E(vib)   ...       0.03 
freq.     960.10  E(vib)   ...       0.03 
freq.     990.04  E(vib)   ...       0.02 
freq.     998.05  E(vib)   ...       0.02 
freq.    1036.21  E(vib)   ...       0.02 
freq.    1042.55  E(vib)   ...       0.02 
freq.    1051.86  E(vib)   ...       0.02 
freq.    1064.32  E(vib)   ...       0.02 
freq.    1070.96  E(vib)   ...       0.02 
freq.    1082.62  E(vib)   ...       0.02 
freq.    1084.45  E(vib)   ...       0.02 
freq.    1088.73  E(vib)   ...       0.02 
freq.    1127.67  E(vib)   ...       0.01 
freq.    1133.01  E(vib)   ...       0.01 
freq.    1158.63  E(vib)   ...       0.01 
freq.    1169.43  E(vib)   ...       0.01 
freq.    1171.77  E(vib)   ...       0.01 
freq.    1174.08  E(vib)   ...       0.01 
freq.    1177.10  E(vib)   ...       0.01 
freq.    1197.45  E(vib)   ...       0.01 
freq.    1208.20  E(vib)   ...       0.01 
freq.    1212.24  E(vib)   ...       0.01 
freq.    1230.76  E(vib)   ...       0.01 
freq.    1234.63  E(vib)   ...       0.01 
freq.    1257.21  E(vib)   ...       0.01 
freq.    1265.49  E(vib)   ...       0.01 
freq.    1275.99  E(vib)   ...       0.01 
freq.    1286.99  E(vib)   ...       0.01 
freq.    1297.42  E(vib)   ...       0.01 
freq.    1314.96  E(vib)   ...       0.01 
freq.    1323.01  E(vib)   ...       0.01 
freq.    1356.02  E(vib)   ...       0.01 
freq.    1376.26  E(vib)   ...       0.01 
freq.    1388.79  E(vib)   ...       0.00 
freq.    1420.24  E(vib)   ...       0.00 
freq.    1421.70  E(vib)   ...       0.00 
freq.    1465.50  E(vib)   ...       0.00 
freq.    1465.63  E(vib)   ...       0.00 
freq.    1470.58  E(vib)   ...       0.00 
freq.    1472.64  E(vib)   ...       0.00 
freq.    1473.03  E(vib)   ...       0.00 
freq.    1483.82  E(vib)   ...       0.00 
freq.    1498.64  E(vib)   ...       0.00 
freq.    1529.95  E(vib)   ...       0.00 
freq.    1533.76  E(vib)   ...       0.00 
freq.    1535.61  E(vib)   ...       0.00 
freq.    1638.06  E(vib)   ...       0.00 
freq.    1645.40  E(vib)   ...       0.00 
freq.    1653.65  E(vib)   ...       0.00 
freq.    1665.47  E(vib)   ...       0.00 
freq.    1697.25  E(vib)   ...       0.00 
freq.    1788.90  E(vib)   ...       0.00 
freq.    3040.06  E(vib)   ...       0.00 
freq.    3054.53  E(vib)   ...       0.00 
freq.    3073.16  E(vib)   ...       0.00 
freq.    3111.79  E(vib)   ...       0.00 
freq.    3112.06  E(vib)   ...       0.00 
freq.    3157.96  E(vib)   ...       0.00 
freq.    3167.55  E(vib)   ...       0.00 
freq.    3179.33  E(vib)   ...       0.00 
freq.    3190.00  E(vib)   ...       0.00 
freq.    3193.70  E(vib)   ...       0.00 
freq.    3206.61  E(vib)   ...       0.00 
freq.    3218.43  E(vib)   ...       0.00 
freq.    3222.72  E(vib)   ...       0.00 
freq.    3231.03  E(vib)   ...       0.00 
freq.    3239.08  E(vib)   ...       0.00 
freq.    3244.20  E(vib)   ...       0.00 
freq.    3250.30  E(vib)   ...       0.00 

------------
INNER ENERGY
------------

The inner energy is: U= E(el) + E(ZPE) + E(vib) + E(rot) + E(trans)
    E(el)   - is the total energy from the electronic structure calculation
              = E(kin-el) + E(nuc-el) + E(el-el) + E(nuc-nuc)
    E(ZPE)  - the the zero temperature vibrational energy from the frequency calculation
    E(vib)  - the the finite temperature correction to E(ZPE) due to population
              of excited vibrational states
    E(rot)  - is the rotational thermal energy
    E(trans)- is the translational thermal energy

Summary of contributions to the inner energy U:
Electronic energy                ...  -1242.53056073 Eh
Zero point energy                ...      0.32696628 Eh     205.17 kcal/mol
Thermal vibrational correction   ...      0.01982342 Eh      12.44 kcal/mol
Thermal rotational correction    ...      0.00141627 Eh       0.89 kcal/mol
Thermal translational correction ...      0.00141627 Eh       0.89 kcal/mol
-----------------------------------------------------------------------
Total thermal energy                  -1242.18093849 Eh


Summary of corrections to the electronic energy:
(perhaps to be used in another calculation)
Total thermal correction                  0.02265597 Eh      14.22 kcal/mol
Non-thermal (ZPE) correction              0.32696628 Eh     205.17 kcal/mol
-----------------------------------------------------------------------
Total correction                          0.34962224 Eh     219.39 kcal/mol


--------
ENTHALPY
--------

The enthalpy is H = U + kB*T
                kB is Boltzmann's constant
Total free energy                 ...  -1242.18093849 Eh 
Thermal Enthalpy correction       ...      0.00094421 Eh       0.59 kcal/mol
-----------------------------------------------------------------------
Total Enthalpy                    ...  -1242.17999428 Eh


Note: Only C1 symmetry has been detected, increase convergence thresholds 
      if your molecule has a higher symmetry. Symmetry factor of 1.0 is   
      used for the rotational entropy correction. 
 

Note: Rotational entropy computed according to Herzberg 
Infrared and Raman Spectra, Chapter V,1, Van Nostrand Reinhold, 1945 
Point Group:  C1, Symmetry Number:   1  
Rotational constants in cm-1:     0.010565     0.006432     0.005785 

Vibrational entropy computed according to the QRRHO of S. Grimme
Chem.Eur.J. 2012 18 9955


-------
ENTROPY
-------

The entropy contributions are T*S = T*(S(el)+S(vib)+S(rot)+S(trans))
     S(el)   - electronic entropy
     S(vib)  - vibrational entropy
     S(rot)  - rotational entropy
     S(trans)- translational entropy
The entropies will be listed as multiplied by the temperature to get
units of energy

Electronic entropy                ...      0.00000000 Eh      0.00 kcal/mol
Vibrational entropy               ...      0.03544797 Eh     22.24 kcal/mol
Rotational entropy                ...      0.01647376 Eh     10.34 kcal/mol
Translational entropy             ...      0.02063872 Eh     12.95 kcal/mol
-----------------------------------------------------------------------
Final entropy term                ...      0.07256046 Eh     45.53 kcal/mol

In case the symmetry of your molecule has not been determined correctly
or in case you have a reason to use a different symmetry number we print 
out the resulting rotational entropy values for sn=1,12 :
 --------------------------------------------------------
|  sn= 1 | S(rot)=       0.01647376 Eh     10.34 kcal/mol|
|  sn= 2 | S(rot)=       0.01581931 Eh      9.93 kcal/mol|
|  sn= 3 | S(rot)=       0.01543647 Eh      9.69 kcal/mol|
|  sn= 4 | S(rot)=       0.01516485 Eh      9.52 kcal/mol|
|  sn= 5 | S(rot)=       0.01495416 Eh      9.38 kcal/mol|
|  sn= 6 | S(rot)=       0.01478202 Eh      9.28 kcal/mol|
|  sn= 7 | S(rot)=       0.01463647 Eh      9.18 kcal/mol|
|  sn= 8 | S(rot)=       0.01451039 Eh      9.11 kcal/mol|
|  sn= 9 | S(rot)=       0.01439919 Eh      9.04 kcal/mol|
|  sn=10 | S(rot)=       0.01429971 Eh      8.97 kcal/mol|
|  sn=11 | S(rot)=       0.01420972 Eh      8.92 kcal/mol|
|  sn=12 | S(rot)=       0.01412756 Eh      8.87 kcal/mol|
 --------------------------------------------------------


-------------------
GIBBS FREE ENERGY
-------------------

The Gibbs free energy is G = H - T*S

Total enthalpy                    ...  -1242.17999428 Eh 
Total entropy correction          ...     -0.07256046 Eh    -45.53 kcal/mol
-----------------------------------------------------------------------
Final Gibbs free energy         ...  -1242.25255474 Eh

For completeness - the Gibbs free energy minus the electronic energy
G-E(el)                           ...      0.27800600 Eh    174.45 kcal/mol


Timings for individual modules:

Sum of individual times         ...     4748.814 sec (=  79.147 min)
GTO integral calculation        ...       38.403 sec (=   0.640 min)   0.8 %
SCF iterations                  ...     1433.763 sec (=  23.896 min)  30.2 %
SCF Gradient evaluation         ...      375.385 sec (=   6.256 min)   7.9 %
Geometry relaxation             ...        1.727 sec (=   0.029 min)   0.0 %
Analytical frequency calculation...     2899.536 sec (=  48.326 min)  61.1 %
                             ****ORCA TERMINATED NORMALLY****
TOTAL RUN TIME: 0 days 1 hours 19 minutes 57 seconds 190 msec
