
                                 *****************
                                 * O   R   C   A *
                                 *****************

                                            #,                                       
                                            ###                                      
                                            ####                                     
                                            #####                                    
                                            ######                                   
                                           ########,                                 
                                     ,,################,,,,,                         
                               ,,#################################,,                 
                          ,,##########################################,,             
                       ,#########################################, ''#####,          
                    ,#############################################,,   '####,        
                  ,##################################################,,,,####,       
                ,###########''''           ''''###############################       
              ,#####''   ,,,,##########,,,,          '''####'''          '####       
            ,##' ,,,,###########################,,,                        '##       
           ' ,,###''''                  '''############,,,                           
         ,,##''                                '''############,,,,        ,,,,,,###''
      ,#''                                            '''#######################'''  
     '                                                          ''''####''''         
             ,#######,   #######,   ,#######,      ##                                
            ,#'     '#,  ##    ##  ,#'     '#,    #''#        ######   ,####,        
            ##       ##  ##   ,#'  ##            #'  '#       #        #'  '#        
            ##       ##  #######   ##           ,######,      #####,   #    #        
            '#,     ,#'  ##    ##  '#,     ,#' ,#      #,         ##   #,  ,#        
             '#######'   ##     ##  '#######'  #'      '#     #####' # '####'        



                  #######################################################
                  #                        -***-                        #
                  #          Department of theory and spectroscopy      #
                  #    Directorship and core code : Frank Neese         #
                  #        Max Planck Institute fuer Kohlenforschung    #
                  #                Kaiser Wilhelm Platz 1               #
                  #                 D-45470 Muelheim/Ruhr               #
                  #                      Germany                        #
                  #                                                     #
                  #                  All rights reserved                #
                  #                        -***-                        #
                  #######################################################


                         Program Version 5.0.4 -  RELEASE  -


 With contributions from (in alphabetic order):
   Daniel Aravena         : Magnetic Suceptibility
   Michael Atanasov       : Ab Initio Ligand Field Theory (pilot matlab implementation)
   Alexander A. Auer      : GIAO ZORA, VPT2 properties, NMR spectrum
   Ute Becker             : Parallelization
   Giovanni Bistoni       : ED, misc. LED, open-shell LED, HFLD
   Martin Brehm           : Molecular dynamics
   Dmytro Bykov           : SCF Hessian
   Vijay G. Chilkuri      : MRCI spin determinant printing, contributions to CSF-ICE
   Dipayan Datta          : RHF DLPNO-CCSD density
   Achintya Kumar Dutta   : EOM-CC, STEOM-CC
   Dmitry Ganyushin       : Spin-Orbit,Spin-Spin,Magnetic field MRCI
   Miquel Garcia          : C-PCM and meta-GGA Hessian, CC/C-PCM, Gaussian charge scheme
   Yang Guo               : DLPNO-NEVPT2, F12-NEVPT2, CIM, IAO-localization
   Andreas Hansen         : Spin unrestricted coupled pair/coupled cluster methods
   Benjamin Helmich-Paris : MC-RPA, TRAH-SCF, COSX integrals
   Lee Huntington         : MR-EOM, pCC
   Robert Izsak           : Overlap fitted RIJCOSX, COSX-SCS-MP3, EOM
   Marcus Kettner         : VPT2
   Christian Kollmar      : KDIIS, OOCD, Brueckner-CCSD(T), CCSD density, CASPT2, CASPT2-K
   Simone Kossmann        : Meta GGA functionals, TD-DFT gradient, OOMP2, MP2 Hessian
   Martin Krupicka        : Initial AUTO-CI
   Lucas Lang             : DCDCAS
   Marvin Lechner         : AUTO-CI (C++ implementation), FIC-MRCC
   Dagmar Lenk            : GEPOL surface, SMD
   Dimitrios Liakos       : Extrapolation schemes; Compound Job, initial MDCI parallelization
   Dimitrios Manganas     : Further ROCIS development; embedding schemes
   Dimitrios Pantazis     : SARC Basis sets
   Anastasios Papadopoulos: AUTO-CI, single reference methods and gradients
   Taras Petrenko         : DFT Hessian,TD-DFT gradient, ASA, ECA, R-Raman, ABS, FL, XAS/XES, NRVS
   Peter Pinski           : DLPNO-MP2, DLPNO-MP2 Gradient
   Christoph Reimann      : Effective Core Potentials
   Marius Retegan         : Local ZFS, SOC
   Christoph Riplinger    : Optimizer, TS searches, QM/MM, DLPNO-CCSD(T), (RO)-DLPNO pert. Triples
   Tobias Risthaus        : Range-separated hybrids, TD-DFT gradient, RPA, STAB
   Michael Roemelt        : Original ROCIS implementation
   Masaaki Saitow         : Open-shell DLPNO-CCSD energy and density
   Barbara Sandhoefer     : DKH picture change effects
   Avijit Sen             : IP-ROCIS
   Kantharuban Sivalingam : CASSCF convergence, NEVPT2, FIC-MRCI
   Bernardo de Souza      : ESD, SOC TD-DFT
   Georgi Stoychev        : AutoAux, RI-MP2 NMR, DLPNO-MP2 response
   Willem Van den Heuvel  : Paramagnetic NMR
   Boris Wezisla          : Elementary symmetry handling
   Frank Wennmohs         : Technical directorship


 We gratefully acknowledge several colleagues who have allowed us to
 interface, adapt or use parts of their codes:
   Stefan Grimme, W. Hujo, H. Kruse, P. Pracht,  : VdW corrections, initial TS optimization,
                  C. Bannwarth, S. Ehlert          DFT functionals, gCP, sTDA/sTD-DF
   Ed Valeev, F. Pavosevic, A. Kumar             : LibInt (2-el integral package), F12 methods
   Garnet Chan, S. Sharma, J. Yang, R. Olivares  : DMRG
   Ulf Ekstrom                                   : XCFun DFT Library
   Mihaly Kallay                                 : mrcc  (arbitrary order and MRCC methods)
   Jiri Pittner, Ondrej Demel                    : Mk-CCSD
   Frank Weinhold                                : gennbo (NPA and NBO analysis)
   Christopher J. Cramer and Donald G. Truhlar   : smd solvation model
   Lars Goerigk                                  : TD-DFT with DH, B97 family of functionals
   V. Asgeirsson, H. Jonsson                     : NEB implementation
   FAccTs GmbH                                   : IRC, NEB, NEB-TS, DLPNO-Multilevel, CI-OPT
                                                   MM, QMMM, 2- and 3-layer-ONIOM, Crystal-QMMM,
                                                   LR-CPCM, SF, NACMEs, symmetry and pop. for TD-DFT,
                                                   nearIR, NL-DFT gradient (VV10), updates on ESD,
                                                   ML-optimized integration grids
   S Lehtola, MJT Oliveira, MAL Marques          : LibXC Library
   Liviu Ungur et al                             : ANISO software


 Your calculation uses the libint2 library for the computation of 2-el integrals
 For citations please refer to: http://libint.valeyev.net

 Your ORCA version has been built with support for libXC version: 5.1.0
 For citations please refer to: https://tddft.org/programs/libxc/

 This ORCA versions uses:
   CBLAS   interface :  Fast vector & matrix operations
   LAPACKE interface :  Fast linear algebra routines
   SCALAPACK package :  Parallel linear algebra routines
   Shared memory     :  Shared parallel matrices
   BLAS/LAPACK       :  OpenBLAS 0.3.15  USE64BITINT DYNAMIC_ARCH NO_AFFINITY Haswell SINGLE_THREADED
        Core in use  :  Haswell
   Copyright (c) 2011-2014, The OpenBLAS Project


Your calculation utilizes the atom-pairwise dispersion correction
with the Becke-Johnson damping scheme (D3BJ)
Cite in your paper:
S.Grimme, S.Ehrlich, L.Goerigk, J Comput Chem, (2011), 32, 1456–1465 
S.Grimme, J.Antony, S.Ehrlich and H.Krieg, J.Chem.Phys., 132, (2010), 154104 
   

================================================================================

----- Orbital basis set information -----
Your calculation utilizes the basis: def2-TZVP
   F. Weigend and R. Ahlrichs, Phys. Chem. Chem. Phys. 7, 3297 (2005).

----- AuxJ basis set information -----
Your calculation utilizes the auxiliary basis: def2/J
   F. Weigend, Phys. Chem. Chem. Phys. 8, 1057 (2006).

================================================================================
                                        WARNINGS
                       Please study these warnings very carefully!
================================================================================


WARNING: Geometry Optimization
  ===> : Switching off AutoStart
         For restart on a previous wavefunction, please use MOREAD

INFO   : the flag for use of the SHARK integral package has been found!

================================================================================
                                       INPUT FILE
================================================================================
NAME = IM_H/IM_H.inp
|  1> %pal nprocs 24 end
|  2> ! PBE0 D3BJ def2-TZVP TightSCF OPT FREQ TightOpt
|  3> ! CPCM(dmso)
|  4> %scf
|  5> MaxIter 800
|  6> end
|  7> 
|  8> %geom
|  9> MaxIter 800
| 10> MaxStep 0.15
| 11> end
| 12> 
| 13> *xyz 0 1
| 14> C      -3.27843600      2.15061400      1.48879400
| 15> C      -3.64349400      0.89413700      1.01393900
| 16> C      -2.66636100     -0.06627400      0.81977000
| 17> N      -1.36993600      0.20456600      1.10425300
| 18> C      -0.99155000      1.42687100      1.53931500
| 19> C      -1.93502800      2.41290600      1.75665500
| 20> C      -0.41902600     -0.81779300      0.69585100
| 21> C       0.79524000     -0.94900500      1.58149500
| 22> O       1.31632200     -0.07448800      2.23259600
| 23> O       1.23478700     -2.19453000      1.52666300
| 24> C       2.43097900     -2.48467500      2.24360200
| 25> H      -4.03482600      2.92176300      1.65025800
| 26> H      -2.88081500     -1.08680400      0.49455400
| 27> H       0.07205700      1.56120000      1.72291000
| 28> H      -1.60435200      3.38513300      2.12374100
| 29> H      -0.95344700     -1.77800300      0.71100400
| 30> H       2.25682200     -2.39462900      3.32508400
| 31> H       3.23322700     -1.79614600      1.94767400
| 32> H      -4.68162600      0.64383600      0.79247700
| 33> C      -1.27255000     -0.70230500     -1.68738100
| 34> C      -0.05572900     -0.63729400     -0.83524900
| 35> C       0.73896000      0.62629700     -1.05056800
| 36> C       0.12643800      1.85539300     -1.30665400
| 37> C       0.86899100      3.02879900     -1.45015300
| 38> C       2.25439300      2.97435100     -1.33965800
| 39> C       2.89780200      1.76133400     -1.08944200
| 40> C       2.14706800      0.59073000     -0.94121500
| 41> O       2.69223200     -0.61628500     -0.68727900
| 42> C       4.09458900     -0.73449800     -0.61318500
| 43> N      -2.05651500     -1.78663700     -1.70907000
| 44> O      -3.02852300     -1.85995500     -2.49830600
| 45> H       0.59428900     -1.50824100     -1.02199500
| 46> H      -0.96142300      1.89845000     -1.39582400
| 47> H       0.36251000      3.97597100     -1.64708700
| 48> H       2.85324000      3.88203500     -1.44926400
| 49> H       3.98449100      1.73516600     -1.00750800
| 50> H       4.50466000     -0.13673500      0.21746700
| 51> H       4.57365600     -0.42087000     -1.55508400
| 52> H       4.30777600     -1.79525800     -0.43449000
| 53> O      -1.84188700     -2.73930000     -0.89406900
| 54> H       2.69666100     -3.51547700      1.98674800
| 55> H      -1.53010900      0.06836600     -2.40884100
| 56> *
| 57> 
| 58>                          ****END OF INPUT****
================================================================================

                       *****************************
                       * Geometry Optimization Run *
                       *****************************

Geometry optimization settings:
Update method            Update   .... BFGS
Choice of coordinates    CoordSys .... Z-matrix Internals
Initial Hessian          InHess   .... Almoef's Model

Convergence Tolerances:
Energy Change            TolE     ....  1.0000e-06 Eh
Max. Gradient            TolMAXG  ....  1.0000e-04 Eh/bohr
RMS Gradient             TolRMSG  ....  3.0000e-05 Eh/bohr
Max. Displacement        TolMAXD  ....  1.0000e-03 bohr
RMS Displacement         TolRMSD  ....  6.0000e-04 bohr
Strict Convergence                ....  False
------------------------------------------------------------------------------
                        ORCA OPTIMIZATION COORDINATE SETUP
------------------------------------------------------------------------------

The optimization will be done in new redundant internal coordinates
Making redundant internal coordinates   ...  (new redundants) done
Evaluating the initial hessian          ...  (Almloef) done
Evaluating the coordinates              ...  done
Calculating the B-matrix                .... done
Calculating the G-matrix                .... done
Diagonalizing the G-matrix              .... done
Small eigenvalue found = 3.588e-03
Small eigenvalue found = 5.782e-03
Small eigenvalue found = 6.857e-03
Small eigenvalue found = 8.339e-03
Small eigenvalue found = 1.610e-02
Small eigenvalue found = 1.834e-02
Small eigenvalue found = 2.732e-02
The first mode is                       ....   89
The number of degrees of freedom        ....  120

    -----------------------------------------------------------------
                    Redundant Internal Coordinates


    -----------------------------------------------------------------
         Definition                    Initial Value    Approx d2E/dq
    -----------------------------------------------------------------
      1. B(C   1,C   0)                  1.3919         0.620366   
      2. B(C   2,C   1)                  1.3838         0.639210   
      3. B(N   3,C   2)                  1.3546         0.637262   
      4. B(C   4,N   3)                  1.3515         0.644673   
      5. B(C   5,C   4)                  1.3819         0.643663   
      6. B(C   5,C   0)                  1.3947         0.614018   
      7. B(C   6,N   3)                  1.4547         0.441167   
      8. B(C   7,C   6)                  1.5086         0.404055   
      9. B(O   8,C   7)                  1.2084         1.090438   
     10. B(O   9,C   7)                  1.3219         0.718541   
     11. B(C  10,O   9)                  1.4245         0.493073   
     12. B(H  11,C   0)                  1.0922         0.357222   
     13. B(H  12,C   2)                  1.0924         0.356999   
     14. B(H  13,C   4)                  1.0877         0.363205   
     15. B(H  14,C   5)                  1.0906         0.359358   
     16. B(H  15,C   6)                  1.0990         0.348367   
     17. B(H  16,C  10)                  1.0991         0.348248   
     18. B(H  17,C  10)                  1.0978         0.349880   
     19. B(H  18,C   1)                  1.0906         0.359304   
     20. B(C  20,C  19)                  1.4869         0.437590   
     21. B(C  20,C   6)                  1.5839         0.306434   
     22. B(C  21,C  20)                  1.5082         0.404778   
     23. B(C  22,C  21)                  1.3969         0.609070   
     24. B(C  23,C  22)                  1.3960         0.611141   
     25. B(C  24,C  23)                  1.3909         0.622808   
     26. B(C  25,C  24)                  1.3957         0.611837   
     27. B(C  26,C  25)                  1.3985         0.605521   
     28. B(C  26,C  21)                  1.4128         0.574605   
     29. B(O  27,C  26)                  1.3485         0.651651   
     30. B(C  28,O  27)                  1.4093         0.521334   
     31. B(N  29,C  19)                  1.3382         0.676828   
     32. B(O  30,N  29)                  1.2542         0.825354   
     33. B(H  31,C  20)                  1.1027         0.343686   
     34. B(H  32,C  22)                  1.0924         0.356994   
     35. B(H  33,C  23)                  1.0920         0.357478   
     36. B(H  34,C  24)                  1.0929         0.356230   
     37. B(H  35,C  25)                  1.0901         0.359984   
     38. B(H  36,C  28)                  1.1025         0.343964   
     39. B(H  37,C  28)                  1.1023         0.344204   
     40. B(H  38,C  28)                  1.0966         0.351438   
     41. B(O  39,N  29)                  1.2720         0.773308   
     42. B(H  40,C  10)                  1.0950         0.353493   
     43. B(H  41,C  19)                  1.0866         0.364580   
     44. A(C   5,C   0,H  11)          120.3903         0.351853   
     45. A(C   1,C   0,H  11)          120.4078         0.352465   
     46. A(C   1,C   0,C   5)          119.2019         0.433356   
     47. A(C   0,C   1,C   2)          119.2864         0.436504   
     48. A(C   2,C   1,H  18)          118.9714         0.354605   
     49. A(C   0,C   1,H  18)          121.7420         0.352812   
     50. A(C   1,C   2,N   3)          120.5013         0.435747   
     51. A(N   3,C   2,H  12)          115.9256         0.351854   
     52. A(C   1,C   2,H  12)          123.4737         0.354218   
     53. A(C   2,N   3,C   6)          115.2212         0.405209   
     54. A(C   4,N   3,C   6)          122.8863         0.406038   
     55. A(C   2,N   3,C   4)          121.0901         0.433557   
     56. A(C   5,C   4,H  13)          123.5708         0.355673   
     57. A(N   3,C   4,H  13)          116.0927         0.353573   
     58. A(N   3,C   4,C   5)          120.3190         0.437202   
     59. A(C   0,C   5,C   4)          119.5525         0.436241   
     60. A(C   0,C   5,H  14)          121.6248         0.352208   
     61. A(C   4,C   5,H  14)          118.8182         0.355032   
     62. A(C   7,C   6,C  20)          113.1268         0.356019   
     63. A(N   3,C   6,C  20)          109.9511         0.359142   
     64. A(H  15,C   6,C  20)          102.9691         0.312319   
     65. A(N   3,C   6,H  15)          106.9951         0.329525   
     66. A(N   3,C   6,C   7)          114.9883         0.376591   
     67. A(C   7,C   6,H  15)          107.8968         0.326744   
     68. A(C   6,C   7,O   9)          108.9786         0.410163   
     69. A(C   6,C   7,O   8)          126.9011         0.441961   
     70. A(O   8,C   7,O   9)          124.1132         0.487772   
     71. A(C   7,O   9,C  10)          116.7601         0.422203   
     72. A(O   9,C  10,H  40)          106.1067         0.336474   
     73. A(H  16,C  10,H  17)          109.2470         0.288015   
     74. A(O   9,C  10,H  17)          110.5018         0.335899   
     75. A(O   9,C  10,H  16)          110.2116         0.335638   
     76. A(H  17,C  10,H  40)          110.4783         0.288690   
     77. A(H  16,C  10,H  40)          110.2651         0.288479   
     78. A(C  20,C  19,N  29)          121.6087         0.411614   
     79. A(N  29,C  19,H  41)          115.1541         0.356733   
     80. A(C  20,C  19,H  41)          122.9184         0.333579   
     81. A(C  21,C  20,H  31)          109.0843         0.326114   
     82. A(C  19,C  20,H  31)          110.5367         0.330334   
     83. A(C   6,C  20,H  31)          102.0581         0.311637   
     84. A(C  19,C  20,C  21)          112.7068         0.378561   
     85. A(C   6,C  20,C  21)          110.7531         0.356128   
     86. A(C   6,C  20,C  19)          111.1789         0.360882   
     87. A(C  22,C  21,C  26)          118.2525         0.426816   
     88. A(C  20,C  21,C  26)          119.5402         0.396976   
     89. A(C  20,C  21,C  22)          122.1608         0.401063   
     90. A(C  23,C  22,H  32)          119.2221         0.351535   
     91. A(C  21,C  22,H  32)          119.0986         0.351334   
     92. A(C  21,C  22,C  23)          121.6792         0.431562   
     93. A(C  24,C  23,H  33)          120.6821         0.352742   
     94. A(C  22,C  23,H  33)          120.0595         0.351616   
     95. A(C  22,C  23,C  24)          119.2583         0.433296   
     96. A(C  25,C  24,H  34)          119.1555         0.351476   
     97. A(C  23,C  24,H  34)          120.3507         0.352534   
     98. A(C  23,C  24,C  25)          120.4938         0.433385   
     99. A(C  26,C  25,H  35)          120.4688         0.351482   
    100. A(C  24,C  25,H  35)          119.5968         0.352099   
    101. A(C  24,C  25,C  26)          119.9341         0.431197   
    102. A(C  25,C  26,O  27)          123.5132         0.433259   
    103. A(C  21,C  26,O  27)          116.1056         0.429200   
    104. A(C  21,C  26,C  25)          120.3808         0.426369   
    105. A(C  26,O  27,C  28)          119.1602         0.419052   
    106. A(H  36,C  28,H  38)          109.2314         0.287658   
    107. A(O  27,C  28,H  38)          106.4485         0.339285   
    108. A(H  36,C  28,H  37)          109.1405         0.286725   
    109. A(O  27,C  28,H  37)          111.3266         0.338109   
    110. A(O  27,C  28,H  36)          111.3619         0.338070   
    111. A(H  37,C  28,H  38)          109.2668         0.287690   
    112. A(C  19,N  29,O  30)          120.7687         0.455275   
    113. A(O  30,N  29,O  39)          119.3530         0.463323   
    114. A(C  19,N  29,O  39)          119.8442         0.449915   
    115. D(C   2,C   1,C   0,H  11)   -179.8988         0.026633   
    116. D(H  18,C   1,C   0,C   5)    179.9024         0.026633   
    117. D(C   2,C   1,C   0,C   5)      0.0682         0.026633   
    118. D(H  18,C   1,C   0,H  11)     -0.0646         0.026633   
    119. D(N   3,C   2,C   1,H  18)   -178.9857         0.028384   
    120. D(H  12,C   2,C   1,C   0)    177.0777         0.028384   
    121. D(H  12,C   2,C   1,H  18)     -2.7610         0.028384   
    122. D(N   3,C   2,C   1,C   0)      0.8530         0.028384   
    123. D(C   4,N   3,C   2,H  12)   -178.7710         0.033030   
    124. D(C   6,N   3,C   2,H  12)     11.2023         0.033030   
    125. D(C   4,N   3,C   2,C   1)     -2.2722         0.033030   
    126. D(C   6,N   3,C   2,C   1)   -172.2989         0.033030   
    127. D(C   5,C   4,N   3,C   6)    171.9752         0.033869   
    128. D(C   5,C   4,N   3,C   2)      2.7283         0.033869   
    129. D(H  13,C   4,N   3,C   2)   -178.7388         0.033869   
    130. D(H  13,C   4,N   3,C   6)     -9.4920         0.033869   
    131. D(H  14,C   5,C   4,H  13)      0.5676         0.028807   
    132. D(C   0,C   5,C   4,H  13)    179.8181         0.028807   
    133. D(H  14,C   5,C   0,H  11)     -0.4250         0.026058   
    134. D(C   0,C   5,C   4,N   3)     -1.7633         0.028807   
    135. D(H  14,C   5,C   0,C   1)    179.6080         0.026058   
    136. D(H  14,C   5,C   4,N   3)    178.9862         0.028807   
    137. D(C   4,C   5,C   0,H  11)   -179.6538         0.026058   
    138. D(C   4,C   5,C   0,C   1)      0.3792         0.026058   
    139. D(C  20,C   6,N   3,C   4)    -86.9953         0.016597   
    140. D(C  20,C   6,N   3,C   2)     82.8321         0.016597   
    141. D(H  15,C   6,N   3,C   4)    161.8674         0.016597   
    142. D(C   7,C   6,N   3,C   2)   -148.1047         0.016597   
    143. D(H  15,C   6,N   3,C   2)    -28.3052         0.016597   
    144. D(C   7,C   6,N   3,C   4)     42.0679         0.016597   
    145. D(O   8,C   7,C   6,N   3)    -29.3730         0.012106   
    146. D(O   9,C   7,C   6,C  20)    -80.9546         0.012106   
    147. D(O   9,C   7,C   6,H  15)     32.2718         0.012106   
    148. D(O   9,C   7,C   6,N   3)    151.5714         0.012106   
    149. D(O   8,C   7,C   6,C  20)     98.1010         0.012106   
    150. D(O   8,C   7,C   6,H  15)   -148.6726         0.012106   
    151. D(C  10,O   9,C   7,O   8)     -2.7425         0.038863   
    152. D(C  10,O   9,C   7,C   6)    176.3453         0.038863   
    153. D(H  40,C  10,O   9,C   7)   -173.5421         0.019204   
    154. D(H  17,C  10,O   9,C   7)    -53.7572         0.019204   
    155. D(H  16,C  10,O   9,C   7)     67.0857         0.019204   
    156. D(H  31,C  20,C  19,H  41)   -120.3168         0.014132   
    157. D(C  21,C  20,C  19,H  41)      2.0434         0.014132   
    158. D(C  21,C  20,C  19,N  29)    175.2434         0.014132   
    159. D(C   6,C  20,C  19,H  41)    127.0776         0.014132   
    160. D(C   6,C  20,C  19,N  29)    -59.7224         0.014132   
    161. D(H  31,C  20,C   6,H  15)    -61.9609         0.007779   
    162. D(H  31,C  20,C   6,C   7)     54.2235         0.007779   
    163. D(H  31,C  20,C   6,N   3)   -175.7074         0.007779   
    164. D(C  21,C  20,C   6,H  15)   -177.9678         0.007779   
    165. D(C  21,C  20,C   6,C   7)    -61.7833         0.007779   
    166. D(C  21,C  20,C   6,N   3)     68.2857         0.007779   
    167. D(C  19,C  20,C   6,H  15)     55.9095         0.007779   
    168. D(H  31,C  20,C  19,N  29)     52.8832         0.014132   
    169. D(C  19,C  20,C   6,N   3)    -57.8370         0.007779   
    170. D(C  19,C  20,C   6,C   7)    172.0939         0.007779   
    171. D(C  26,C  21,C  20,H  31)    -23.2365         0.012147   
    172. D(C  26,C  21,C  20,C  19)   -146.4096         0.012147   
    173. D(C  26,C  21,C  20,C   6)     88.3245         0.012147   
    174. D(C  22,C  21,C  20,H  31)    159.2871         0.012147   
    175. D(C  22,C  21,C  20,C  19)     36.1140         0.012147   
    176. D(C  22,C  21,C  20,C   6)    -89.1520         0.012147   
    177. D(C  23,C  22,C  21,C  20)    177.3338         0.025616   
    178. D(H  32,C  22,C  21,C  26)    179.8814         0.025616   
    179. D(H  32,C  22,C  21,C  20)     -2.6111         0.025616   
    180. D(C  23,C  22,C  21,C  26)     -0.1737         0.025616   
    181. D(H  33,C  23,C  22,H  32)      0.1256         0.025801   
    182. D(H  33,C  23,C  22,C  21)   -179.8192         0.025801   
    183. D(C  24,C  23,C  22,H  32)   -179.8608         0.025801   
    184. D(C  24,C  23,C  22,C  21)      0.1944         0.025801   
    185. D(H  34,C  24,C  23,H  33)     -0.0097         0.026856   
    186. D(H  34,C  24,C  23,C  22)    179.9767         0.026856   
    187. D(C  25,C  24,C  23,H  33)   -179.9246         0.026856   
    188. D(C  25,C  24,C  23,C  22)      0.0618         0.026856   
    189. D(H  35,C  25,C  24,H  34)     -0.0329         0.025863   
    190. D(H  35,C  25,C  24,C  23)    179.8830         0.025863   
    191. D(C  26,C  25,C  24,H  34)    179.7525         0.025863   
    192. D(C  26,C  25,C  24,C  23)     -0.3316         0.025863   
    193. D(O  27,C  26,C  25,H  35)      0.3559         0.025302   
    194. D(O  27,C  26,C  25,C  24)   -179.4276         0.025302   
    195. D(C  21,C  26,C  25,H  35)   -179.8660         0.025302   
    196. D(C  21,C  26,C  25,C  24)      0.3505         0.025302   
    197. D(O  27,C  26,C  21,C  22)    179.6939         0.022665   
    198. D(O  27,C  26,C  21,C  20)      2.1190         0.022665   
    199. D(C  25,C  26,C  21,C  22)     -0.1001         0.022665   
    200. D(C  25,C  26,C  21,C  20)   -177.6749         0.022665   
    201. D(C  28,O  27,C  26,C  25)     -2.4768         0.031397   
    202. D(C  28,O  27,C  26,C  21)    177.7364         0.031397   
    203. D(H  38,C  28,O  27,C  26)   -178.1415         0.021553   
    204. D(H  37,C  28,O  27,C  26)    -59.1548         0.021553   
    205. D(H  36,C  28,O  27,C  26)     62.8952         0.021553   
    206. D(O  39,N  29,C  19,H  41)   -179.4072         0.037661   
    207. D(O  39,N  29,C  19,C  20)      6.8969         0.037661   
    208. D(O  30,N  29,C  19,H  41)     -1.5486         0.037661   
    209. D(O  30,N  29,C  19,C  20)   -175.2445         0.037661   
    -----------------------------------------------------------------

Number of atoms                         .... 42
Number of degrees of freedom            .... 209

         *************************************************************
         *                GEOMETRY OPTIMIZATION CYCLE   1            *
         *************************************************************
---------------------------------
CARTESIAN COORDINATES (ANGSTROEM)
---------------------------------
  C     -3.278436    2.150614    1.488794
  C     -3.643494    0.894137    1.013939
  C     -2.666361   -0.066274    0.819770
  N     -1.369936    0.204566    1.104253
  C     -0.991550    1.426871    1.539315
  C     -1.935028    2.412906    1.756655
  C     -0.419026   -0.817793    0.695851
  C      0.795240   -0.949005    1.581495
  O      1.316322   -0.074488    2.232596
  O      1.234787   -2.194530    1.526663
  C      2.430979   -2.484675    2.243602
  H     -4.034826    2.921763    1.650258
  H     -2.880815   -1.086804    0.494554
  H      0.072057    1.561200    1.722910
  H     -1.604352    3.385133    2.123741
  H     -0.953447   -1.778003    0.711004
  H      2.256822   -2.394629    3.325084
  H      3.233227   -1.796146    1.947674
  H     -4.681626    0.643836    0.792477
  C     -1.272550   -0.702305   -1.687381
  C     -0.055729   -0.637294   -0.835249
  C      0.738960    0.626297   -1.050568
  C      0.126438    1.855393   -1.306654
  C      0.868991    3.028799   -1.450153
  C      2.254393    2.974351   -1.339658
  C      2.897802    1.761334   -1.089442
  C      2.147068    0.590730   -0.941215
  O      2.692232   -0.616285   -0.687279
  C      4.094589   -0.734498   -0.613185
  N     -2.056515   -1.786637   -1.709070
  O     -3.028523   -1.859955   -2.498306
  H      0.594289   -1.508241   -1.021995
  H     -0.961423    1.898450   -1.395824
  H      0.362510    3.975971   -1.647087
  H      2.853240    3.882035   -1.449264
  H      3.984491    1.735166   -1.007508
  H      4.504660   -0.136735    0.217467
  H      4.573656   -0.420870   -1.555084
  H      4.307776   -1.795258   -0.434490
  O     -1.841887   -2.739300   -0.894069
  H      2.696661   -3.515477    1.986748
  H     -1.530109    0.068366   -2.408841

----------------------------
CARTESIAN COORDINATES (A.U.)
----------------------------
  NO LB      ZA    FRAG     MASS         X           Y           Z
   0 C     6.0000    0    12.011   -6.195346    4.064071    2.813413
   1 C     6.0000    0    12.011   -6.885206    1.689674    1.916067
   2 C     6.0000    0    12.011   -5.038692   -0.125240    1.549141
   3 N     7.0000    0    14.007   -2.588804    0.386574    2.086736
   4 C     6.0000    0    12.011   -1.873758    2.696395    2.908884
   5 C     6.0000    0    12.011   -3.656673    4.559732    3.319597
   6 C     6.0000    0    12.011   -0.791844   -1.545405    1.314968
   7 C     6.0000    0    12.011    1.502786   -1.793360    2.988592
   8 O     8.0000    0    15.999    2.487488   -0.140762    4.218995
   9 O     8.0000    0    15.999    2.333409   -4.147061    2.884975
  10 C     6.0000    0    12.011    4.593885   -4.695355    4.239793
  11 H     1.0000    0     1.008   -7.624716    5.521332    3.118536
  12 H     1.0000    0     1.008   -5.443951   -2.053762    0.934572
  13 H     1.0000    0     1.008    0.136168    2.950240    3.255828
  14 H     1.0000    0     1.008   -3.031786    6.396974    4.013289
  15 H     1.0000    0     1.008   -1.801754   -3.359939    1.343603
  16 H     1.0000    0     1.008    4.264776   -4.525193    6.283498
  17 H     1.0000    0     1.008    6.109914   -3.394224    3.680570
  18 H     1.0000    0     1.008   -8.846991    1.216674    1.497564
  19 C     6.0000    0    12.011   -2.404771   -1.327164   -3.188688
  20 C     6.0000    0    12.011   -0.105313   -1.204311   -1.578392
  21 C     6.0000    0    12.011    1.396432    1.183530   -1.985286
  22 C     6.0000    0    12.011    0.238933    3.506185   -2.469218
  23 C     6.0000    0    12.011    1.642155    5.723601   -2.740392
  24 C     6.0000    0    12.011    4.260185    5.620709   -2.531587
  25 C     6.0000    0    12.011    5.476052    3.328439   -2.058747
  26 C     6.0000    0    12.011    4.057371    1.116318   -1.778639
  27 O     8.0000    0    15.999    5.087581   -1.164610   -1.298769
  28 C     6.0000    0    12.011    7.737652   -1.388000   -1.158752
  29 N     7.0000    0    14.007   -3.886250   -3.376255   -3.229674
  30 O     8.0000    0    15.999   -5.723079   -3.514806   -4.721114
  31 H     1.0000    0     1.008    1.123043   -2.850162   -1.931291
  32 H     1.0000    0     1.008   -1.816826    3.587551   -2.637725
  33 H     1.0000    0     1.008    0.685045    7.513496   -3.112543
  34 H     1.0000    0     1.008    5.391842    7.335983   -2.738712
  35 H     1.0000    0     1.008    7.529597    3.278989   -1.903914
  36 H     1.0000    0     1.008    8.512574   -0.258392    0.410953
  37 H     1.0000    0     1.008    8.642957   -0.795329   -2.938683
  38 H     1.0000    0     1.008    8.140517   -3.392546   -0.821067
  39 O     8.0000    0    15.999   -3.480662   -5.176527   -1.689546
  40 H     1.0000    0     1.008    5.095951   -6.643289    3.754410
  41 H     1.0000    0     1.008   -2.891487    0.129193   -4.552050

--------------------------------
INTERNAL COORDINATES (ANGSTROEM)
--------------------------------
 C      0   0   0     0.000000000000     0.00000000     0.00000000
 C      1   0   0     1.391937163064     0.00000000     0.00000000
 C      2   1   0     1.383791815690   119.28641186     0.00000000
 N      3   2   1     1.354622701535   120.50125829     0.85304882
 C      4   3   2     1.351474906117   121.09007361   357.72782362
 C      5   4   3     1.381901745172   120.31899185     2.72830924
 C      4   3   2     1.454730197179   115.22118401   187.70110023
 C      7   4   3     1.508649661928   114.98829329   211.89533028
 O      8   7   4     1.208403469961   126.90110588   330.62696428
 O      8   7   4     1.321945777654   108.97859041   151.57135045
 C     10   8   7     1.424451105377   116.76014360   176.34533294
 H      1   2   3     1.092184616078   120.40776626   180.10122289
 H      3   2   1     1.092354084385   123.47374194   177.07773968
 H      5   4   3     1.087663208312   116.09270129   181.26118326
 H      6   5   4     1.090561363657   118.81824780   178.98619355
 H      7   4   3     1.099017134876   106.99506982   331.69477682
 H     11  10   8     1.099109757526   110.21156036    67.08567076
 H     11  10   8     1.097837610273   110.50184483   306.24275487
 H      2   1   3     1.090602612077   121.74196537   179.83413818
 C      7   4   3     2.534094604103    90.67800545    55.23766135
 C     20   7   4     1.486946105811    35.64980802   127.27031804
 C     21  20   7     1.508162820707   112.70678910   234.96577158
 C     22  21  20     1.396939589637   122.16079961    36.11397112
 C     23  22  21     1.396015244059   121.67923693   177.33383124
 C     24  23  22     1.390867510345   119.25833971     0.19437524
 C     25  24  23     1.395705352224   120.49382358     0.06175013
 C     26  25  24     1.398530123773   119.93407438   359.66840850
 O     27  26  25     1.348544581843   123.51316633   180.57242229
 C     28  27  26     1.409279741447   119.16024536   357.52321413
 N     20   7   4     1.338225474339   100.11533664   258.93148882
 O     30  20   7     1.254220293602   120.76865569   154.00679513
 H     21  20   7     1.102699481114   110.53667639   112.60559293
 H     23  22  21     1.092358342976   119.09860372   357.38894427
 H     24  23  22     1.091989377833   120.05952903   180.18078986
 H     25  24  23     1.092941649175   120.35066179   179.97665202
 H     26  25  24     1.090087577812   119.59677202   179.88304837
 H     29  28  27     1.102479738732   111.36194151    62.89521694
 H     29  28  27     1.102289181238   111.32661493   300.84517159
 H     29  28  27     1.096627729721   106.44847000   181.85854449
 O     30  20   7     1.271950706574   119.84415106   336.14818389
 H     11  10   8     1.095040485847   106.10672547   186.45788695
 H     20   7   4     1.086634694974   137.43997164    45.30328266

---------------------------
INTERNAL COORDINATES (A.U.)
---------------------------
 C      0   0   0     0.000000000000     0.00000000     0.00000000
 C      1   0   0     2.630380033818     0.00000000     0.00000000
 C      2   1   0     2.614987558016   119.28641186     0.00000000
 N      3   2   1     2.559865920694   120.50125829     0.85304882
 C      4   3   2     2.553917449429   121.09007361   357.72782362
 C      5   4   3     2.611415842363   120.31899185     2.72830924
 C      4   3   2     2.749041671414   115.22118401   187.70110023
 C      7   4   3     2.850934693077   114.98829329   211.89533028
 O      8   7   4     2.283551617507   126.90110588   330.62696428
 O      8   7   4     2.498115483660   108.97859041   151.57135045
 C     10   8   7     2.691822480324   116.76014360   176.34533294
 H      1   2   3     2.063929812069   120.40776626   180.10122289
 H      3   2   1     2.064250060757   123.47374194   177.07773968
 H      5   4   3     2.055385589651   116.09270129   181.26118326
 H      6   5   4     2.060862309547   118.81824780   178.98619355
 H      7   4   3     2.076841401402   106.99506982   331.69477682
 H     11  10   8     2.077016432845   110.21156036    67.08567076
 H     11  10   8     2.074612422934   110.50184483   306.24275487
 H      2   1   3     2.060940257765   121.74196537   179.83413818
 C      7   4   3     4.788744799202    90.67800545    55.23766135
 C     20   7   4     2.809920915883    35.64980802   127.27031804
 C     21  20   7     2.850014696498   112.70678910   234.96577158
 C     22  21  20     2.639833250047   122.16079961    36.11397112
 C     23  22  21     2.638086490051   121.67923693   177.33383124
 C     24  23  22     2.628358683121   119.25833971     0.19437524
 C     25  24  23     2.637500879351   120.49382358     0.06175013
 C     26  25  24     2.642838923970   119.93407438   359.66840850
 O     27  26  25     2.548379939066   123.51316633   180.57242229
 C     28  27  26     2.663152757419   119.16024536   357.52321413
 N     20   7   4     2.528879651938   100.11533664   258.93148882
 O     30  20   7     2.370132866515   120.76865569   154.00679513
 H     21  20   7     2.083800027322   110.53667639   112.60559293
 H     23  22  21     2.064258108329   119.09860372   357.38894427
 H     24  23  22     2.063560865256   120.05952903   180.18078986
 H     25  24  23     2.065360397297   120.35066179   179.97665202
 H     26  25  24     2.059966984055   119.59677202   179.88304837
 H     29  28  27     2.083384774400   111.36194151    62.89521694
 H     29  28  27     2.083024672924   111.32661493   300.84517159
 H     29  28  27     2.072326080037   106.44847000   181.85854449
 O     30  20   7     2.403638491272   119.84415106   336.14818389
 H     11  10   8     2.069326623807   106.10672547   186.45788695
 H     20   7   4     2.053441981119   137.43997164    45.30328266

---------------------
BASIS SET INFORMATION
---------------------
There are 4 groups of distinct atoms

 Group   1 Type C   : 11s6p2d1f contracted to 5s3p2d1f pattern {62111/411/11/1}
 Group   2 Type N   : 11s6p2d1f contracted to 5s3p2d1f pattern {62111/411/11/1}
 Group   3 Type O   : 11s6p2d1f contracted to 5s3p2d1f pattern {62111/411/11/1}
 Group   4 Type H   : 5s1p contracted to 3s1p pattern {311/1}

Atom   0C    basis set group =>   1
Atom   1C    basis set group =>   1
Atom   2C    basis set group =>   1
Atom   3N    basis set group =>   2
Atom   4C    basis set group =>   1
Atom   5C    basis set group =>   1
Atom   6C    basis set group =>   1
Atom   7C    basis set group =>   1
Atom   8O    basis set group =>   3
Atom   9O    basis set group =>   3
Atom  10C    basis set group =>   1
Atom  11H    basis set group =>   4
Atom  12H    basis set group =>   4
Atom  13H    basis set group =>   4
Atom  14H    basis set group =>   4
Atom  15H    basis set group =>   4
Atom  16H    basis set group =>   4
Atom  17H    basis set group =>   4
Atom  18H    basis set group =>   4
Atom  19C    basis set group =>   1
Atom  20C    basis set group =>   1
Atom  21C    basis set group =>   1
Atom  22C    basis set group =>   1
Atom  23C    basis set group =>   1
Atom  24C    basis set group =>   1
Atom  25C    basis set group =>   1
Atom  26C    basis set group =>   1
Atom  27O    basis set group =>   3
Atom  28C    basis set group =>   1
Atom  29N    basis set group =>   2
Atom  30O    basis set group =>   3
Atom  31H    basis set group =>   4
Atom  32H    basis set group =>   4
Atom  33H    basis set group =>   4
Atom  34H    basis set group =>   4
Atom  35H    basis set group =>   4
Atom  36H    basis set group =>   4
Atom  37H    basis set group =>   4
Atom  38H    basis set group =>   4
Atom  39O    basis set group =>   3
Atom  40H    basis set group =>   4
Atom  41H    basis set group =>   4
---------------------------------
AUXILIARY/J BASIS SET INFORMATION
---------------------------------
There are 4 groups of distinct atoms

 Group   1 Type C   : 12s5p4d2f1g contracted to 6s4p3d1f1g pattern {711111/2111/211/2/1}
 Group   2 Type N   : 12s5p4d2f1g contracted to 6s4p3d1f1g pattern {711111/2111/211/2/1}
 Group   3 Type O   : 12s5p4d2f1g contracted to 6s4p3d1f1g pattern {711111/2111/211/2/1}
 Group   4 Type H   : 5s2p1d contracted to 3s1p1d pattern {311/2/1}

Atom   0C    basis set group =>   1
Atom   1C    basis set group =>   1
Atom   2C    basis set group =>   1
Atom   3N    basis set group =>   2
Atom   4C    basis set group =>   1
Atom   5C    basis set group =>   1
Atom   6C    basis set group =>   1
Atom   7C    basis set group =>   1
Atom   8O    basis set group =>   3
Atom   9O    basis set group =>   3
Atom  10C    basis set group =>   1
Atom  11H    basis set group =>   4
Atom  12H    basis set group =>   4
Atom  13H    basis set group =>   4
Atom  14H    basis set group =>   4
Atom  15H    basis set group =>   4
Atom  16H    basis set group =>   4
Atom  17H    basis set group =>   4
Atom  18H    basis set group =>   4
Atom  19C    basis set group =>   1
Atom  20C    basis set group =>   1
Atom  21C    basis set group =>   1
Atom  22C    basis set group =>   1
Atom  23C    basis set group =>   1
Atom  24C    basis set group =>   1
Atom  25C    basis set group =>   1
Atom  26C    basis set group =>   1
Atom  27O    basis set group =>   3
Atom  28C    basis set group =>   1
Atom  29N    basis set group =>   2
Atom  30O    basis set group =>   3
Atom  31H    basis set group =>   4
Atom  32H    basis set group =>   4
Atom  33H    basis set group =>   4
Atom  34H    basis set group =>   4
Atom  35H    basis set group =>   4
Atom  36H    basis set group =>   4
Atom  37H    basis set group =>   4
Atom  38H    basis set group =>   4
Atom  39O    basis set group =>   3
Atom  40H    basis set group =>   4
Atom  41H    basis set group =>   4


           ************************************************************
           *        Program running with 24 parallel MPI-processes    *
           *              working on a common directory               *
           ************************************************************
------------------------------------------------------------------------------
                           ORCA GTO INTEGRAL CALCULATION
                           -- RI-GTO INTEGRALS CHOSEN --
------------------------------------------------------------------------------
------------------------------------------------------------------------------
                   ___                                                        
                  /   \      - P O W E R E D   B Y -                         
                 /     \                                                     
                 |  |  |   _    _      __       _____    __    __             
                 |  |  |  | |  | |    /  \     |  _  \  |  |  /  |          
                  \  \/   | |  | |   /    \    | | | |  |  | /  /          
                 / \  \   | |__| |  /  /\  \   | |_| |  |  |/  /          
                |  |  |   |  __  | /  /__\  \  |    /   |      \           
                |  |  |   | |  | | |   __   |  |    \   |  |\   \          
                \     /   | |  | | |  |  |  |  | |\  \  |  | \   \       
                 \___/    |_|  |_| |__|  |__|  |_| \__\ |__|  \__/        
                                                                              
                      - O R C A' S   B I G   F R I E N D -                    
                                      &                                       
                       - I N T E G R A L  F E E D E R -                       
                                                                              
 v1 FN, 2020, v2 2021                                                         
------------------------------------------------------------------------------


Reading SHARK input file IM_H/IM_H.SHARKINP.tmp ... ok
----------------------
SHARK INTEGRAL PACKAGE
----------------------

Number of atoms                             ...     42
Number of basis functions                   ...    852
Number of shells                            ...    336
Maximum angular momentum                    ...      3
Integral batch strategy                     ... SHARK/LIBINT Hybrid
RI-J (if used) integral strategy            ... SPLIT-RIJ (Revised 2003 algorithm where possible)
Printlevel                                  ...      1
Contraction scheme used                     ... SEGMENTED contraction
Coulomb Range Separation                    ... NOT USED
Exchange Range Separation                   ... NOT USED
Finite Nucleus Model                        ... NOT USED
Auxiliary Coulomb fitting basis             ... AVAILABLE
   # of basis functions in Aux-J            ...   1374
   # of shells in Aux-J                     ...    450
   Maximum angular momentum in Aux-J        ...      4
Auxiliary J/K fitting basis                 ... NOT available
Auxiliary Correlation fitting basis         ... NOT available
Auxiliary 'external' fitting basis          ... NOT available
Integral threshold                          ...     2.500000e-11
Primitive cut-off                           ...     2.500000e-12
Primitive pair pre-selection threshold      ...     2.500000e-12

Calculating pre-screening integrals         ... done (  0.1 sec) Dimension = 336
Organizing shell pair data                  ... done (  0.5 sec)
Shell pair information
Total number of shell pairs                 ...     56616
Shell pairs after pre-screening             ...     42079
Total number of primitive shell pairs       ...    173748
Primitive shell pairs kept                  ...     85106
          la=0 lb=0:  10854 shell pairs
          la=1 lb=0:  12055 shell pairs
          la=1 lb=1:   3390 shell pairs
          la=2 lb=0:   6013 shell pairs
          la=2 lb=1:   3419 shell pairs
          la=2 lb=2:    885 shell pairs
          la=3 lb=0:   2810 shell pairs
          la=3 lb=1:   1636 shell pairs
          la=3 lb=2:    811 shell pairs
          la=3 lb=3:    206 shell pairs

Calculating one electron integrals          ... done (  0.1 sec)
Calculating RI/J V-Matrix + Cholesky decomp.... done (  0.2 sec)
Calculating Nuclear repulsion               ... done (  0.0 sec) ENN=   2214.167432519810 Eh

SHARK setup successfully completed in   1.7 seconds

Maximum memory used throughout the entire GTOINT-calculation: 63.4 MB


           ************************************************************
           *        Program running with 24 parallel MPI-processes    *
           *              working on a common directory               *
           ************************************************************
-------------------------------------------------------------------------------
                                 ORCA SCF
-------------------------------------------------------------------------------

------------
SCF SETTINGS
------------
Hamiltonian:
 Density Functional     Method          .... DFT(GTOs)
 Exchange Functional    Exchange        .... PBE
   PBE kappa parameter   XKappa         ....  0.804000
   PBE mue parameter    XMuePBE         ....  0.219520
 Correlation Functional Correlation     .... PBE
   PBE beta parameter  CBetaPBE         ....  0.066725
 LDA part of GGA corr.  LDAOpt          .... PW91-LDA
 Gradients option       PostSCFGGA      .... off
 Hybrid DFT is turned on
   Fraction HF Exchange ScalHFX         ....  0.250000
   Scaling of DF-GGA-X  ScalDFX         ....  0.750000
   Scaling of DF-GGA-C  ScalDFC         ....  1.000000
   Scaling of DF-LDA-C  ScalLDAC        ....  1.000000
   Perturbative correction              ....  0.000000
   Density functional embedding theory  .... OFF
   NL short-range parameter             ....  6.900000
 RI-approximation to the Coulomb term is turned on
   Number of AuxJ basis functions       .... 1374
   RIJ-COSX (HFX calculated with COS-X)).... on


General Settings:
 Integral files         IntName         .... IM_H/IM_H
 Hartree-Fock type      HFTyp           .... RHF
 Total Charge           Charge          ....    0
 Multiplicity           Mult            ....    1
 Number of Electrons    NEL             ....  174
 Basis Dimension        Dim             ....  852
 Nuclear Repulsion      ENuc            ....   2214.1674325198 Eh

Convergence Acceleration:
 DIIS                   CNVDIIS         .... on
   Start iteration      DIISMaxIt       ....    12
   Startup error        DIISStart       ....  0.200000
   # of expansion vecs  DIISMaxEq       ....     5
   Bias factor          DIISBfac        ....   1.050
   Max. coefficient     DIISMaxC        ....  10.000
 Trust-Rad. Augm. Hess. CNVTRAH         .... auto
   Auto Start mean grad. ratio tolernc. ....  1.125000
   Auto Start start iteration           ....    20
   Auto Start num. interpolation iter.  ....    10
   Max. Number of Micro iterations      ....    16
   Max. Number of Macro iterations      .... Maxiter - #DIIS iter
   Number of Davidson start vectors     ....     2
   Converg. threshold I  (grad. norm)   ....   1.000e-05
   Converg. threshold II (energy diff.) ....   1.000e-08
   Grad. Scal. Fac. for Micro threshold ....   0.100
   Minimum threshold for Micro iter.    ....   0.010
   NR start threshold (gradient norm)   ....   0.001
   Initial trust radius                 ....   0.400
   Minimum AH scaling param. (alpha)    ....   1.000
   Maximum AH scaling param. (alpha)    .... 1000.000
   Orbital update algorithm             .... Taylor
   White noise on init. David. guess    .... on
   Maximum white noise                  ....   0.010
   Quad. conv. algorithm                .... NR
 SOSCF                  CNVSOSCF        .... on
   Start iteration      SOSCFMaxIt      ....   150
   Startup grad/error   SOSCFStart      ....  0.003300
 Level Shifting         CNVShift        .... on
   Level shift para.    LevelShift      ....    0.2500
   Turn off err/grad.   ShiftErr        ....    0.0010
 Zerner damping         CNVZerner       .... off
 Static damping         CNVDamp         .... on
   Fraction old density DampFac         ....    0.7000
   Max. Damping (<1)    DampMax         ....    0.9800
   Min. Damping (>=0)   DampMin         ....    0.0000
   Turn off err/grad.   DampErr         ....    0.1000
 Fernandez-Rico         CNVRico         .... off

SCF Procedure:
 Maximum # iterations   MaxIter         ....   800
 SCF integral mode      SCFMode         .... Direct
   Integral package                     .... SHARK and LIBINT hybrid scheme
 Reset frequency        DirectResetFreq ....    20
 Integral Threshold     Thresh          ....  2.500e-11 Eh
 Primitive CutOff       TCut            ....  2.500e-12 Eh

Convergence Tolerance:
 Convergence Check Mode ConvCheckMode   .... Total+1el-Energy
 Convergence forced     ConvForced      .... 0
 Energy Change          TolE            ....  1.000e-08 Eh
 1-El. energy change                    ....  1.000e-05 Eh
 Orbital Gradient       TolG            ....  1.000e-05
 Orbital Rotation angle TolX            ....  1.000e-05
 DIIS Error             TolErr          ....  5.000e-07


Diagonalization of the overlap matrix:
Smallest eigenvalue                        ... 5.725e-06
Time for diagonalization                   ...    0.233 sec
Threshold for overlap eigenvalues          ... 1.000e-08
Number of eigenvalues below threshold      ... 0
Time for construction of square roots      ...    0.121 sec
Total time needed                          ...    0.359 sec

Time for model grid setup =    0.414 sec

------------------------------
INITIAL GUESS: MODEL POTENTIAL
------------------------------
Loading Hartree-Fock densities                     ... done
Calculating cut-offs                               ... done
Initializing the effective Hamiltonian             ... done
Setting up the integral package (SHARK)            ... done
Starting the Coulomb interaction                   ... done (   0.4 sec)
Reading the grid                                   ... done
Mapping shells                                     ... done
Starting the XC term evaluation                    ... done (   0.2 sec)
  promolecular density results
     # of electrons  =    173.987580460
     EX              =   -146.162782370
     EC              =     -5.890832019
     EX+EC           =   -152.053614389
Transforming the Hamiltonian                       ... done (   0.1 sec)
Diagonalizing the Hamiltonian                      ... done (   0.2 sec)
Back transforming the eigenvectors                 ... done (   0.0 sec)
Now organizing SCF variables                       ... done
                      ------------------
                      INITIAL GUESS DONE (   1.7 sec)
                      ------------------
-------------------
DFT GRID GENERATION
-------------------

General Integration Accuracy     IntAcc      ... 4.388
Radial Grid Type                 RadialGrid  ... OptM3 with GC (2021)
Angular Grid (max. ang.)         AngularGrid ... 4 (Lebedev-302)
Angular grid pruning method      GridPruning ... 4 (adaptive)
Weight generation scheme         WeightScheme... Becke
Basis function cutoff            BFCut       ... 1.0000e-11
Integration weight cutoff        WCut        ... 1.0000e-14
Angular grids for H and He will be reduced by one unit
Partially contracted basis set               ... off
Rotationally invariant grid construction     ... off

Total number of grid points                  ...   200003
Total number of batches                      ...     3146
Average number of points per batch           ...       63
Average number of grid points per atom       ...     4762
Time for grid setup =    1.375 sec

--------------------
COSX GRID GENERATION
--------------------

GRIDX 1
-------
General Integration Accuracy     IntAcc      ... 3.816
Radial Grid Type                 RadialGrid  ... OptM3 with GC (2021)
Angular Grid (max. ang.)         AngularGrid ... 1 (Lebedev-50)
Angular grid pruning method      GridPruning ... 4 (adaptive)
Weight generation scheme         WeightScheme... Becke
Basis function cutoff            BFCut       ... 1.0000e-11
Integration weight cutoff        WCut        ... 1.0000e-14
Angular grids for H and He will be reduced by one unit
Partially contracted basis set               ... on
Rotationally invariant grid construction     ... off

Total number of grid points                  ...    25371
Total number of batches                      ...      415
Average number of points per batch           ...       61
Average number of grid points per atom       ...      604
UseSFitting                                  ... on

GRIDX 2
-------
General Integration Accuracy     IntAcc      ... 4.020
Radial Grid Type                 RadialGrid  ... OptM3 with GC (2021)
Angular Grid (max. ang.)         AngularGrid ... 2 (Lebedev-110)
Angular grid pruning method      GridPruning ... 4 (adaptive)
Weight generation scheme         WeightScheme... Becke
Basis function cutoff            BFCut       ... 1.0000e-11
Integration weight cutoff        WCut        ... 1.0000e-14
Angular grids for H and He will be reduced by one unit
Partially contracted basis set               ... on
Rotationally invariant grid construction     ... off

Total number of grid points                  ...    54900
Total number of batches                      ...      878
Average number of points per batch           ...       62
Average number of grid points per atom       ...     1307
UseSFitting                                  ... on

GRIDX 3
-------
General Integration Accuracy     IntAcc      ... 4.338
Radial Grid Type                 RadialGrid  ... OptM3 with GC (2021)
Angular Grid (max. ang.)         AngularGrid ... 3 (Lebedev-194)
Angular grid pruning method      GridPruning ... 4 (adaptive)
Weight generation scheme         WeightScheme... Becke
Basis function cutoff            BFCut       ... 1.0000e-11
Integration weight cutoff        WCut        ... 1.0000e-14
Angular grids for H and He will be reduced by one unit
Partially contracted basis set               ... on
Rotationally invariant grid construction     ... off

Total number of grid points                  ...   119930
Total number of batches                      ...     1896
Average number of points per batch           ...       63
Average number of grid points per atom       ...     2855
UseSFitting                                  ... on

Time for X-Grid setup             =    2.413 sec


--------------------
CPCM SOLVATION MODEL
--------------------
CPCM parameters:
  Epsilon                                         ...      47.2000
  Refrac                                          ...       1.4790
  Rsolv                                           ...       1.3000
  Surface type                                    ... GAUSSIAN VDW
  Epsilon function type                           ...         CPCM
Radii:
 Radius for C  used is    3.8550 Bohr (=   2.0400 Ang.)
 Radius for N  used is    3.5149 Bohr (=   1.8600 Ang.)
 Radius for O  used is    3.4469 Bohr (=   1.8240 Ang.)
 Radius for H  used is    2.4944 Bohr (=   1.3200 Ang.)
Calculating surface                               ...        done! (  0.0s)
GEPOL surface points                              ...         2098
GEPOL Volume                                      ...    2536.6381
GEPOL Surface-area                                ...    1233.1462
Calculating surface distance matrix               ...        done! (  0.1s)
Performing Cholesky decomposition & store         ...        done! (  0.3s)
Overall time for CPCM initialization              ...                 0.4s
--------------
SCF ITERATIONS
--------------
ITER       Energy         Delta-E        Max-DP      RMS-DP      [F,P]     Damp
               ***  Starting incremental Fock matrix formation  ***
  0  -1142.7826078964   0.000000000000 0.30326904  0.00090112  0.2549383 0.7000
  1  -1143.0138125754  -0.231204678965 0.32306718  0.00084112  0.1106207 0.7000
                               ***Turning on DIIS***
  2  -1143.1068494417  -0.093036866267 0.46172837  0.00140851  0.0362574 0.0000
  3  -1143.2613090804  -0.154459638687 0.32735508  0.00073703  0.0596462 0.0000
  4  -1143.2884176068  -0.027108526384 0.09852670  0.00024814  0.0142868 0.0000
  5  -1143.2902657800  -0.001848173260 0.02917445  0.00007691  0.0052393 0.0000
                      *** Initiating the SOSCF procedure ***
                           *** Shutting down DIIS ***
                      *** Re-Reading the Fockian *** 
                      *** Removing any level shift *** 
ITER      Energy       Delta-E        Grad      Rot      Max-DP    RMS-DP
  6  -1143.29038397  -0.0001181885  0.000270  0.000270  0.008354  0.000025
               *** Restarting incremental Fock matrix formation ***
  7  -1143.29037504   0.0000089326  0.000097  0.000408  0.006321  0.000020
  8  -1143.29037398   0.0000010581  0.000228  0.000274  0.001154  0.000005
  9  -1143.29037751  -0.0000035369  0.000014  0.000056  0.000853  0.000003
 10  -1143.29037745   0.0000000668  0.000029  0.000051  0.000397  0.000001
 11  -1143.29037754  -0.0000000933  0.000008  0.000030  0.000076  0.000001
 12  -1143.29037754   0.0000000017  0.000011  0.000020  0.000104  0.000001
                  ***Gradient check signals convergence***
              ***Rediagonalizing the Fockian in SOSCF/NRSCF***

               *****************************************************
               *                     SUCCESS                       *
               *           SCF CONVERGED AFTER  13 CYCLES          *
               *****************************************************

Old exchange energy                            =    -37.215286404 Eh
New exchange energy                            =    -37.215315885 Eh
Exchange energy change after final integration =     -0.000029481 Eh
Total energy after final integration           =  -1143.290406965 Eh
Final COS-X integration done in                =    18.393 sec

----------------
TOTAL SCF ENERGY
----------------

Total Energy       :        -1143.29040696 Eh          -31110.51360 eV

Components:
Nuclear Repulsion  :         2214.16743252 Eh           60250.55892 eV
Electronic Energy  :        -3357.45783948 Eh          -91361.07252 eV
One Electron Energy:        -5960.84739515 Eh         -162202.90386 eV
Two Electron Energy:         2603.38955567 Eh           70841.83134 eV
Max COSX asymmetry :            0.00000311 Eh               0.00008 eV
CPCM Dielectric    :           -0.05897005 Eh              -1.60466 eV

Virial components:
Potential Energy   :        -2281.16784943 Eh          -62073.73295 eV
Kinetic Energy     :         1137.87744246 Eh           30963.21935 eV
Virial Ratio       :            2.00475707


DFT components:
N(Alpha)           :       87.000076838191 electrons
N(Beta)            :       87.000076838191 electrons
N(Total)           :      174.000153676382 electrons
E(X)               :     -111.471718793986 Eh       
E(C)               :       -5.881644854733 Eh       
E(XC)              :     -117.353363648718 Eh       
DFET-embed. en.    :        0.000000000000 Eh       
CPCM Solvation Model Properties:
Surface-charge          :           -0.02881619
Charge-correction       :           -0.00051971 Eh              -0.01414 eV
Free-energy (cav+disp)  :  This term is not implemented in the current solvation scheme

---------------
SCF CONVERGENCE
---------------

  Last Energy change         ...    5.5777e-08  Tolerance :   1.0000e-08
  Last MAX-Density change    ...    1.7764e-15  Tolerance :   1.0000e-07
  Last RMS-Density change    ...    1.3603e-17  Tolerance :   5.0000e-09
  Last Orbital Gradient      ...    1.6738e-06  Tolerance :   1.0000e-05
  Last Orbital Rotation      ...    4.9207e-06  Tolerance :   1.0000e-05

             **** THE GBW FILE WAS UPDATED (IM_H/IM_H.gbw) ****
             **** DENSITY IM_H/IM_H.scfp WAS UPDATED ****
             **** ENERGY FILE WAS UPDATED (IM_H/IM_H.en.tmp) ****
             **** THE GBW FILE WAS UPDATED (IM_H/IM_H.gbw) ****
             **** DENSITY IM_H/IM_H.scfp WAS UPDATED ****
----------------
ORBITAL ENERGIES
----------------

  NO   OCC          E(Eh)            E(eV) 
   0   2.0000     -19.270819      -524.3856 
   1   2.0000     -19.248706      -523.7839 
   2   2.0000     -19.213843      -522.8353 
   3   2.0000     -19.174945      -521.7768 
   4   2.0000     -19.167969      -521.5870 
   5   2.0000     -14.555739      -396.0818 
   6   2.0000     -14.508750      -394.8032 
   7   2.0000     -10.372946      -282.2622 
   8   2.0000     -10.309466      -280.5348 
   9   2.0000     -10.306557      -280.4557 
  10   2.0000     -10.298634      -280.2401 
  11   2.0000     -10.295655      -280.1590 
  12   2.0000     -10.276309      -279.6326 
  13   2.0000     -10.275327      -279.6058 
  14   2.0000     -10.270398      -279.4717 
  15   2.0000     -10.265711      -279.3442 
  16   2.0000     -10.264842      -279.3206 
  17   2.0000     -10.263758      -279.2911 
  18   2.0000     -10.244165      -278.7579 
  19   2.0000     -10.235075      -278.5105 
  20   2.0000     -10.233850      -278.4772 
  21   2.0000     -10.230995      -278.3995 
  22   2.0000     -10.229969      -278.3716 
  23   2.0000     -10.225481      -278.2495 
  24   2.0000      -1.189193       -32.3596 
  25   2.0000      -1.163748       -31.6672 
  26   2.0000      -1.112779       -30.2803 
  27   2.0000      -1.078103       -29.3367 
  28   2.0000      -1.066063       -29.0090 
  29   2.0000      -1.005796       -27.3691 
  30   2.0000      -0.901993       -24.5445 
  31   2.0000      -0.885614       -24.0988 
  32   2.0000      -0.851188       -23.1620 
  33   2.0000      -0.836237       -22.7552 
  34   2.0000      -0.811397       -22.0792 
  35   2.0000      -0.793003       -21.5787 
  36   2.0000      -0.778382       -21.1808 
  37   2.0000      -0.752745       -20.4832 
  38   2.0000      -0.723958       -19.6999 
  39   2.0000      -0.707909       -19.2632 
  40   2.0000      -0.704549       -19.1717 
  41   2.0000      -0.674888       -18.3646 
  42   2.0000      -0.631194       -17.1757 
  43   2.0000      -0.617009       -16.7897 
  44   2.0000      -0.611420       -16.6376 
  45   2.0000      -0.578508       -15.7420 
  46   2.0000      -0.566124       -15.4050 
  47   2.0000      -0.561704       -15.2848 
  48   2.0000      -0.550621       -14.9832 
  49   2.0000      -0.544200       -14.8084 
  50   2.0000      -0.534300       -14.5390 
  51   2.0000      -0.526921       -14.3382 
  52   2.0000      -0.522085       -14.2067 
  53   2.0000      -0.513084       -13.9617 
  54   2.0000      -0.504017       -13.7150 
  55   2.0000      -0.498638       -13.5686 
  56   2.0000      -0.497196       -13.5294 
  57   2.0000      -0.494293       -13.4504 
  58   2.0000      -0.490074       -13.3356 
  59   2.0000      -0.486815       -13.2469 
  60   2.0000      -0.475473       -12.9383 
  61   2.0000      -0.467933       -12.7331 
  62   2.0000      -0.450475       -12.2581 
  63   2.0000      -0.448079       -12.1928 
  64   2.0000      -0.434555       -11.8248 
  65   2.0000      -0.429657       -11.6915 
  66   2.0000      -0.422609       -11.4998 
  67   2.0000      -0.412520       -11.2252 
  68   2.0000      -0.410908       -11.1814 
  69   2.0000      -0.406412       -11.0590 
  70   2.0000      -0.399818       -10.8796 
  71   2.0000      -0.391588       -10.6556 
  72   2.0000      -0.382105       -10.3976 
  73   2.0000      -0.379625       -10.3301 
  74   2.0000      -0.366186        -9.9644 
  75   2.0000      -0.344787        -9.3821 
  76   2.0000      -0.342637        -9.3236 
  77   2.0000      -0.338617        -9.2142 
  78   2.0000      -0.334615        -9.1053 
  79   2.0000      -0.319332        -8.6895 
  80   2.0000      -0.311660        -8.4807 
  81   2.0000      -0.292141        -7.9496 
  82   2.0000      -0.283249        -7.7076 
  83   2.0000      -0.270467        -7.3598 
  84   2.0000      -0.258070        -7.0224 
  85   2.0000      -0.241255        -6.5649 
  86   2.0000      -0.209270        -5.6945 
  87   0.0000      -0.081092        -2.2066 
  88   0.0000      -0.045543        -1.2393 
  89   0.0000      -0.022139        -0.6024 
  90   0.0000      -0.011559        -0.3145 
  91   0.0000       0.000717         0.0195 
  92   0.0000       0.012588         0.3425 
  93   0.0000       0.047633         1.2962 
  94   0.0000       0.057854         1.5743 
  95   0.0000       0.062949         1.7129 
  96   0.0000       0.076137         2.0718 
  97   0.0000       0.082782         2.2526 
  98   0.0000       0.085852         2.3362 
  99   0.0000       0.090229         2.4553 
 100   0.0000       0.095430         2.5968 
 101   0.0000       0.098528         2.6811 
 102   0.0000       0.102644         2.7931 
 103   0.0000       0.103992         2.8298 
 104   0.0000       0.108094         2.9414 
 105   0.0000       0.119293         3.2461 
 106   0.0000       0.122624         3.3368 
 107   0.0000       0.127211         3.4616 
 108   0.0000       0.128147         3.4871 
 109   0.0000       0.133704         3.6383 
 110   0.0000       0.134324         3.6551 
 111   0.0000       0.141194         3.8421 
 112   0.0000       0.144837         3.9412 
 113   0.0000       0.147333         4.0091 
 114   0.0000       0.155700         4.2368 
 115   0.0000       0.161526         4.3953 
 116   0.0000       0.165131         4.4934 
 117   0.0000       0.172755         4.7009 
 118   0.0000       0.181940         4.9508 
 119   0.0000       0.192771         5.2456 
 120   0.0000       0.193811         5.2739 
 121   0.0000       0.199087         5.4174 
 122   0.0000       0.208329         5.6689 
 123   0.0000       0.210654         5.7322 
 124   0.0000       0.214545         5.8381 
 125   0.0000       0.219105         5.9622 
 126   0.0000       0.221413         6.0250 
 127   0.0000       0.225731         6.1425 
 128   0.0000       0.227214         6.1828 
 129   0.0000       0.230877         6.2825 
 130   0.0000       0.236576         6.4376 
 131   0.0000       0.241517         6.5720 
 132   0.0000       0.247122         6.7245 
 133   0.0000       0.248900         6.7729 
 134   0.0000       0.250327         6.8118 
 135   0.0000       0.253355         6.8941 
 136   0.0000       0.258895         7.0449 
 137   0.0000       0.266843         7.2612 
 138   0.0000       0.271849         7.3974 
 139   0.0000       0.276817         7.5326 
 140   0.0000       0.279376         7.6022 
 141   0.0000       0.282450         7.6859 
 142   0.0000       0.285645         7.7728 
 143   0.0000       0.293854         7.9962 
 144   0.0000       0.301689         8.2094 
 145   0.0000       0.306919         8.3517 
 146   0.0000       0.312785         8.5113 
 147   0.0000       0.316970         8.6252 
 148   0.0000       0.319994         8.7075 
 149   0.0000       0.321371         8.7449 
 150   0.0000       0.327991         8.9251 
 151   0.0000       0.335314         9.1244 
 152   0.0000       0.339786         9.2461 
 153   0.0000       0.343344         9.3429 
 154   0.0000       0.347969         9.4687 
 155   0.0000       0.355552         9.6751 
 156   0.0000       0.357176         9.7193 
 157   0.0000       0.361398         9.8341 
 158   0.0000       0.364109         9.9079 
 159   0.0000       0.368808        10.0358 
 160   0.0000       0.374597        10.1933 
 161   0.0000       0.381979        10.3942 
 162   0.0000       0.385338        10.4856 
 163   0.0000       0.388314        10.5666 
 164   0.0000       0.393572        10.7096 
 165   0.0000       0.395111        10.7515 
 166   0.0000       0.405108        11.0236 
 167   0.0000       0.406138        11.0516 
 168   0.0000       0.408802        11.1241 
 169   0.0000       0.412015        11.2115 
 170   0.0000       0.414911        11.2903 
 171   0.0000       0.422008        11.4834 
 172   0.0000       0.424046        11.5389 
 173   0.0000       0.426453        11.6044 
 174   0.0000       0.430814        11.7231 
 175   0.0000       0.431845        11.7511 
 176   0.0000       0.437948        11.9172 
 177   0.0000       0.442056        12.0290 
 178   0.0000       0.444761        12.1026 
 179   0.0000       0.448480        12.2038 
 180   0.0000       0.451690        12.2911 
 181   0.0000       0.458224        12.4689 
 182   0.0000       0.464511        12.6400 
 183   0.0000       0.467991        12.7347 
 184   0.0000       0.470343        12.7987 
 185   0.0000       0.471215        12.8224 
 186   0.0000       0.474866        12.9218 
 187   0.0000       0.476936        12.9781 
 188   0.0000       0.479568        13.0497 
 189   0.0000       0.480343        13.0708 
 190   0.0000       0.484986        13.1971 
 191   0.0000       0.488663        13.2972 
 192   0.0000       0.492318        13.3967 
 193   0.0000       0.499133        13.5821 
 194   0.0000       0.502721        13.6797 
 195   0.0000       0.513567        13.9749 
 196   0.0000       0.517313        14.0768 
 197   0.0000       0.520552        14.1649 
 198   0.0000       0.522758        14.2250 
 199   0.0000       0.530462        14.4346 
 200   0.0000       0.540045        14.6954 
 201   0.0000       0.547542        14.8994 
 202   0.0000       0.548060        14.9135 
 203   0.0000       0.554228        15.0813 
 204   0.0000       0.559370        15.2212 
 205   0.0000       0.564281        15.3549 
 206   0.0000       0.567190        15.4340 
 207   0.0000       0.575439        15.6585 
 208   0.0000       0.577729        15.7208 
 209   0.0000       0.589043        16.0287 
 210   0.0000       0.594139        16.1673 
 211   0.0000       0.595235        16.1972 
 212   0.0000       0.607064        16.5190 
 213   0.0000       0.614722        16.7274 
 214   0.0000       0.615956        16.7610 
 215   0.0000       0.621079        16.9004 
 216   0.0000       0.631084        17.1727 
 217   0.0000       0.634529        17.2664 
 218   0.0000       0.644388        17.5347 
 219   0.0000       0.647956        17.6318 
 220   0.0000       0.654474        17.8091 
 221   0.0000       0.660596        17.9757 
 222   0.0000       0.665743        18.1158 
 223   0.0000       0.669673        18.2227 
 224   0.0000       0.678425        18.4609 
 225   0.0000       0.680290        18.5116 
 226   0.0000       0.688367        18.7314 
 227   0.0000       0.691945        18.8288 
 228   0.0000       0.701267        19.0825 
 229   0.0000       0.706166        19.2158 
 230   0.0000       0.708640        19.2831 
 231   0.0000       0.720019        19.5927 
 232   0.0000       0.723169        19.6784 
 233   0.0000       0.727870        19.8064 
 234   0.0000       0.731868        19.9151 
 235   0.0000       0.742294        20.1989 
 236   0.0000       0.743165        20.2226 
 237   0.0000       0.748894        20.3784 
 238   0.0000       0.756972        20.5983 
 239   0.0000       0.763341        20.7716 
 240   0.0000       0.767709        20.8904 
 241   0.0000       0.774774        21.0827 
 242   0.0000       0.778531        21.1849 
 243   0.0000       0.793197        21.5840 
 244   0.0000       0.794788        21.6273 
 245   0.0000       0.804711        21.8973 
 246   0.0000       0.809129        22.0175 
 247   0.0000       0.814326        22.1589 
 248   0.0000       0.820917        22.3383 
 249   0.0000       0.823780        22.4162 
 250   0.0000       0.836550        22.7637 
 251   0.0000       0.840849        22.8807 
 252   0.0000       0.846185        23.0259 
 253   0.0000       0.857686        23.3388 
 254   0.0000       0.862367        23.4662 
 255   0.0000       0.869216        23.6526 
 256   0.0000       0.879859        23.9422 
 257   0.0000       0.883124        24.0310 
 258   0.0000       0.891206        24.2510 
 259   0.0000       0.903524        24.5861 
 260   0.0000       0.907157        24.6850 
 261   0.0000       0.913370        24.8541 
 262   0.0000       0.922190        25.0941 
 263   0.0000       0.928787        25.2736 
 264   0.0000       0.935170        25.4473 
 265   0.0000       0.945433        25.7265 
 266   0.0000       0.950274        25.8583 
 267   0.0000       0.963594        26.2207 
 268   0.0000       0.966373        26.2963 
 269   0.0000       0.972858        26.4728 
 270   0.0000       0.982950        26.7474 
 271   0.0000       0.994975        27.0746 
 272   0.0000       0.996039        27.1036 
 273   0.0000       1.001533        27.2531 
 274   0.0000       1.008354        27.4387 
 275   0.0000       1.013589        27.5812 
 276   0.0000       1.024487        27.8777 
 277   0.0000       1.028261        27.9804 
 278   0.0000       1.032346        28.0916 
 279   0.0000       1.039801        28.2944 
 280   0.0000       1.046572        28.4787 
 281   0.0000       1.058461        28.8022 
 282   0.0000       1.070050        29.1175 
 283   0.0000       1.078955        29.3599 
 284   0.0000       1.085085        29.5267 
 285   0.0000       1.089549        29.6481 
 286   0.0000       1.097070        29.8528 
 287   0.0000       1.105118        30.0718 
 288   0.0000       1.109296        30.1855 
 289   0.0000       1.122863        30.5547 
 290   0.0000       1.128106        30.6973 
 291   0.0000       1.133574        30.8461 
 292   0.0000       1.137838        30.9621 
 293   0.0000       1.148877        31.2625 
 294   0.0000       1.151723        31.3400 
 295   0.0000       1.160998        31.5924 
 296   0.0000       1.167798        31.7774 
 297   0.0000       1.175160        31.9777 
 298   0.0000       1.181873        32.1604 
 299   0.0000       1.182927        32.1891 
 300   0.0000       1.190184        32.3865 
 301   0.0000       1.197145        32.5760 
 302   0.0000       1.204829        32.7851 
 303   0.0000       1.217926        33.1415 
 304   0.0000       1.233892        33.5759 
 305   0.0000       1.245715        33.8976 
 306   0.0000       1.247759        33.9532 
 307   0.0000       1.252428        34.0803 
 308   0.0000       1.261373        34.3237 
 309   0.0000       1.266792        34.4712 
 310   0.0000       1.278093        34.7787 
 311   0.0000       1.282499        34.8986 
 312   0.0000       1.284711        34.9588 
 313   0.0000       1.297310        35.3016 
 314   0.0000       1.300997        35.4019 
 315   0.0000       1.312351        35.7109 
 316   0.0000       1.313767        35.7494 
 317   0.0000       1.334639        36.3174 
 318   0.0000       1.346529        36.6409 
 319   0.0000       1.350001        36.7354 
 320   0.0000       1.361593        37.0508 
 321   0.0000       1.369138        37.2561 
 322   0.0000       1.376106        37.4458 
 323   0.0000       1.389456        37.8090 
 324   0.0000       1.390142        37.8277 
 325   0.0000       1.402503        38.1641 
 326   0.0000       1.413098        38.4523 
 327   0.0000       1.419897        38.6374 
 328   0.0000       1.427932        38.8560 
 329   0.0000       1.437678        39.1212 
 330   0.0000       1.448037        39.4031 
 331   0.0000       1.455603        39.6090 
 332   0.0000       1.463844        39.8332 
 333   0.0000       1.466881        39.9159 
 334   0.0000       1.476991        40.1910 
 335   0.0000       1.484665        40.3998 
 336   0.0000       1.490231        40.5512 
 337   0.0000       1.498054        40.7641 
 338   0.0000       1.498892        40.7869 
 339   0.0000       1.503558        40.9139 
 340   0.0000       1.510920        41.1142 
 341   0.0000       1.515830        41.2478 
 342   0.0000       1.522425        41.4273 
 343   0.0000       1.523105        41.4458 
 344   0.0000       1.525770        41.5183 
 345   0.0000       1.533385        41.7255 
 346   0.0000       1.538398        41.8619 
 347   0.0000       1.545317        42.0502 
 348   0.0000       1.551168        42.2094 
 349   0.0000       1.554946        42.3122 
 350   0.0000       1.570651        42.7396 
[...]
 14:    106.32   0.001697    8.58  0.004982  ( 0.014628  0.004100  0.068930)
 15:    115.93   0.000754    3.81  0.002030  ( 0.037046 -0.016771 -0.019401)
 16:    124.37   0.001065    5.38  0.002673  ( 0.003068 -0.037407 -0.035557)
 17:    152.91   0.000113    0.57  0.000231  ( 0.003935 -0.011421  0.009247)
 18:    173.98   0.002001   10.11  0.003589  (-0.027389 -0.001827  0.053253)
 19:    188.84   0.000153    0.78  0.000254  ( 0.007846  0.001611 -0.013761)
 20:    211.36   0.000639    3.23  0.000944  (-0.025341  0.007659  0.015588)
 21:    231.76   0.001111    5.62  0.001497  ( 0.023083  0.016139 -0.026519)
 22:    253.96   0.004269   21.58  0.005246  ( 0.036450  0.039604  0.048469)
 23:    267.20   0.001371    6.93  0.001602  (-0.029801  0.019626  0.018121)
 24:    278.74   0.002709   13.69  0.003033  (-0.009608  0.054162  0.002746)
 25:    293.80   0.001535    7.76  0.001630  (-0.014682  0.036620  0.008576)
 26:    314.17   0.000252    1.27  0.000250  (-0.009828 -0.007981  0.009486)
 27:    322.13   0.000506    2.56  0.000490  ( 0.021423  0.005511 -0.000703)
 28:    340.99   0.001432    7.24  0.001311  ( 0.024562 -0.026560  0.001416)
 29:    372.17   0.003597   18.18  0.003016  ( 0.041420 -0.032029  0.016565)
 30:    423.91   0.000901    4.55  0.000663  ( 0.009560 -0.023746 -0.002787)
 31:    435.97   0.000663    3.35  0.000474  (-0.005170  0.019078  0.009145)
 32:    484.87   0.002137   10.80  0.001375  ( 0.026363  0.020114 -0.016605)
 33:    494.55   0.000237    1.20  0.000150  (-0.004152  0.002881 -0.011150)
 34:    540.99   0.006935   35.05  0.004000  (-0.006658 -0.006945  0.062511)
 35:    567.28   0.002773   14.02  0.001526  (-0.019901 -0.033609  0.000112)
 36:    589.76   0.002511   12.69  0.001329  ( 0.016974 -0.024505 -0.020979)
 37:    603.53   0.000561    2.83  0.000290  ( 0.006336  0.005454  0.014838)
 38:    626.85   0.012576   63.56  0.006261  (-0.059116  0.020522  0.048426)
 39:    636.54   0.005159   26.07  0.002529  ( 0.025746  0.023860  0.036015)
 40:    654.01   0.000482    2.44  0.000230  ( 0.003388 -0.007714 -0.012619)
 41:    687.11   0.006561   33.16  0.002980  (-0.017550 -0.028416 -0.043176)
 42:    698.49   0.010057   50.83  0.004493  ( 0.027106  0.040894 -0.045676)
 43:    714.73   0.000507    2.56  0.000221  ( 0.012350  0.008279  0.000389)
 44:    724.84   0.027032  136.61  0.011638  ( 0.019314 -0.001266  0.106129)
 45:    764.47   0.005375   27.16  0.002194  (-0.017563  0.036897  0.022898)
 46:    777.78   0.017039   86.11  0.006837  (-0.010747  0.000987  0.081976)
 47:    788.20   0.003227   16.31  0.001278  ( 0.024667 -0.015619 -0.020618)
 48:    794.57   0.006691   33.81  0.002628  (-0.001357  0.029894 -0.041622)
 49:    800.07   0.001652    8.35  0.000644  ( 0.004437 -0.024765  0.003366)
 50:    806.68   0.002986   15.09  0.001155  (-0.001360 -0.023397 -0.024613)
 51:    831.99   0.001415    7.15  0.000531  (-0.016112  0.016432  0.001137)
 52:    872.61   0.001276    6.45  0.000456  ( 0.012178  0.013150  0.011630)
 53:    873.99   0.000322    1.63  0.000115  ( 0.007573  0.004209 -0.006326)
 54:    904.53   0.004571   23.10  0.001577  (-0.023251 -0.020801 -0.024571)
 55:    953.85   0.006372   32.20  0.002085  (-0.020678  0.006413  0.040200)
 56:    967.26   0.008144   41.16  0.002628  ( 0.034428  0.036632  0.010014)
 57:    975.30   0.000608    3.07  0.000195  ( 0.011916  0.005138 -0.005120)
 58:    987.35   0.002205   11.14  0.000697  (-0.004777  0.024768 -0.007780)
 59:    998.21   0.000027    0.14  0.000008  (-0.002202  0.000950  0.001637)
 60:   1006.33   0.001051    5.31  0.000326  ( 0.011096  0.009872  0.010258)
 61:   1047.47   0.000714    3.61  0.000213  (-0.000665 -0.012683 -0.007168)
 62:   1051.50   0.031003  156.68  0.009201  (-0.015185 -0.094227 -0.009589)
 63:   1056.88   0.002454   12.40  0.000725  (-0.025929 -0.002117 -0.006918)
 64:   1064.68   0.006161   31.14  0.001806  (-0.026645  0.015188 -0.029416)
 65:   1070.73   0.014166   71.59  0.004129  (-0.056903 -0.029843 -0.000439)
 66:   1086.38   0.000775    3.92  0.000223  ( 0.003151  0.000198  0.014587)
 67:   1087.63   0.007177   36.27  0.002059  ( 0.033099 -0.029998  0.007981)
 68:   1124.15   0.016483   83.30  0.004576  (-0.051958  0.035379 -0.024989)
 69:   1134.10   0.004236   21.41  0.001166  ( 0.017091  0.029051  0.005430)
 70:   1162.32   0.011895   60.11  0.003194  ( 0.004909 -0.007883 -0.055744)
 71:   1169.78   0.000952    4.81  0.000254  (-0.008783 -0.004243 -0.012599)
 72:   1171.64   0.000902    4.56  0.000240  (-0.015085  0.000233  0.003538)
 73:   1173.64   0.027235  137.63  0.007242  (-0.064454 -0.017454 -0.052751)
 74:   1176.30   0.003806   19.23  0.001010  (-0.027221 -0.009363 -0.013452)
 75:   1178.48   0.009777   49.41  0.002589  (-0.033397 -0.016651 -0.034590)
 76:   1190.33   0.000192    0.97  0.000050  (-0.002683  0.000569 -0.006537)
 77:   1206.56   0.003868   19.55  0.001000  (-0.026024  0.017026 -0.005764)
 78:   1212.31   0.000664    3.35  0.000171  ( 0.012530 -0.002261 -0.002963)
 79:   1230.07   0.002919   14.75  0.000741  (-0.018775  0.019080 -0.004910)
 80:   1235.21   0.011897   60.12  0.003006  ( 0.010932 -0.041270 -0.034394)
 81:   1244.34   0.086624  437.76  0.021724  ( 0.112949  0.003761  0.094617)
 82:   1264.66   0.053909  272.44  0.013302  ( 0.062983 -0.096092  0.010096)
 83:   1298.67   0.095075  480.47  0.022846  (-0.114700  0.091640 -0.035944)
 84:   1307.37   0.052618  265.91  0.012560  ( 0.067099 -0.081136  0.038400)
 85:   1322.68   0.003514   17.76  0.000829  ( 0.006739 -0.027911  0.002184)
 86:   1342.06   0.015253   77.08  0.003547  ( 0.032495 -0.027102  0.041907)
 87:   1355.05   0.014252   72.03  0.003282  (-0.016330 -0.053256 -0.013395)
 88:   1378.57   0.020370  102.94  0.004611  (-0.039968  0.049685 -0.023346)
 89:   1385.04   0.011666   58.96  0.002629  (-0.044399 -0.008175 -0.024299)
 90:   1401.65   0.040893  206.66  0.009104  (-0.015659 -0.090475  0.025951)
 91:   1447.37   0.005995   30.30  0.001293  (-0.027836 -0.005782 -0.022008)
 92:   1464.66   0.004513   22.80  0.000961  (-0.017799 -0.020330  0.015209)
 93:   1465.67   0.007120   35.98  0.001516  (-0.027546  0.027517  0.000341)
 94:   1472.69   0.009235   46.67  0.001957  ( 0.034355 -0.025700  0.010777)
 95:   1473.21   0.021879  110.57  0.004635  ( 0.045020  0.007521  0.050510)
 96:   1479.23   0.003541   17.90  0.000747  (-0.002486 -0.025343  0.009931)
 97:   1484.00   0.002820   14.25  0.000593  (-0.010116  0.022135  0.000861)
 98:   1497.51   0.014587   73.71  0.003040  ( 0.041706 -0.031104  0.018245)
 99:   1524.15   0.106627  538.85  0.021831  ( 0.039806  0.134624  0.046079)
100:   1534.29   0.070883  358.21  0.014417  (-0.015503 -0.115852 -0.027477)
101:   1540.19   0.019640   99.25  0.003979  ( 0.012548 -0.058379  0.020339)
102:   1541.45   0.098862  499.61  0.020014  (-0.104526 -0.082185 -0.048316)
103:   1638.88   0.002617   13.22  0.000498  (-0.007204 -0.018695 -0.009840)
104:   1646.69   0.006413   32.41  0.001215  ( 0.030396 -0.015901  0.006217)
105:   1663.45   0.013338   67.41  0.002502  (-0.013066  0.047117 -0.010560)
106:   1694.55   0.012730   64.33  0.002344  ( 0.033232 -0.034785 -0.005465)
107:   1790.98   0.085858  433.89  0.014960  ( 0.026385  0.088206  0.080521)
108:   3038.39   0.012597   63.66  0.001294  ( 0.035513 -0.003499  0.004521)
109:   3078.42   0.006586   33.28  0.000668  ( 0.018555 -0.010027  0.014926)
110:   3080.25   0.000349    1.76  0.000035  ( 0.002728  0.003037  0.004326)
111:   3092.46   0.010358   52.35  0.001045  ( 0.013940  0.018251  0.022756)
112:   3110.49   0.007240   36.59  0.000726  ( 0.004116 -0.005572 -0.026045)
113:   3163.65   0.003366   17.01  0.000332  (-0.011126 -0.007039  0.012597)
114:   3167.98   0.003515   17.76  0.000346  ( 0.004002 -0.017904  0.003116)
115:   3193.54   0.000104    0.52  0.000010  (-0.001962 -0.002505 -0.000098)
116:   3195.97   0.001797    9.08  0.000175  ( 0.000802 -0.012471 -0.004390)
117:   3202.16   0.002352   11.89  0.000229  (-0.009800 -0.011464  0.001318)
118:   3216.20   0.002384   12.05  0.000231  ( 0.006829 -0.012886  0.004315)
119:   3222.31   0.000053    0.27  0.000005  (-0.001596  0.001594  0.000026)
120:   3233.53   0.000342    1.73  0.000033  ( 0.005742  0.000004 -0.000028)
121:   3240.76   0.000051    0.26  0.000005  (-0.001999 -0.000947  0.000200)
122:   3243.28   0.000687    3.47  0.000066  (-0.003556  0.006991  0.002142)
123:   3255.30   0.000730    3.69  0.000070  (-0.005886 -0.004824 -0.003479)
124:   3277.73   0.001931    9.76  0.000184  (-0.008348 -0.009646 -0.004592)
125:   3293.75   0.005192   26.24  0.000492  ( 0.020608 -0.003124  0.007584)

* The epsilon (eps) is given for a Dirac delta lineshape.
** The dipole moment derivative (T) already includes vibrational overlap.

The first frequency considered to be a vibration is 6
The total number of vibrations considered is 120


--------------------------
THERMOCHEMISTRY AT 298.15K
--------------------------

Temperature         ... 298.15 K
Pressure            ... 1.00 atm
Total Mass          ... 330.34 AMU

Throughout the following assumptions are being made:
  (1) The electronic state is orbitally nondegenerate
  (2) There are no thermally accessible electronically excited states
  (3) Hindered rotations indicated by low frequency modes are not
      treated as such but are treated as vibrations and this may
      cause some error
  (4) All equations used are the standard statistical mechanics
      equations for an ideal gas
  (5) All vibrations are strictly harmonic

freq.      23.73  E(vib)   ...       0.56 
freq.      47.16  E(vib)   ...       0.53 
freq.      50.83  E(vib)   ...       0.52 
freq.      55.56  E(vib)   ...       0.52 
freq.      71.06  E(vib)   ...       0.50 
freq.      71.80  E(vib)   ...       0.50 
freq.      91.28  E(vib)   ...       0.47 
freq.      96.57  E(vib)   ...       0.47 
freq.     106.32  E(vib)   ...       0.45 
freq.     115.93  E(vib)   ...       0.44 
freq.     124.37  E(vib)   ...       0.43 
freq.     152.91  E(vib)   ...       0.40 
freq.     173.98  E(vib)   ...       0.38 
freq.     188.84  E(vib)   ...       0.36 
freq.     211.36  E(vib)   ...       0.34 
freq.     231.76  E(vib)   ...       0.32 
freq.     253.96  E(vib)   ...       0.30 
freq.     267.20  E(vib)   ...       0.29 
freq.     278.74  E(vib)   ...       0.28 
freq.     293.80  E(vib)   ...       0.27 
freq.     314.17  E(vib)   ...       0.25 
freq.     322.13  E(vib)   ...       0.25 
freq.     340.99  E(vib)   ...       0.23 
freq.     372.17  E(vib)   ...       0.21 
freq.     423.91  E(vib)   ...       0.18 
freq.     435.97  E(vib)   ...       0.17 
freq.     484.87  E(vib)   ...       0.15 
freq.     494.55  E(vib)   ...       0.14 
freq.     540.99  E(vib)   ...       0.12 
freq.     567.28  E(vib)   ...       0.11 
freq.     589.76  E(vib)   ...       0.10 
freq.     603.53  E(vib)   ...       0.10 
freq.     626.85  E(vib)   ...       0.09 
freq.     636.54  E(vib)   ...       0.09 
freq.     654.01  E(vib)   ...       0.08 
freq.     687.11  E(vib)   ...       0.07 
freq.     698.49  E(vib)   ...       0.07 
freq.     714.73  E(vib)   ...       0.07 
freq.     724.84  E(vib)   ...       0.06 
freq.     764.47  E(vib)   ...       0.06 
freq.     777.78  E(vib)   ...       0.05 
freq.     788.20  E(vib)   ...       0.05 
freq.     794.57  E(vib)   ...       0.05 
freq.     800.07  E(vib)   ...       0.05 
freq.     806.68  E(vib)   ...       0.05 
freq.     831.99  E(vib)   ...       0.04 
freq.     872.61  E(vib)   ...       0.04 
freq.     873.99  E(vib)   ...       0.04 
freq.     904.53  E(vib)   ...       0.03 
freq.     953.85  E(vib)   ...       0.03 
freq.     967.26  E(vib)   ...       0.03 
freq.     975.30  E(vib)   ...       0.03 
freq.     987.35  E(vib)   ...       0.02 
freq.     998.21  E(vib)   ...       0.02 
freq.    1006.33  E(vib)   ...       0.02 
freq.    1047.47  E(vib)   ...       0.02 
freq.    1051.50  E(vib)   ...       0.02 
freq.    1056.88  E(vib)   ...       0.02 
freq.    1064.68  E(vib)   ...       0.02 
freq.    1070.73  E(vib)   ...       0.02 
freq.    1086.38  E(vib)   ...       0.02 
freq.    1087.63  E(vib)   ...       0.02 
freq.    1124.15  E(vib)   ...       0.01 
freq.    1134.10  E(vib)   ...       0.01 
freq.    1162.32  E(vib)   ...       0.01 
freq.    1169.78  E(vib)   ...       0.01 
freq.    1171.64  E(vib)   ...       0.01 
freq.    1173.64  E(vib)   ...       0.01 
freq.    1176.30  E(vib)   ...       0.01 
freq.    1178.48  E(vib)   ...       0.01 
freq.    1190.33  E(vib)   ...       0.01 
freq.    1206.56  E(vib)   ...       0.01 
freq.    1212.31  E(vib)   ...       0.01 
freq.    1230.07  E(vib)   ...       0.01 
freq.    1235.21  E(vib)   ...       0.01 
freq.    1244.34  E(vib)   ...       0.01 
freq.    1264.66  E(vib)   ...       0.01 
freq.    1298.67  E(vib)   ...       0.01 
freq.    1307.37  E(vib)   ...       0.01 
freq.    1322.68  E(vib)   ...       0.01 
freq.    1342.06  E(vib)   ...       0.01 
freq.    1355.05  E(vib)   ...       0.01 
freq.    1378.57  E(vib)   ...       0.01 
freq.    1385.04  E(vib)   ...       0.00 
freq.    1401.65  E(vib)   ...       0.00 
freq.    1447.37  E(vib)   ...       0.00 
freq.    1464.66  E(vib)   ...       0.00 
freq.    1465.67  E(vib)   ...       0.00 
freq.    1472.69  E(vib)   ...       0.00 
freq.    1473.21  E(vib)   ...       0.00 
freq.    1479.23  E(vib)   ...       0.00 
freq.    1484.00  E(vib)   ...       0.00 
freq.    1497.51  E(vib)   ...       0.00 
freq.    1524.15  E(vib)   ...       0.00 
freq.    1534.29  E(vib)   ...       0.00 
freq.    1540.19  E(vib)   ...       0.00 
freq.    1541.45  E(vib)   ...       0.00 
freq.    1638.88  E(vib)   ...       0.00 
freq.    1646.69  E(vib)   ...       0.00 
freq.    1663.45  E(vib)   ...       0.00 
freq.    1694.55  E(vib)   ...       0.00 
freq.    1790.98  E(vib)   ...       0.00 
freq.    3038.39  E(vib)   ...       0.00 
freq.    3078.42  E(vib)   ...       0.00 
freq.    3080.25  E(vib)   ...       0.00 
freq.    3092.46  E(vib)   ...       0.00 
freq.    3110.49  E(vib)   ...       0.00 
freq.    3163.65  E(vib)   ...       0.00 
freq.    3167.98  E(vib)   ...       0.00 
freq.    3193.54  E(vib)   ...       0.00 
freq.    3195.97  E(vib)   ...       0.00 
freq.    3202.16  E(vib)   ...       0.00 
freq.    3216.20  E(vib)   ...       0.00 
freq.    3222.31  E(vib)   ...       0.00 
freq.    3233.53  E(vib)   ...       0.00 
freq.    3240.76  E(vib)   ...       0.00 
freq.    3243.28  E(vib)   ...       0.00 
freq.    3255.30  E(vib)   ...       0.00 
freq.    3277.73  E(vib)   ...       0.00 
freq.    3293.75  E(vib)   ...       0.00 

------------
INNER ENERGY
------------

The inner energy is: U= E(el) + E(ZPE) + E(vib) + E(rot) + E(trans)
    E(el)   - is the total energy from the electronic structure calculation
              = E(kin-el) + E(nuc-el) + E(el-el) + E(nuc-nuc)
    E(ZPE)  - the the zero temperature vibrational energy from the frequency calculation
    E(vib)  - the the finite temperature correction to E(ZPE) due to population
              of excited vibrational states
    E(rot)  - is the rotational thermal energy
    E(trans)- is the translational thermal energy

Summary of contributions to the inner energy U:
Electronic energy                ...  -1143.34750609 Eh
Zero point energy                ...      0.33497851 Eh     210.20 kcal/mol
Thermal vibrational correction   ...      0.01894407 Eh      11.89 kcal/mol
Thermal rotational correction    ...      0.00141627 Eh       0.89 kcal/mol
Thermal translational correction ...      0.00141627 Eh       0.89 kcal/mol
-----------------------------------------------------------------------
Total thermal energy                  -1142.99075096 Eh


Summary of corrections to the electronic energy:
(perhaps to be used in another calculation)
Total thermal correction                  0.02177661 Eh      13.67 kcal/mol
Non-thermal (ZPE) correction              0.33497851 Eh     210.20 kcal/mol
-----------------------------------------------------------------------
Total correction                          0.35675512 Eh     223.87 kcal/mol


--------
ENTHALPY
--------

The enthalpy is H = U + kB*T
                kB is Boltzmann's constant
Total free energy                 ...  -1142.99075096 Eh 
Thermal Enthalpy correction       ...      0.00094421 Eh       0.59 kcal/mol
-----------------------------------------------------------------------
Total Enthalpy                    ...  -1142.98980675 Eh


Note: Only C1 symmetry has been detected, increase convergence thresholds 
      if your molecule has a higher symmetry. Symmetry factor of 1.0 is   
      used for the rotational entropy correction. 
 

Note: Rotational entropy computed according to Herzberg 
Infrared and Raman Spectra, Chapter V,1, Van Nostrand Reinhold, 1945 
Point Group:  C1, Symmetry Number:   1  
Rotational constants in cm-1:     0.009466     0.007707     0.006691 

Vibrational entropy computed according to the QRRHO of S. Grimme
Chem.Eur.J. 2012 18 9955


-------
ENTROPY
-------

The entropy contributions are T*S = T*(S(el)+S(vib)+S(rot)+S(trans))
     S(el)   - electronic entropy
     S(vib)  - vibrational entropy
     S(rot)  - rotational entropy
     S(trans)- translational entropy
The entropies will be listed as multiplied by the temperature to get
units of energy

Electronic entropy                ...      0.00000000 Eh      0.00 kcal/mol
Vibrational entropy               ...      0.03381619 Eh     21.22 kcal/mol
Rotational entropy                ...      0.01637158 Eh     10.27 kcal/mol
Translational entropy             ...      0.02056362 Eh     12.90 kcal/mol
-----------------------------------------------------------------------
Final entropy term                ...      0.07075139 Eh     44.40 kcal/mol

In case the symmetry of your molecule has not been determined correctly
or in case you have a reason to use a different symmetry number we print 
out the resulting rotational entropy values for sn=1,12 :
 --------------------------------------------------------
|  sn= 1 | S(rot)=       0.01637158 Eh     10.27 kcal/mol|
|  sn= 2 | S(rot)=       0.01571713 Eh      9.86 kcal/mol|
|  sn= 3 | S(rot)=       0.01533430 Eh      9.62 kcal/mol|
|  sn= 4 | S(rot)=       0.01506267 Eh      9.45 kcal/mol|
|  sn= 5 | S(rot)=       0.01485198 Eh      9.32 kcal/mol|
|  sn= 6 | S(rot)=       0.01467984 Eh      9.21 kcal/mol|
|  sn= 7 | S(rot)=       0.01453429 Eh      9.12 kcal/mol|
|  sn= 8 | S(rot)=       0.01440821 Eh      9.04 kcal/mol|
|  sn= 9 | S(rot)=       0.01429701 Eh      8.97 kcal/mol|
|  sn=10 | S(rot)=       0.01419753 Eh      8.91 kcal/mol|
|  sn=11 | S(rot)=       0.01410754 Eh      8.85 kcal/mol|
|  sn=12 | S(rot)=       0.01402538 Eh      8.80 kcal/mol|
 --------------------------------------------------------


-------------------
GIBBS FREE ENERGY
-------------------

The Gibbs free energy is G = H - T*S

Total enthalpy                    ...  -1142.98980675 Eh 
Total entropy correction          ...     -0.07075139 Eh    -44.40 kcal/mol
-----------------------------------------------------------------------
Final Gibbs free energy         ...  -1143.06055815 Eh

For completeness - the Gibbs free energy minus the electronic energy
G-E(el)                           ...      0.28694794 Eh    180.06 kcal/mol


Timings for individual modules:

Sum of individual times         ...     5322.464 sec (=  88.708 min)
GTO integral calculation        ...       39.108 sec (=   0.652 min)   0.7 %
SCF iterations                  ...     1838.315 sec (=  30.639 min)  34.5 %
SCF Gradient evaluation         ...      499.070 sec (=   8.318 min)   9.4 %
Geometry relaxation             ...        2.354 sec (=   0.039 min)   0.0 %
Analytical frequency calculation...     2943.617 sec (=  49.060 min)  55.3 %
                             ****ORCA TERMINATED NORMALLY****
TOTAL RUN TIME: 0 days 1 hours 29 minutes 27 seconds 529 msec
