
                                 *****************
                                 * O   R   C   A *
                                 *****************

                                            #,                                       
                                            ###                                      
                                            ####                                     
                                            #####                                    
                                            ######                                   
                                           ########,                                 
                                     ,,################,,,,,                         
                               ,,#################################,,                 
                          ,,##########################################,,             
                       ,#########################################, ''#####,          
                    ,#############################################,,   '####,        
                  ,##################################################,,,,####,       
                ,###########''''           ''''###############################       
              ,#####''   ,,,,##########,,,,          '''####'''          '####       
            ,##' ,,,,###########################,,,                        '##       
           ' ,,###''''                  '''############,,,                           
         ,,##''                                '''############,,,,        ,,,,,,###''
      ,#''                                            '''#######################'''  
     '                                                          ''''####''''         
             ,#######,   #######,   ,#######,      ##                                
            ,#'     '#,  ##    ##  ,#'     '#,    #''#        ######   ,####,        
            ##       ##  ##   ,#'  ##            #'  '#       #        #'  '#        
            ##       ##  #######   ##           ,######,      #####,   #    #        
            '#,     ,#'  ##    ##  '#,     ,#' ,#      #,         ##   #,  ,#        
             '#######'   ##     ##  '#######'  #'      '#     #####' # '####'        



                  #######################################################
                  #                        -***-                        #
                  #          Department of theory and spectroscopy      #
                  #    Directorship and core code : Frank Neese         #
                  #        Max Planck Institute fuer Kohlenforschung    #
                  #                Kaiser Wilhelm Platz 1               #
                  #                 D-45470 Muelheim/Ruhr               #
                  #                      Germany                        #
                  #                                                     #
                  #                  All rights reserved                #
                  #                        -***-                        #
                  #######################################################


                         Program Version 5.0.4 -  RELEASE  -


 With contributions from (in alphabetic order):
   Daniel Aravena         : Magnetic Suceptibility
   Michael Atanasov       : Ab Initio Ligand Field Theory (pilot matlab implementation)
   Alexander A. Auer      : GIAO ZORA, VPT2 properties, NMR spectrum
   Ute Becker             : Parallelization
   Giovanni Bistoni       : ED, misc. LED, open-shell LED, HFLD
   Martin Brehm           : Molecular dynamics
   Dmytro Bykov           : SCF Hessian
   Vijay G. Chilkuri      : MRCI spin determinant printing, contributions to CSF-ICE
   Dipayan Datta          : RHF DLPNO-CCSD density
   Achintya Kumar Dutta   : EOM-CC, STEOM-CC
   Dmitry Ganyushin       : Spin-Orbit,Spin-Spin,Magnetic field MRCI
   Miquel Garcia          : C-PCM and meta-GGA Hessian, CC/C-PCM, Gaussian charge scheme
   Yang Guo               : DLPNO-NEVPT2, F12-NEVPT2, CIM, IAO-localization
   Andreas Hansen         : Spin unrestricted coupled pair/coupled cluster methods
   Benjamin Helmich-Paris : MC-RPA, TRAH-SCF, COSX integrals
   Lee Huntington         : MR-EOM, pCC
   Robert Izsak           : Overlap fitted RIJCOSX, COSX-SCS-MP3, EOM
   Marcus Kettner         : VPT2
   Christian Kollmar      : KDIIS, OOCD, Brueckner-CCSD(T), CCSD density, CASPT2, CASPT2-K
   Simone Kossmann        : Meta GGA functionals, TD-DFT gradient, OOMP2, MP2 Hessian
   Martin Krupicka        : Initial AUTO-CI
   Lucas Lang             : DCDCAS
   Marvin Lechner         : AUTO-CI (C++ implementation), FIC-MRCC
   Dagmar Lenk            : GEPOL surface, SMD
   Dimitrios Liakos       : Extrapolation schemes; Compound Job, initial MDCI parallelization
   Dimitrios Manganas     : Further ROCIS development; embedding schemes
   Dimitrios Pantazis     : SARC Basis sets
   Anastasios Papadopoulos: AUTO-CI, single reference methods and gradients
   Taras Petrenko         : DFT Hessian,TD-DFT gradient, ASA, ECA, R-Raman, ABS, FL, XAS/XES, NRVS
   Peter Pinski           : DLPNO-MP2, DLPNO-MP2 Gradient
   Christoph Reimann      : Effective Core Potentials
   Marius Retegan         : Local ZFS, SOC
   Christoph Riplinger    : Optimizer, TS searches, QM/MM, DLPNO-CCSD(T), (RO)-DLPNO pert. Triples
   Tobias Risthaus        : Range-separated hybrids, TD-DFT gradient, RPA, STAB
   Michael Roemelt        : Original ROCIS implementation
   Masaaki Saitow         : Open-shell DLPNO-CCSD energy and density
   Barbara Sandhoefer     : DKH picture change effects
   Avijit Sen             : IP-ROCIS
   Kantharuban Sivalingam : CASSCF convergence, NEVPT2, FIC-MRCI
   Bernardo de Souza      : ESD, SOC TD-DFT
   Georgi Stoychev        : AutoAux, RI-MP2 NMR, DLPNO-MP2 response
   Willem Van den Heuvel  : Paramagnetic NMR
   Boris Wezisla          : Elementary symmetry handling
   Frank Wennmohs         : Technical directorship


 We gratefully acknowledge several colleagues who have allowed us to
 interface, adapt or use parts of their codes:
   Stefan Grimme, W. Hujo, H. Kruse, P. Pracht,  : VdW corrections, initial TS optimization,
                  C. Bannwarth, S. Ehlert          DFT functionals, gCP, sTDA/sTD-DF
   Ed Valeev, F. Pavosevic, A. Kumar             : LibInt (2-el integral package), F12 methods
   Garnet Chan, S. Sharma, J. Yang, R. Olivares  : DMRG
   Ulf Ekstrom                                   : XCFun DFT Library
   Mihaly Kallay                                 : mrcc  (arbitrary order and MRCC methods)
   Jiri Pittner, Ondrej Demel                    : Mk-CCSD
   Frank Weinhold                                : gennbo (NPA and NBO analysis)
   Christopher J. Cramer and Donald G. Truhlar   : smd solvation model
   Lars Goerigk                                  : TD-DFT with DH, B97 family of functionals
   V. Asgeirsson, H. Jonsson                     : NEB implementation
   FAccTs GmbH                                   : IRC, NEB, NEB-TS, DLPNO-Multilevel, CI-OPT
                                                   MM, QMMM, 2- and 3-layer-ONIOM, Crystal-QMMM,
                                                   LR-CPCM, SF, NACMEs, symmetry and pop. for TD-DFT,
                                                   nearIR, NL-DFT gradient (VV10), updates on ESD,
                                                   ML-optimized integration grids
   S Lehtola, MJT Oliveira, MAL Marques          : LibXC Library
   Liviu Ungur et al                             : ANISO software


 Your calculation uses the libint2 library for the computation of 2-el integrals
 For citations please refer to: http://libint.valeyev.net

 Your ORCA version has been built with support for libXC version: 5.1.0
 For citations please refer to: https://tddft.org/programs/libxc/

 This ORCA versions uses:
   CBLAS   interface :  Fast vector & matrix operations
   LAPACKE interface :  Fast linear algebra routines
   SCALAPACK package :  Parallel linear algebra routines
   Shared memory     :  Shared parallel matrices
   BLAS/LAPACK       :  OpenBLAS 0.3.15  USE64BITINT DYNAMIC_ARCH NO_AFFINITY Haswell SINGLE_THREADED
        Core in use  :  Haswell
   Copyright (c) 2011-2014, The OpenBLAS Project


Your calculation utilizes the atom-pairwise dispersion correction
with the Becke-Johnson damping scheme (D3BJ)
Cite in your paper:
S.Grimme, S.Ehrlich, L.Goerigk, J Comput Chem, (2011), 32, 1456–1465 
S.Grimme, J.Antony, S.Ehrlich and H.Krieg, J.Chem.Phys., 132, (2010), 154104 
   

================================================================================

----- Orbital basis set information -----
Your calculation utilizes the basis: def2-TZVP
   F. Weigend and R. Ahlrichs, Phys. Chem. Chem. Phys. 7, 3297 (2005).

----- AuxJ basis set information -----
Your calculation utilizes the auxiliary basis: def2/J
   F. Weigend, Phys. Chem. Chem. Phys. 8, 1057 (2006).

================================================================================
                                        WARNINGS
                       Please study these warnings very carefully!
================================================================================


WARNING: Geometry Optimization
  ===> : Switching off AutoStart
         For restart on a previous wavefunction, please use MOREAD

INFO   : the flag for use of the SHARK integral package has been found!

================================================================================
                                       INPUT FILE
================================================================================
NAME = IM_Me/IM_Me.inp
|  1> %pal nprocs 24 end
|  2> ! PBE0 D3BJ def2-TZVP TightSCF OPT FREQ TightOpt
|  3> ! CPCM(dmso)
|  4> %scf
|  5> MaxIter 800
|  6> end
|  7> 
|  8> %geom
|  9> MaxIter 800
| 10> MaxStep 0.15
| 11> end
| 12> 
| 13> *xyz 0 1
| 14> C       1.75870700      1.86498200      3.77943300
| 15> C       2.12286600      0.51665300      3.74039700
| 16> C       2.26075700     -0.10375100      2.51583100
| 17> N       2.05484900      0.58144000      1.37340400
| 18> C       1.70330900      1.88509600      1.38098000
| 19> C       1.55433900      2.55168700      2.58790700
| 20> C       2.08228100     -0.12195200      0.09255000
| 21> C       3.05155800      0.57178000     -0.85186500
| 22> O       3.80672100      1.45376000     -0.52192200
| 23> O       3.09249900     -0.05100600     -2.01588800
| 24> C       3.94755000      0.50474300     -3.00452500
| 25> H       1.64046200      2.37495700      4.73813400
| 26> H       2.52998000     -1.15591600      2.40923500
| 27> H       1.62189200      2.35972800      0.39710400
| 28> H       1.27847000      3.60684100      2.57742600
| 29> H       2.52471700     -1.11056000      0.28262200
| 30> H       4.98716000      0.54101800     -2.64943000
| 31> H       3.61508900      1.52081300     -3.26179700
| 32> H       2.29822000     -0.05678700      4.65121200
| 33> C      -0.32601700      0.76530600     -0.36391200
| 34> C       0.61444000     -0.39866700     -0.36070800
| 35> C       0.56702200     -1.25984200     -1.61216000
| 36> C       0.06894000     -0.78834500     -2.82399600
| 37> C       0.01901400     -1.60305300     -3.95669300
| 38> C       0.47163800     -2.91701400     -3.87563200
| 39> C       0.96560500     -3.42039800     -2.67078000
| 40> C       1.01119700     -2.59629400     -1.54204800
| 41> O       1.47277000     -3.00125000     -0.33611300
| 42> C       1.93028200     -4.32430200     -0.18127900
| 43> N      -0.04502400      1.86851700     -1.05671900
| 44> O      -0.89768800      2.78078500     -1.20768200
| 45> H       0.24959000     -1.05543900      0.44687300
| 46> H      -0.27871900      0.24440400     -2.88182700
| 47> H      -0.37309700     -1.20859300     -4.89696500
| 48> H       0.43953200     -3.56821700     -4.75295500
| 49> H       1.30988400     -4.45372000     -2.61807600
| 50> H       2.24813500     -4.42315700      0.86390800
| 51> H       2.78756100     -4.53421200     -0.84207700
| 52> H       1.12974000     -5.05383300     -0.38776600
| 53> O       1.13377100      2.03976800     -1.53368700
| 54> H       3.86762500     -0.15001600     -3.87934500
| 55> C      -1.70639200      0.62945000      0.18251800
| 56> H      -2.45617700      0.42273000     -0.60517100
| 57> H      -1.75193600     -0.19455300      0.90902600
| 58> H      -2.02514800      1.55979900      0.67771800
| 59> *
| 60> 
| 61>                          ****END OF INPUT****
================================================================================

                       *****************************
                       * Geometry Optimization Run *
                       *****************************

Geometry optimization settings:
Update method            Update   .... BFGS
Choice of coordinates    CoordSys .... Z-matrix Internals
Initial Hessian          InHess   .... Almoef's Model

Convergence Tolerances:
Energy Change            TolE     ....  1.0000e-06 Eh
Max. Gradient            TolMAXG  ....  1.0000e-04 Eh/bohr
RMS Gradient             TolRMSG  ....  3.0000e-05 Eh/bohr
Max. Displacement        TolMAXD  ....  1.0000e-03 bohr
RMS Displacement         TolRMSD  ....  6.0000e-04 bohr
Strict Convergence                ....  False
------------------------------------------------------------------------------
                        ORCA OPTIMIZATION COORDINATE SETUP
------------------------------------------------------------------------------

The optimization will be done in new redundant internal coordinates
Making redundant internal coordinates   ...  (new redundants) done
Evaluating the initial hessian          ...  (Almloef) done
Evaluating the coordinates              ...  done
Calculating the B-matrix                .... done
Calculating the G-matrix                .... done
Diagonalizing the G-matrix              .... done
Small eigenvalue found = 3.274e-03
Small eigenvalue found = 5.258e-03
Small eigenvalue found = 7.507e-03
Small eigenvalue found = 9.221e-03
Small eigenvalue found = 1.222e-02
Small eigenvalue found = 1.724e-02
Small eigenvalue found = 1.896e-02
The first mode is                       ....   95
The number of degrees of freedom        ....  129

    -----------------------------------------------------------------
                    Redundant Internal Coordinates


    -----------------------------------------------------------------
         Definition                    Initial Value    Approx d2E/dq
    -----------------------------------------------------------------
      1. B(C   1,C   0)                  1.3972         0.608520   
      2. B(C   2,C   1)                  1.3797         0.648973   
      3. B(N   3,C   2)                  1.3480         0.653027   
      4. B(C   4,N   3)                  1.3502         0.647597   
      5. B(C   5,C   4)                  1.3868         0.632190   
      6. B(C   5,C   0)                  1.3903         0.624001   
      7. B(C   6,N   3)                  1.4615         0.430267   
      8. B(C   7,C   6)                  1.5208         0.386487   
      9. B(O   8,C   7)                  1.2071         1.095786   
     10. B(O   9,C   7)                  1.3208         0.721597   
     11. B(C  10,O   9)                  1.4203         0.500572   
     12. B(H  11,C   0)                  1.0923         0.357043   
     13. B(H  12,C   2)                  1.0913         0.358409   
     14. B(H  13,C   4)                  1.0954         0.353018   
     15. B(H  14,C   5)                  1.0907         0.359213   
     16. B(H  15,C   6)                  1.0996         0.347562   
     17. B(H  16,C  10)                  1.0992         0.348158   
     18. B(H  17,C  10)                  1.0996         0.347623   
     19. B(H  18,C   1)                  1.0905         0.359454   
     20. B(C  20,C  19)                  1.4964         0.422607   
     21. B(C  20,C   6)                  1.5610         0.333423   
     22. B(C  21,C  20)                  1.5199         0.387740   
     23. B(C  22,C  21)                  1.3925         0.619178   
     24. B(C  23,C  22)                  1.3962         0.610831   
     25. B(C  24,C  23)                  1.3921         0.620003   
     26. B(C  25,C  24)                  1.3961         0.610974   
     27. B(C  26,C  25)                  1.3983         0.606018   
     28. B(C  26,C  21)                  1.4101         0.580377   
     29. B(O  27,C  26)                  1.3533         0.640455   
     30. B(C  28,O  27)                  1.4085         0.522908   
     31. B(N  29,C  19)                  1.3327         0.690780   
     32. B(O  30,N  29)                  1.2578         0.814574   
     33. B(H  31,C  20)                  1.1030         0.343282   
     34. B(H  32,C  22)                  1.0912         0.358477   
     35. B(H  33,C  23)                  1.0925         0.356865   
     36. B(H  34,C  24)                  1.0931         0.356068   
     37. B(H  35,C  25)                  1.0904         0.359518   
     38. B(H  36,C  28)                  1.0969         0.351070   
     39. B(H  37,C  28)                  1.1026         0.343859   
     40. B(H  38,C  28)                  1.1026         0.343816   
     41. B(O  39,N  29)                  1.2831         0.742235   
     42. B(H  40,C  10)                  1.0956         0.352727   
     43. B(C  41,C  19)                  1.4908         0.431442   
     44. B(H  42,C  41)                  1.1070         0.338346   
     45. B(H  43,C  41)                  1.0995         0.347768   
     46. B(H  44,C  41)                  1.1011         0.345737   
     47. A(C   1,C   0,H  11)          120.2175         0.351288   
     48. A(C   5,C   0,H  11)          120.3752         0.352784   
     49. A(C   1,C   0,C   5)          119.4067         0.433110   
     50. A(C   0,C   1,H  18)          121.7385         0.351688   
     51. A(C   0,C   1,C   2)          118.9994         0.436180   
     52. A(C   2,C   1,H  18)          119.2619         0.355543   
     53. A(N   3,C   2,H  12)          116.4229         0.353548   
     54. A(C   1,C   2,H  12)          123.0188         0.355367   
     55. A(C   1,C   2,N   3)          120.5571         0.438868   
     56. A(C   2,N   3,C   6)          119.6855         0.405168   
     57. A(C   2,N   3,C   4)          121.7214         0.435823   
     58. A(C   4,N   3,C   6)          118.3246         0.404571   
     59. A(C   5,C   4,H  13)          124.4323         0.352885   
     60. A(N   3,C   4,C   5)          119.7974         0.436143   
     61. A(N   3,C   4,H  13)          115.6361         0.352144   
     62. A(C   0,C   5,C   4)          119.5148         0.436095   
     63. A(C   0,C   5,H  14)          121.5498         0.353146   
     64. A(C   4,C   5,H  14)          118.9354         0.353927   
     65. A(C   7,C   6,C  20)          119.9927         0.358445   
     66. A(N   3,C   6,C  20)          108.7925         0.362798   
     67. A(H  15,C   6,C  20)          105.6144         0.316508   
     68. A(N   3,C   6,H  15)          106.7827         0.328041   
     69. A(N   3,C   6,C   7)          109.6737         0.372105   
     70. A(C   7,C   6,H  15)          105.1303         0.324241   
     71. A(C   6,C   7,O   9)          110.6076         0.407253   
     72. A(C   6,C   7,O   8)          124.2161         0.438814   
     73. A(O   8,C   7,O   9)          124.4744         0.488597   
     74. A(C   7,O   9,C  10)          116.5899         0.423664   
     75. A(O   9,C  10,H  40)          106.1425         0.337199   
     76. A(H  16,C  10,H  17)          109.3326         0.287712   
     77. A(O   9,C  10,H  17)          110.0230         0.336381   
     78. A(O   9,C  10,H  16)          110.9423         0.336467   
     79. A(H  17,C  10,H  40)          110.0806         0.288300   
     80. A(H  16,C  10,H  40)          110.2834         0.288369   
     81. A(C  20,C  19,N  29)          120.8309         0.410562   
     82. A(N  29,C  19,C  41)          117.4658         0.412071   
     83. A(C  20,C  19,C  41)          120.6804         0.380465   
     84. A(C  21,C  20,H  31)          104.7827         0.323754   
     85. A(C  19,C  20,H  31)          104.8822         0.328374   
     86. A(C   6,C  20,H  31)          101.7709         0.315871   
     87. A(C  19,C  20,C  21)          114.7941         0.373504   
     88. A(C   6,C  20,C  21)          111.6462         0.358643   
     89. A(C   6,C  20,C  19)          116.9821         0.363949   
     90. A(C  22,C  21,C  26)          118.4816         0.428844   
     91. A(C  20,C  21,C  26)          119.0950         0.394683   
     92. A(C  20,C  21,C  22)          122.4042         0.399193   
     93. A(C  23,C  22,H  32)          119.8596         0.351752   
     94. A(C  21,C  22,H  32)          118.7209         0.352560   
     95. A(C  21,C  22,C  23)          121.4169         0.432801   
     96. A(C  24,C  23,H  33)          120.5060         0.352371   
     97. A(C  22,C  23,H  33)          120.0274         0.351484   
     98. A(C  22,C  23,C  24)          119.4666         0.432905   
     99. A(C  25,C  24,H  34)          119.2265         0.351365   
    100. A(C  23,C  24,H  34)          120.4000         0.352237   
    101. A(C  23,C  24,C  25)          120.3727         0.432923   
    102. A(C  26,C  25,H  35)          120.6091         0.351454   
    103. A(C  24,C  25,H  35)          119.6765         0.351938   
    104. A(C  24,C  25,C  26)          119.7142         0.431152   
    105. A(C  25,C  26,O  27)          123.6482         0.431975   
    106. A(C  21,C  26,O  27)          115.8089         0.428635   
    107. A(C  21,C  26,C  25)          120.5427         0.427196   
    108. A(C  26,O  27,C  28)          119.3311         0.417984   
    109. A(H  36,C  28,H  38)          109.2203         0.287592   
    110. A(O  27,C  28,H  38)          111.4134         0.338216   
    111. A(H  36,C  28,H  37)          109.1840         0.287597   
    112. A(O  27,C  28,H  37)          111.4397         0.338223   
    113. A(O  27,C  28,H  36)          106.4710         0.339396   
    114. A(H  37,C  28,H  38)          109.0458         0.286661   
    115. A(C  19,N  29,O  30)          121.3234         0.455877   
    116. A(O  30,N  29,O  39)          118.7750         0.458762   
    117. A(C  19,N  29,O  39)          119.8307         0.448236   
    118. A(H  43,C  41,H  44)          108.9092         0.287417   
    119. A(H  42,C  41,H  44)          106.3634         0.286188   
    120. A(C  19,C  41,H  44)          110.8485         0.329886   
    121. A(H  42,C  41,H  43)          107.5884         0.286449   
    122. A(C  19,C  41,H  43)          110.4168         0.330206   
    123. A(C  19,C  41,H  42)          112.5423         0.328711   
    124. D(C   2,C   1,C   0,H  11)    179.7821         0.025567   
    125. D(H  18,C   1,C   0,C   5)    179.6417         0.025567   
    126. D(C   2,C   1,C   0,C   5)     -0.4969         0.025567   
    127. D(H  18,C   1,C   0,H  11)     -0.0793         0.025567   
    128. D(N   3,C   2,C   1,H  18)   -179.7671         0.029318   
    129. D(H  12,C   2,C   1,C   0)   -179.2099         0.029318   
    130. D(H  12,C   2,C   1,H  18)      0.6549         0.029318   
    131. D(N   3,C   2,C   1,C   0)      0.3681         0.029318   
    132. D(C   4,N   3,C   2,H  12)    179.2842         0.034830   
    133. D(C   6,N   3,C   2,H  12)      5.3371         0.034830   
    134. D(C   4,N   3,C   2,C   1)     -0.3207         0.034830   
    135. D(C   6,N   3,C   2,C   1)   -174.2678         0.034830   
    136. D(C   5,C   4,N   3,C   6)    174.4216         0.034204   
    137. D(C   5,C   4,N   3,C   2)      0.3950         0.034204   
    138. D(H  13,C   4,N   3,C   2)    176.3703         0.034204   
    139. D(H  13,C   4,N   3,C   6)     -9.6031         0.034204   
    140. D(H  14,C   5,C   4,H  13)      3.8736         0.027723   
    141. D(C   0,C   5,C   4,H  13)   -176.1209         0.027723   
    142. D(H  14,C   5,C   0,H  11)      0.3006         0.026965   
    143. D(C   0,C   5,C   4,N   3)     -0.5208         0.027723   
    144. D(H  14,C   5,C   0,C   1)   -179.4199         0.026965   
    145. D(H  14,C   5,C   4,N   3)    179.4736         0.027723   
    146. D(C   4,C   5,C   0,H  11)   -179.7051         0.026965   
    147. D(C   4,C   5,C   0,C   1)      0.5743         0.026965   
    148. D(C  20,C   6,N   3,C   4)    -74.3444         0.015784   
    149. D(C  20,C   6,N   3,C   2)     99.8073         0.015784   
    150. D(H  15,C   6,N   3,C   4)    172.1029         0.015784   
    151. D(C   7,C   6,N   3,C   2)   -127.1584         0.015784   
    152. D(H  15,C   6,N   3,C   2)    -13.7454         0.015784   
    153. D(C   7,C   6,N   3,C   4)     58.6898         0.015784   
    154. D(O   8,C   7,C   6,N   3)      9.1379         0.011124   
    155. D(O   9,C   7,C   6,C  20)    -53.1398         0.011124   
    156. D(O   9,C   7,C   6,H  15)     65.4151         0.011124   
    157. D(O   9,C   7,C   6,N   3)    179.8922         0.011124   
    158. D(O   8,C   7,C   6,C  20)    136.1060         0.011124   
    159. D(O   8,C   7,C   6,H  15)   -105.3391         0.011124   
    160. D(C  10,O   9,C   7,O   8)    -10.1631         0.039228   
    161. D(C  10,O   9,C   7,C   6)    179.1115         0.039228   
    162. D(H  40,C  10,O   9,C   7)    178.7503         0.019811   
    163. D(H  17,C  10,O   9,C   7)    -62.1778         0.019811   
    164. D(H  16,C  10,O   9,C   7)     58.9360         0.019811   
    165. D(H  31,C  20,C  19,C  41)    -23.8938         0.013202   
    166. D(C  21,C  20,C  19,C  41)     90.5360         0.013202   
    167. D(C  21,C  20,C  19,N  29)    -77.6035         0.013202   
    168. D(C   6,C  20,C  19,C  41)   -135.7429         0.013202   
    169. D(C   6,C  20,C  19,N  29)     56.1177         0.013202   
    170. D(H  31,C  20,C   6,H  15)     51.7520         0.009034   
    171. D(H  31,C  20,C   6,C   7)    170.0611         0.009034   
    172. D(H  31,C  20,C   6,N   3)    -62.5653         0.009034   
    173. D(C  21,C  20,C   6,H  15)    -59.5392         0.009034   
    174. D(C  21,C  20,C   6,C   7)     58.7699         0.009034   
    175. D(C  21,C  20,C   6,N   3)   -173.8565         0.009034   
    176. D(C  19,C  20,C   6,H  15)    165.3607         0.009034   
    177. D(H  31,C  20,C  19,N  29)    167.9668         0.013202   
    178. D(C  19,C  20,C   6,N   3)     51.0434         0.009034   
    179. D(C  19,C  20,C   6,C   7)    -76.3301         0.009034   
    180. D(C  26,C  21,C  20,H  31)    -42.7300         0.011192   
    181. D(C  26,C  21,C  20,C  19)   -157.2176         0.011192   
    182. D(C  26,C  21,C  20,C   6)     66.6431         0.011192   
    183. D(C  22,C  21,C  20,H  31)    135.6496         0.011192   
    184. D(C  22,C  21,C  20,C  19)     21.1619         0.011192   
    185. D(C  22,C  21,C  20,C   6)   -114.9774         0.011192   
    186. D(C  23,C  22,C  21,C  20)   -179.1550         0.026525   
    187. D(H  32,C  22,C  21,C  26)    179.8145         0.026525   
    188. D(H  32,C  22,C  21,C  20)      1.4255         0.026525   
    189. D(C  23,C  22,C  21,C  26)     -0.7660         0.026525   
    190. D(H  33,C  23,C  22,H  32)     -0.3742         0.025773   
    191. D(H  33,C  23,C  22,C  21)   -179.7872         0.025773   
    192. D(C  24,C  23,C  22,H  32)    179.6412         0.025773   
    193. D(C  24,C  23,C  22,C  21)      0.2282         0.025773   
    194. D(H  34,C  24,C  23,H  33)      0.0133         0.026600   
    195. D(H  34,C  24,C  23,C  22)    179.9979         0.026600   
    196. D(C  25,C  24,C  23,H  33)   -179.6592         0.026600   
    197. D(C  25,C  24,C  23,C  22)      0.3254         0.026600   
    198. D(H  35,C  25,C  24,H  34)     -0.1579         0.025786   
    199. D(H  35,C  25,C  24,C  23)    179.5185         0.025786   
    200. D(C  26,C  25,C  24,H  34)   -179.9945         0.025786   
    201. D(C  26,C  25,C  24,C  23)     -0.3182         0.025786   
    202. D(O  27,C  26,C  25,H  35)      0.1180         0.025346   
    203. D(O  27,C  26,C  25,C  24)    179.9531         0.025346   
    204. D(C  21,C  26,C  25,H  35)    179.9290         0.025346   
    205. D(C  21,C  26,C  25,C  24)     -0.2359         0.025346   
    206. D(O  27,C  26,C  21,C  22)   -179.4077         0.023143   
    207. D(O  27,C  26,C  21,C  20)     -0.9642         0.023143   
    208. D(C  25,C  26,C  21,C  22)      0.7671         0.023143   
    209. D(C  25,C  26,C  21,C  20)    179.2106         0.023143   
    210. D(C  28,O  27,C  26,C  25)     -0.4297         0.030242   
    211. D(C  28,O  27,C  26,C  21)    179.7511         0.030242   
    212. D(H  38,C  28,O  27,C  26)    -60.8469         0.021688   
    213. D(H  37,C  28,O  27,C  26)     61.1977         0.021688   
    214. D(H  36,C  28,O  27,C  26)   -179.8393         0.021688   
    215. D(O  39,N  29,C  19,C  41)    179.1532         0.039384   
    216. D(O  39,N  29,C  19,C  20)    -12.3379         0.039384   
    217. D(O  30,N  29,C  19,C  41)      2.2534         0.039384   
    218. D(O  30,N  29,C  19,C  20)    170.7623         0.039384   
    219. D(H  44,C  41,C  19,N  29)    -46.6916         0.013745   
    220. D(H  44,C  41,C  19,C  20)    144.7814         0.013745   
    221. D(H  43,C  41,C  19,N  29)   -167.4739         0.013745   
    222. D(H  43,C  41,C  19,C  20)     23.9991         0.013745   
    223. D(H  42,C  41,C  19,N  29)     72.2869         0.013745   
    224. D(H  42,C  41,C  19,C  20)    -96.2401         0.013745   
    -----------------------------------------------------------------

Number of atoms                         .... 45
Number of degrees of freedom            .... 224

         *************************************************************
         *                GEOMETRY OPTIMIZATION CYCLE   1            *
         *************************************************************
---------------------------------
CARTESIAN COORDINATES (ANGSTROEM)
---------------------------------
  C      1.758707    1.864982    3.779433
  C      2.122866    0.516653    3.740397
  C      2.260757   -0.103751    2.515831
  N      2.054849    0.581440    1.373404
  C      1.703309    1.885096    1.380980
  C      1.554339    2.551687    2.587907
  C      2.082281   -0.121952    0.092550
  C      3.051558    0.571780   -0.851865
  O      3.806721    1.453760   -0.521922
  O      3.092499   -0.051006   -2.015888
  C      3.947550    0.504743   -3.004525
  H      1.640462    2.374957    4.738134
  H      2.529980   -1.155916    2.409235
  H      1.621892    2.359728    0.397104
  H      1.278470    3.606841    2.577426
  H      2.524717   -1.110560    0.282622
  H      4.987160    0.541018   -2.649430
  H      3.615089    1.520813   -3.261797
  H      2.298220   -0.056787    4.651212
  C     -0.326017    0.765306   -0.363912
  C      0.614440   -0.398667   -0.360708
  C      0.567022   -1.259842   -1.612160
  C      0.068940   -0.788345   -2.823996
  C      0.019014   -1.603053   -3.956693
  C      0.471638   -2.917014   -3.875632
  C      0.965605   -3.420398   -2.670780
  C      1.011197   -2.596294   -1.542048
  O      1.472770   -3.001250   -0.336113
  C      1.930282   -4.324302   -0.181279
  N     -0.045024    1.868517   -1.056719
  O     -0.897688    2.780785   -1.207682
  H      0.249590   -1.055439    0.446873
  H     -0.278719    0.244404   -2.881827
  H     -0.373097   -1.208593   -4.896965
  H      0.439532   -3.568217   -4.752955
  H      1.309884   -4.453720   -2.618076
  H      2.248135   -4.423157    0.863908
  H      2.787561   -4.534212   -0.842077
  H      1.129740   -5.053833   -0.387766
  O      1.133771    2.039768   -1.533687
  H      3.867625   -0.150016   -3.879345
  C     -1.706392    0.629450    0.182518
  H     -2.456177    0.422730   -0.605171
  H     -1.751936   -0.194553    0.909026
  H     -2.025148    1.559799    0.677718

----------------------------
CARTESIAN COORDINATES (A.U.)
----------------------------
  NO LB      ZA    FRAG     MASS         X           Y           Z
   0 C     6.0000    0    12.011    3.323475    3.524305    7.142093
   1 C     6.0000    0    12.011    4.011635    0.976333    7.068326
   2 C     6.0000    0    12.011    4.272212   -0.196061    4.754232
   3 N     7.0000    0    14.007    3.883102    1.098762    2.595357
   4 C     6.0000    0    12.011    3.218788    3.562315    2.609674
   5 C     6.0000    0    12.011    2.937275    4.821990    4.890435
   6 C     6.0000    0    12.011    3.934941   -0.230456    0.174894
   7 C     6.0000    0    12.011    5.766609    1.080508   -1.609792
   8 O     8.0000    0    15.999    7.193660    2.747208   -0.986290
   9 O     8.0000    0    15.999    5.843976   -0.096387   -3.809476
  10 C     6.0000    0    12.011    7.459788    0.953826   -5.677729
  11 H     1.0000    0     1.008    3.100024    4.488018    8.953776
  12 H     1.0000    0     1.008    4.780969   -2.184365    4.552794
  13 H     1.0000    0     1.008    3.064932    4.459240    0.750418
  14 H     1.0000    0     1.008    2.415958    6.815942    4.870629
  15 H     1.0000    0     1.008    4.771024   -2.098654    0.534078
  16 H     1.0000    0     1.008    9.424367    1.022376   -5.006697
  17 H     1.0000    0     1.008    6.831528    2.873920   -6.163903
  18 H     1.0000    0     1.008    4.343006   -0.107312    8.789517
  19 C     6.0000    0    12.011   -0.616083    1.446219   -0.687694
  20 C     6.0000    0    12.011    1.161123   -0.753371   -0.681639
  21 C     6.0000    0    12.011    1.071516   -2.380756   -3.046541
  22 C     6.0000    0    12.011    0.130278   -1.489756   -5.336579
  23 C     6.0000    0    12.011    0.035931   -3.029331   -7.477066
  24 C     6.0000    0    12.011    0.891267   -5.512358   -7.323883
  25 C     6.0000    0    12.011    1.824729   -6.463615   -5.047043
  26 C     6.0000    0    12.011    1.910885   -4.906285   -2.914048
  27 O     8.0000    0    15.999    2.783132   -5.671541   -0.635162
  28 C     6.0000    0    12.011    3.647704   -8.171747   -0.342568
  29 N     7.0000    0    14.007   -0.085083    3.530985   -1.996910
  30 O     8.0000    0    15.999   -1.696384    5.254922   -2.282188
  31 H     1.0000    0     1.008    0.471657   -1.994491    0.844468
  32 H     1.0000    0     1.008   -0.526703    0.461857   -5.445864
  33 H     1.0000    0     1.008   -0.705051   -2.283910   -9.253923
  34 H     1.0000    0     1.008    0.830595   -6.742953   -8.981783
  35 H     1.0000    0     1.008    2.475322   -8.416311   -4.947447
  36 H     1.0000    0     1.008    4.248359   -8.358555    1.632550
  37 H     1.0000    0     1.008    5.267727   -8.568419   -1.591295
  38 H     1.0000    0     1.008    2.134899   -9.550360   -0.732772
  39 O     8.0000    0    15.999    2.142517    3.854603   -2.898248
  40 H     1.0000    0     1.008    7.308752   -0.283489   -7.330900
  41 C     6.0000    0    12.011   -3.224614    1.189488    0.344909
  42 H     1.0000    0     1.008   -4.641502    0.798844   -1.143607
  43 H     1.0000    0     1.008   -3.310679   -0.367652    1.717810
  44 H     1.0000    0     1.008   -3.826975    2.947593    1.280701

--------------------------------
INTERNAL COORDINATES (ANGSTROEM)
--------------------------------
 C      0   0   0     0.000000000000     0.00000000     0.00000000
 C      1   0   0     1.397185270040     0.00000000     0.00000000
 C      2   1   0     1.379665517237   118.99941048     0.00000000
 N      3   2   1     1.347970422997   120.55706717     0.36809662
 C      4   3   2     1.350243212800   121.72141148   359.67928389
 C      5   4   3     1.386797896418   119.79742695     0.39501908
 C      4   3   2     1.461540211422   119.68548057   185.73222724
 C      7   4   3     1.520750368331   109.67373650   232.84156245
 O      8   7   4     1.207071770947   124.21606621     9.13792786
 O      8   7   4     1.320790714612   110.60764040   179.89215864
 C     10   8   7     1.420342311336   116.58993520   179.11148593
 H      1   2   3     1.092320460328   120.21746012   179.78209019
 H      3   2   1     1.091281319445   123.01880392   180.79007761
 H      5   4   3     1.095406886362   115.63613565   176.37033742
 H      6   5   4     1.090671132944   118.93541819   179.47360205
 H      7   4   3     1.099646650949   106.78271779   346.25462693
 H     11  10   8     1.099180279458   110.94225902    58.93599278
 H     11  10   8     1.099598764734   110.02295951   297.82220840
 H      2   1   3     1.090489075205   121.73851925   180.13864112
 C      7   4   3     2.606814832859    88.41334462   123.25756502
 C     20   7   4     1.496430011459    32.25015350   227.43000120
 C     21  20   7     1.519869387695   114.79410437   226.27883740
 C     22  21  20     1.392458829061   122.40420691    21.16187817
 C     23  22  21     1.396153367130   121.41693056   180.84500093
 C     24  23  22     1.392096577331   119.46662729     0.22816945
 C     25  24  23     1.396089965027   120.37273378     0.32535768
 C     26  25  24     1.398306819373   119.71417668   359.68184407
 O     27  26  25     1.353262066449   123.64822740   179.95308524
 C     28  27  26     1.408459226390   119.33112286   359.57027609
 N     20   7   4     1.332671420801   100.25296959    93.85176964
 O     30  20   7     1.257799120722   121.32339096   197.51809669
 H     21  20   7     1.103019516620   104.88223552   111.84907562
 H     23  22  21     1.091229445095   118.72092176     1.42545167
 H     24  23  22     1.092456480554   120.02740442   180.21276329
 H     25  24  23     1.093065317707   120.39996434   179.99785075
 H     26  25  24     1.090440322595   119.67651270   179.51846118
 H     29  28  27     1.096913262570   106.47101980   180.16071481
 H     29  28  27     1.102562238037   111.43967383    61.19769177
 H     29  28  27     1.102596868712   111.41341898   299.15306676
 O     30  20   7     1.283114581809   119.83071233    14.41789376
 H     11  10   8     1.095631044698   106.14249352   178.75027039
 C     20   7   4     1.490797685221   139.48355225   294.92580679
 H     42  20   7     1.106961907812   112.54232130   228.78500536
 H     42  20   7     1.099485822559   110.41682325   349.02415877
 H     42  20   7     1.101080237465   110.84846111   109.80645499

---------------------------
INTERNAL COORDINATES (A.U.)
---------------------------
 C      0   0   0     0.000000000000     0.00000000     0.00000000
 C      1   0   0     2.640297518725     0.00000000     0.00000000
 C      2   1   0     2.607189983993   118.99941048     0.00000000
 N      3   2   1     2.547294936090   120.55706717     0.36809662
 C      4   3   2     2.551589886378   121.72141148   359.67928389
 C      5   4   3     2.620668227329   119.79742695     0.39501908
 C      4   3   2     2.761910733301   119.68548057   185.73222724
 C      7   4   3     2.873801714205   109.67373650   232.84156245
 O      8   7   4     2.281035071078   124.21606621     9.13792786
 O      8   7   4     2.495932730843   110.60764040   179.89215864
 C     10   8   7     2.684057984846   116.58993520   179.11148593
 H      1   2   3     2.064186520499   120.21746012   179.78209019
 H      3   2   1     2.062222828816   123.01880392   180.79007761
 H      5   4   3     2.070019020435   115.63613565   176.37033742
 H      6   5   4     2.061069743438   118.93541819   179.47360205
 H      7   4   3     2.078031014378   106.78271779   346.25462693
 H     11  10   8     2.077149699983   110.94225902    58.93599278
 H     11  10   8     2.077940522546   110.02295951   297.82220840
 H      2   1   3     2.060725704170   121.73851925   180.13864112
 C      7   4   3     4.926166115947    88.41334462   123.25756502
 C     20   7   4     2.827842900237    32.25015350   227.43000120
 C     21  20   7     2.872136902075   114.79410437   226.27883740
 C     22  21  20     2.631365839685   122.40420691    21.16187817
 C     23  22  21     2.638347504828   121.41693056   180.84500093
 C     24  23  22     2.630681283126   119.46662729     0.22816945
 C     25  24  23     2.638227692217   120.37273378     0.32535768
 C     26  25  24     2.642416939809   119.71417668   359.68184407
 O     27  26  25     2.557294693013   123.64822740   179.95308524
 C     28  27  26     2.661602208672   119.33112286   359.57027609
 N     20   7   4     2.518384011817   100.25296959    93.85176964
 O     30  20   7     2.376895869652   121.32339096   197.51809669
 H     21  20   7     2.084404806782   104.88223552   111.84907562
 H     23  22  21     2.062124800501   118.72092176     1.42545167
 H     24  23  22     2.064443561475   120.02740442   180.21276329
 H     25  24  23     2.065594096954   120.39996434   179.99785075
 H     26  25  24     2.060633575089   119.67651270   179.51846118
 H     29  28  27     2.072865658924   106.47101980   180.16071481
 H     29  28  27     2.083540675493   111.43967383    61.19769177
 H     29  28  27     2.083606117985   111.41341898   299.15306676
 O     30  20   7     2.424735158059   119.83071233    14.41789376
 H     11  10   8     2.070442618301   106.14249352   178.75027039
 C     20   7   4     2.817199346152   139.48355225   294.92580679
 H     42  20   7     2.091854846447   112.54232130   228.78500536
 H     42  20   7     2.077727092766   110.41682325   349.02415877
 H     42  20   7     2.080740100283   110.84846111   109.80645499

---------------------
BASIS SET INFORMATION
---------------------
There are 4 groups of distinct atoms

 Group   1 Type C   : 11s6p2d1f contracted to 5s3p2d1f pattern {62111/411/11/1}
 Group   2 Type N   : 11s6p2d1f contracted to 5s3p2d1f pattern {62111/411/11/1}
 Group   3 Type O   : 11s6p2d1f contracted to 5s3p2d1f pattern {62111/411/11/1}
 Group   4 Type H   : 5s1p contracted to 3s1p pattern {311/1}

Atom   0C    basis set group =>   1
Atom   1C    basis set group =>   1
Atom   2C    basis set group =>   1
Atom   3N    basis set group =>   2
Atom   4C    basis set group =>   1
Atom   5C    basis set group =>   1
Atom   6C    basis set group =>   1
Atom   7C    basis set group =>   1
Atom   8O    basis set group =>   3
Atom   9O    basis set group =>   3
Atom  10C    basis set group =>   1
Atom  11H    basis set group =>   4
Atom  12H    basis set group =>   4
Atom  13H    basis set group =>   4
Atom  14H    basis set group =>   4
Atom  15H    basis set group =>   4
Atom  16H    basis set group =>   4
Atom  17H    basis set group =>   4
Atom  18H    basis set group =>   4
Atom  19C    basis set group =>   1
Atom  20C    basis set group =>   1
Atom  21C    basis set group =>   1
Atom  22C    basis set group =>   1
Atom  23C    basis set group =>   1
Atom  24C    basis set group =>   1
Atom  25C    basis set group =>   1
Atom  26C    basis set group =>   1
Atom  27O    basis set group =>   3
Atom  28C    basis set group =>   1
Atom  29N    basis set group =>   2
Atom  30O    basis set group =>   3
Atom  31H    basis set group =>   4
Atom  32H    basis set group =>   4
Atom  33H    basis set group =>   4
Atom  34H    basis set group =>   4
Atom  35H    basis set group =>   4
Atom  36H    basis set group =>   4
Atom  37H    basis set group =>   4
Atom  38H    basis set group =>   4
Atom  39O    basis set group =>   3
Atom  40H    basis set group =>   4
Atom  41C    basis set group =>   1
Atom  42H    basis set group =>   4
Atom  43H    basis set group =>   4
Atom  44H    basis set group =>   4
---------------------------------
AUXILIARY/J BASIS SET INFORMATION
---------------------------------
There are 4 groups of distinct atoms

 Group   1 Type C   : 12s5p4d2f1g contracted to 6s4p3d1f1g pattern {711111/2111/211/2/1}
 Group   2 Type N   : 12s5p4d2f1g contracted to 6s4p3d1f1g pattern {711111/2111/211/2/1}
 Group   3 Type O   : 12s5p4d2f1g contracted to 6s4p3d1f1g pattern {711111/2111/211/2/1}
 Group   4 Type H   : 5s2p1d contracted to 3s1p1d pattern {311/2/1}

Atom   0C    basis set group =>   1
Atom   1C    basis set group =>   1
Atom   2C    basis set group =>   1
Atom   3N    basis set group =>   2
Atom   4C    basis set group =>   1
Atom   5C    basis set group =>   1
Atom   6C    basis set group =>   1
Atom   7C    basis set group =>   1
Atom   8O    basis set group =>   3
Atom   9O    basis set group =>   3
Atom  10C    basis set group =>   1
Atom  11H    basis set group =>   4
Atom  12H    basis set group =>   4
Atom  13H    basis set group =>   4
Atom  14H    basis set group =>   4
Atom  15H    basis set group =>   4
Atom  16H    basis set group =>   4
Atom  17H    basis set group =>   4
Atom  18H    basis set group =>   4
Atom  19C    basis set group =>   1
Atom  20C    basis set group =>   1
Atom  21C    basis set group =>   1
Atom  22C    basis set group =>   1
Atom  23C    basis set group =>   1
Atom  24C    basis set group =>   1
Atom  25C    basis set group =>   1
Atom  26C    basis set group =>   1
Atom  27O    basis set group =>   3
Atom  28C    basis set group =>   1
Atom  29N    basis set group =>   2
Atom  30O    basis set group =>   3
Atom  31H    basis set group =>   4
Atom  32H    basis set group =>   4
Atom  33H    basis set group =>   4
Atom  34H    basis set group =>   4
Atom  35H    basis set group =>   4
Atom  36H    basis set group =>   4
Atom  37H    basis set group =>   4
Atom  38H    basis set group =>   4
Atom  39O    basis set group =>   3
Atom  40H    basis set group =>   4
Atom  41C    basis set group =>   1
Atom  42H    basis set group =>   4
Atom  43H    basis set group =>   4
Atom  44H    basis set group =>   4


           ************************************************************
           *        Program running with 24 parallel MPI-processes    *
           *              working on a common directory               *
           ************************************************************
------------------------------------------------------------------------------
                           ORCA GTO INTEGRAL CALCULATION
                           -- RI-GTO INTEGRALS CHOSEN --
------------------------------------------------------------------------------
------------------------------------------------------------------------------
                   ___                                                        
                  /   \      - P O W E R E D   B Y -                         
                 /     \                                                     
                 |  |  |   _    _      __       _____    __    __             
                 |  |  |  | |  | |    /  \     |  _  \  |  |  /  |          
                  \  \/   | |  | |   /    \    | | | |  |  | /  /          
                 / \  \   | |__| |  /  /\  \   | |_| |  |  |/  /          
                |  |  |   |  __  | /  /__\  \  |    /   |      \           
                |  |  |   | |  | | |   __   |  |    \   |  |\   \          
                \     /   | |  | | |  |  |  |  | |\  \  |  | \   \       
                 \___/    |_|  |_| |__|  |__|  |_| \__\ |__|  \__/        
                                                                              
                      - O R C A' S   B I G   F R I E N D -                    
                                      &                                       
                       - I N T E G R A L  F E E D E R -                       
                                                                              
 v1 FN, 2020, v2 2021                                                         
------------------------------------------------------------------------------


Reading SHARK input file IM_Me/IM_Me.SHARKINP.tmp ... ok
----------------------
SHARK INTEGRAL PACKAGE
----------------------

Number of atoms                             ...     45
Number of basis functions                   ...    895
Number of shells                            ...    355
Maximum angular momentum                    ...      3
Integral batch strategy                     ... SHARK/LIBINT Hybrid
RI-J (if used) integral strategy            ... SPLIT-RIJ (Revised 2003 algorithm where possible)
Printlevel                                  ...      1
Contraction scheme used                     ... SEGMENTED contraction
Coulomb Range Separation                    ... NOT USED
Exchange Range Separation                   ... NOT USED
Finite Nucleus Model                        ... NOT USED
Auxiliary Coulomb fitting basis             ... AVAILABLE
   # of basis functions in Aux-J            ...   1445
   # of shells in Aux-J                     ...    475
   Maximum angular momentum in Aux-J        ...      4
Auxiliary J/K fitting basis                 ... NOT available
Auxiliary Correlation fitting basis         ... NOT available
Auxiliary 'external' fitting basis          ... NOT available
Integral threshold                          ...     2.500000e-11
Primitive cut-off                           ...     2.500000e-12
Primitive pair pre-selection threshold      ...     2.500000e-12

Calculating pre-screening integrals         ... done (  0.1 sec) Dimension = 355
Organizing shell pair data                  ... done (  0.6 sec)
Shell pair information
Total number of shell pairs                 ...     63190
Shell pairs after pre-screening             ...     46134
Total number of primitive shell pairs       ...    193120
Primitive shell pairs kept                  ...     92533
          la=0 lb=0:  12062 shell pairs
          la=1 lb=0:  13302 shell pairs
          la=1 lb=1:   3693 shell pairs
          la=2 lb=0:   6568 shell pairs
          la=2 lb=1:   3682 shell pairs
          la=2 lb=2:    946 shell pairs
          la=3 lb=0:   3050 shell pairs
          la=3 lb=1:   1750 shell pairs
          la=3 lb=2:    860 shell pairs
          la=3 lb=3:    221 shell pairs

Calculating one electron integrals          ... done (  0.1 sec)
Calculating RI/J V-Matrix + Cholesky decomp.... done (  0.2 sec)
Calculating Nuclear repulsion               ... done (  0.0 sec) ENN=   2395.138860851900 Eh

SHARK setup successfully completed in   1.7 seconds

Maximum memory used throughout the entire GTOINT-calculation: 69.0 MB


           ************************************************************
           *        Program running with 24 parallel MPI-processes    *
           *              working on a common directory               *
           ************************************************************
-------------------------------------------------------------------------------
                                 ORCA SCF
-------------------------------------------------------------------------------

------------
SCF SETTINGS
------------
Hamiltonian:
 Density Functional     Method          .... DFT(GTOs)
 Exchange Functional    Exchange        .... PBE
   PBE kappa parameter   XKappa         ....  0.804000
   PBE mue parameter    XMuePBE         ....  0.219520
 Correlation Functional Correlation     .... PBE
   PBE beta parameter  CBetaPBE         ....  0.066725
 LDA part of GGA corr.  LDAOpt          .... PW91-LDA
 Gradients option       PostSCFGGA      .... off
 Hybrid DFT is turned on
   Fraction HF Exchange ScalHFX         ....  0.250000
   Scaling of DF-GGA-X  ScalDFX         ....  0.750000
   Scaling of DF-GGA-C  ScalDFC         ....  1.000000
   Scaling of DF-LDA-C  ScalLDAC        ....  1.000000
   Perturbative correction              ....  0.000000
   Density functional embedding theory  .... OFF
   NL short-range parameter             ....  6.900000
 RI-approximation to the Coulomb term is turned on
   Number of AuxJ basis functions       .... 1445
   RIJ-COSX (HFX calculated with COS-X)).... on


General Settings:
 Integral files         IntName         .... IM_Me/IM_Me
 Hartree-Fock type      HFTyp           .... RHF
 Total Charge           Charge          ....    0
 Multiplicity           Mult            ....    1
 Number of Electrons    NEL             ....  182
 Basis Dimension        Dim             ....  895
 Nuclear Repulsion      ENuc            ....   2395.1388608519 Eh

Convergence Acceleration:
 DIIS                   CNVDIIS         .... on
   Start iteration      DIISMaxIt       ....    12
   Startup error        DIISStart       ....  0.200000
   # of expansion vecs  DIISMaxEq       ....     5
   Bias factor          DIISBfac        ....   1.050
   Max. coefficient     DIISMaxC        ....  10.000
 Trust-Rad. Augm. Hess. CNVTRAH         .... auto
   Auto Start mean grad. ratio tolernc. ....  1.125000
   Auto Start start iteration           ....    20
   Auto Start num. interpolation iter.  ....    10
   Max. Number of Micro iterations      ....    16
   Max. Number of Macro iterations      .... Maxiter - #DIIS iter
   Number of Davidson start vectors     ....     2
   Converg. threshold I  (grad. norm)   ....   1.000e-05
   Converg. threshold II (energy diff.) ....   1.000e-08
   Grad. Scal. Fac. for Micro threshold ....   0.100
   Minimum threshold for Micro iter.    ....   0.010
   NR start threshold (gradient norm)   ....   0.001
   Initial trust radius                 ....   0.400
   Minimum AH scaling param. (alpha)    ....   1.000
   Maximum AH scaling param. (alpha)    .... 1000.000
   Orbital update algorithm             .... Taylor
   White noise on init. David. guess    .... on
   Maximum white noise                  ....   0.010
   Quad. conv. algorithm                .... NR
 SOSCF                  CNVSOSCF        .... on
   Start iteration      SOSCFMaxIt      ....   150
   Startup grad/error   SOSCFStart      ....  0.003300
 Level Shifting         CNVShift        .... on
   Level shift para.    LevelShift      ....    0.2500
   Turn off err/grad.   ShiftErr        ....    0.0010
 Zerner damping         CNVZerner       .... off
 Static damping         CNVDamp         .... on
   Fraction old density DampFac         ....    0.7000
   Max. Damping (<1)    DampMax         ....    0.9800
   Min. Damping (>=0)   DampMin         ....    0.0000
   Turn off err/grad.   DampErr         ....    0.1000
 Fernandez-Rico         CNVRico         .... off

SCF Procedure:
 Maximum # iterations   MaxIter         ....   800
 SCF integral mode      SCFMode         .... Direct
   Integral package                     .... SHARK and LIBINT hybrid scheme
 Reset frequency        DirectResetFreq ....    20
 Integral Threshold     Thresh          ....  2.500e-11 Eh
 Primitive CutOff       TCut            ....  2.500e-12 Eh

Convergence Tolerance:
 Convergence Check Mode ConvCheckMode   .... Total+1el-Energy
 Convergence forced     ConvForced      .... 0
 Energy Change          TolE            ....  1.000e-08 Eh
 1-El. energy change                    ....  1.000e-05 Eh
 Orbital Gradient       TolG            ....  1.000e-05
 Orbital Rotation angle TolX            ....  1.000e-05
 DIIS Error             TolErr          ....  5.000e-07


Diagonalization of the overlap matrix:
Smallest eigenvalue                        ... 5.935e-06
Time for diagonalization                   ...    0.256 sec
Threshold for overlap eigenvalues          ... 1.000e-08
Number of eigenvalues below threshold      ... 0
Time for construction of square roots      ...    0.148 sec
Total time needed                          ...    0.410 sec

Time for model grid setup =    0.362 sec

------------------------------
INITIAL GUESS: MODEL POTENTIAL
------------------------------
Loading Hartree-Fock densities                     ... done
Calculating cut-offs                               ... done
Initializing the effective Hamiltonian             ... done
Setting up the integral package (SHARK)            ... done
Starting the Coulomb interaction                   ... done (   0.5 sec)
Reading the grid                                   ... done
Mapping shells                                     ... done
Starting the XC term evaluation                    ... done (   0.2 sec)
  promolecular density results
     # of electrons  =    181.998623705
     EX              =   -151.874352056
     EC              =     -6.152973859
     EX+EC           =   -158.027325915
Transforming the Hamiltonian                       ... done (   0.1 sec)
Diagonalizing the Hamiltonian                      ... done (   0.3 sec)
Back transforming the eigenvectors                 ... done (   0.1 sec)
Now organizing SCF variables                       ... done
                      ------------------
                      INITIAL GUESS DONE (   1.8 sec)
                      ------------------
-------------------
DFT GRID GENERATION
-------------------

General Integration Accuracy     IntAcc      ... 4.388
Radial Grid Type                 RadialGrid  ... OptM3 with GC (2021)
Angular Grid (max. ang.)         AngularGrid ... 4 (Lebedev-302)
Angular grid pruning method      GridPruning ... 4 (adaptive)
Weight generation scheme         WeightScheme... Becke
Basis function cutoff            BFCut       ... 1.0000e-11
Integration weight cutoff        WCut        ... 1.0000e-14
Angular grids for H and He will be reduced by one unit
Partially contracted basis set               ... off
Rotationally invariant grid construction     ... off

Total number of grid points                  ...   212389
Total number of batches                      ...     3344
Average number of points per batch           ...       63
Average number of grid points per atom       ...     4720
Time for grid setup =    1.470 sec

--------------------
COSX GRID GENERATION
--------------------

GRIDX 1
-------
General Integration Accuracy     IntAcc      ... 3.816
Radial Grid Type                 RadialGrid  ... OptM3 with GC (2021)
Angular Grid (max. ang.)         AngularGrid ... 1 (Lebedev-50)
Angular grid pruning method      GridPruning ... 4 (adaptive)
Weight generation scheme         WeightScheme... Becke
Basis function cutoff            BFCut       ... 1.0000e-11
Integration weight cutoff        WCut        ... 1.0000e-14
Angular grids for H and He will be reduced by one unit
Partially contracted basis set               ... on
Rotationally invariant grid construction     ... off

Total number of grid points                  ...    26965
Total number of batches                      ...      444
Average number of points per batch           ...       60
Average number of grid points per atom       ...      599
UseSFitting                                  ... on

GRIDX 2
-------
General Integration Accuracy     IntAcc      ... 4.020
Radial Grid Type                 RadialGrid  ... OptM3 with GC (2021)
Angular Grid (max. ang.)         AngularGrid ... 2 (Lebedev-110)
Angular grid pruning method      GridPruning ... 4 (adaptive)
Weight generation scheme         WeightScheme... Becke
Basis function cutoff            BFCut       ... 1.0000e-11
Integration weight cutoff        WCut        ... 1.0000e-14
Angular grids for H and He will be reduced by one unit
Partially contracted basis set               ... on
Rotationally invariant grid construction     ... off

Total number of grid points                  ...    58110
Total number of batches                      ...      932
Average number of points per batch           ...       62
Average number of grid points per atom       ...     1291
UseSFitting                                  ... on

GRIDX 3
-------
General Integration Accuracy     IntAcc      ... 4.338
Radial Grid Type                 RadialGrid  ... OptM3 with GC (2021)
Angular Grid (max. ang.)         AngularGrid ... 3 (Lebedev-194)
Angular grid pruning method      GridPruning ... 4 (adaptive)
Weight generation scheme         WeightScheme... Becke
Basis function cutoff            BFCut       ... 1.0000e-11
Integration weight cutoff        WCut        ... 1.0000e-14
Angular grids for H and He will be reduced by one unit
Partially contracted basis set               ... on
Rotationally invariant grid construction     ... off

Total number of grid points                  ...   126759
Total number of batches                      ...     2003
Average number of points per batch           ...       63
Average number of grid points per atom       ...     2817
UseSFitting                                  ... on

Time for X-Grid setup             =    2.681 sec


--------------------
CPCM SOLVATION MODEL
--------------------
CPCM parameters:
  Epsilon                                         ...      47.2000
  Refrac                                          ...       1.4790
  Rsolv                                           ...       1.3000
  Surface type                                    ... GAUSSIAN VDW
  Epsilon function type                           ...         CPCM
Radii:
 Radius for C  used is    3.8550 Bohr (=   2.0400 Ang.)
 Radius for N  used is    3.5149 Bohr (=   1.8600 Ang.)
 Radius for O  used is    3.4469 Bohr (=   1.8240 Ang.)
 Radius for H  used is    2.4944 Bohr (=   1.3200 Ang.)
Calculating surface                               ...        done! (  0.0s)
GEPOL surface points                              ...         2273
GEPOL Volume                                      ...    2655.2266
GEPOL Surface-area                                ...    1309.7521
Calculating surface distance matrix               ...        done! (  0.1s)
Performing Cholesky decomposition & store         ...        done! (  0.3s)
Overall time for CPCM initialization              ...                 0.4s
--------------
SCF ITERATIONS
--------------
ITER       Energy         Delta-E        Max-DP      RMS-DP      [F,P]     Damp
               ***  Starting incremental Fock matrix formation  ***
  0  -1182.0210297096   0.000000000000 0.21972744  0.00102136  0.2641275 0.7000
  1  -1182.2707806131  -0.249750903539 0.17344664  0.00100262  0.1104869 0.7000
                               ***Turning on DIIS***
  2  -1182.3722971278  -0.101516514683 0.27822789  0.00185828  0.0396796 0.0000
  3  -1182.5367494833  -0.164452355562 0.16885559  0.00079959  0.0569589 0.0000
  4  -1182.5678487318  -0.031099248484 0.04500493  0.00029798  0.0148255 0.0000
  5  -1182.5697087582  -0.001860026357 0.02895564  0.00010127  0.0065552 0.0000
                      *** Initiating the SOSCF procedure ***
                           *** Shutting down DIIS ***
                      *** Re-Reading the Fockian *** 
                      *** Removing any level shift *** 
ITER      Energy       Delta-E        Grad      Rot      Max-DP    RMS-DP
  6  -1182.56987284  -0.0001640862  0.000404  0.000404  0.006303  0.000042
               *** Restarting incremental Fock matrix formation ***
  7  -1182.56987145   0.0000013927  0.000296  0.001125  0.003232  0.000031
  8  -1182.56985710   0.0000143484  0.000577  0.000752  0.001977  0.000013
  9  -1182.56987846  -0.0000213550  0.000048  0.000145  0.001181  0.000004
 10  -1182.56987820   0.0000002584  0.000084  0.000097  0.000784  0.000002
 11  -1182.56987857  -0.0000003659  0.000007  0.000026  0.000236  0.000001
 12  -1182.56987856   0.0000000103  0.000013  0.000019  0.000062  0.000000
                  ***Gradient check signals convergence***
              ***Rediagonalizing the Fockian in SOSCF/NRSCF***

               *****************************************************
               *                     SUCCESS                       *
               *           SCF CONVERGED AFTER  13 CYCLES          *
               *****************************************************

Old exchange energy                            =    -38.692136068 Eh
New exchange energy                            =    -38.692156895 Eh
Exchange energy change after final integration =     -0.000020827 Eh
Total energy after final integration           =  -1182.569899402 Eh
Final COS-X integration done in                =    18.656 sec

----------------
TOTAL SCF ENERGY
----------------

Total Energy       :        -1182.56989940 Eh          -32179.36293 eV

Components:
Nuclear Repulsion  :         2395.13886085 Eh           65175.04184 eV
Electronic Energy  :        -3577.70876025 Eh          -97354.40477 eV
One Electron Energy:        -6376.49390517 Eh         -173513.22040 eV
Two Electron Energy:         2798.78514492 Eh           76158.81563 eV
Max COSX asymmetry :            0.00000282 Eh               0.00008 eV
CPCM Dielectric    :           -0.06476944 Eh              -1.76247 eV

Virial components:
Potential Energy   :        -2359.47664579 Eh          -64204.62363 eV
Kinetic Energy     :         1176.90674639 Eh           32025.26070 eV
Virial Ratio       :            2.00481190


DFT components:
N(Alpha)           :       90.999880974608 electrons
N(Beta)            :       90.999880974608 electrons
N(Total)           :      181.999761949216 electrons
E(X)               :     -115.873253361114 Eh       
E(C)               :       -6.145750420815 Eh       
E(XC)              :     -122.019003781929 Eh       
DFET-embed. en.    :        0.000000000000 Eh       
CPCM Solvation Model Properties:
Surface-charge          :           -0.03131944
Charge-correction       :           -0.00060362 Eh              -0.01643 eV
Free-energy (cav+disp)  :  This term is not implemented in the current solvation scheme

---------------
SCF CONVERGENCE
---------------

  Last Energy change         ...   -1.9402e-08  Tolerance :   1.0000e-08
  Last MAX-Density change    ...    3.6637e-15  Tolerance :   1.0000e-07
  Last RMS-Density change    ...    1.5639e-17  Tolerance :   5.0000e-09
  Last Orbital Gradient      ...    1.6346e-06  Tolerance :   1.0000e-05
  Last Orbital Rotation      ...    6.8475e-06  Tolerance :   1.0000e-05

             **** THE GBW FILE WAS UPDATED (IM_Me/IM_Me.gbw) ****
             **** DENSITY IM_Me/IM_Me.scfp WAS UPDATED ****
             **** ENERGY FILE WAS UPDATED (IM_Me/IM_Me.en.tmp) ****
             **** THE GBW FILE WAS UPDATED (IM_Me/IM_Me.gbw) ****
             **** DENSITY IM_Me/IM_Me.scfp WAS UPDATED ****
----------------
ORBITAL ENERGIES
----------------

  NO   OCC          E(Eh)            E(eV) 
   0   2.0000     -19.259019      -524.0645 
   1   2.0000     -19.247214      -523.7433 
   2   2.0000     -19.199046      -522.4326 
   3   2.0000     -19.168627      -521.6049 
   4   2.0000     -19.165320      -521.5149 
   5   2.0000     -14.543440      -395.7471 
   6   2.0000     -14.506290      -394.7362 
   7   2.0000     -10.364800      -282.0406 
   8   2.0000     -10.311219      -280.5825 
   9   2.0000     -10.304698      -280.4051 
  10   2.0000     -10.300953      -280.3032 
  11   2.0000     -10.289774      -279.9990 
  12   2.0000     -10.277283      -279.6591 
  13   2.0000     -10.270893      -279.4852 
  14   2.0000     -10.269731      -279.4536 
  15   2.0000     -10.266058      -279.3536 
  16   2.0000     -10.264457      -279.3101 
  17   2.0000     -10.260039      -279.1899 
  18   2.0000     -10.238944      -278.6158 
  19   2.0000     -10.238771      -278.6111 
  20   2.0000     -10.229362      -278.3551 
  21   2.0000     -10.226630      -278.2808 
  22   2.0000     -10.226595      -278.2798 
  23   2.0000     -10.221323      -278.1363 
  24   2.0000     -10.211926      -277.8806 
  25   2.0000      -1.180480       -32.1225 
  26   2.0000      -1.153443       -31.3868 
  27   2.0000      -1.109886       -30.2015 
  28   2.0000      -1.076448       -29.2916 
  29   2.0000      -1.055683       -28.7266 
  30   2.0000      -0.997708       -27.1490 
  31   2.0000      -0.899500       -24.4766 
  32   2.0000      -0.883169       -24.0322 
  33   2.0000      -0.855114       -23.2688 
  34   2.0000      -0.836330       -22.7577 
  35   2.0000      -0.816217       -22.2104 
  36   2.0000      -0.787139       -21.4191 
  37   2.0000      -0.772658       -21.0251 
  38   2.0000      -0.750399       -20.4194 
  39   2.0000      -0.722866       -19.6702 
  40   2.0000      -0.714161       -19.4333 
  41   2.0000      -0.707814       -19.2606 
  42   2.0000      -0.701325       -19.0840 
  43   2.0000      -0.672650       -18.3037 
  44   2.0000      -0.623829       -16.9753 
  45   2.0000      -0.613446       -16.6927 
  46   2.0000      -0.605577       -16.4786 
  47   2.0000      -0.576950       -15.6996 
  48   2.0000      -0.563453       -15.3323 
  49   2.0000      -0.554077       -15.0772 
  50   2.0000      -0.547805       -14.9065 
  51   2.0000      -0.536515       -14.5993 
  52   2.0000      -0.535014       -14.5585 
  53   2.0000      -0.514049       -13.9880 
  54   2.0000      -0.513200       -13.9649 
  55   2.0000      -0.508006       -13.8236 
  56   2.0000      -0.501036       -13.6339 
  57   2.0000      -0.496885       -13.5209 
  58   2.0000      -0.492640       -13.4054 
  59   2.0000      -0.488242       -13.2857 
  60   2.0000      -0.485261       -13.2046 
  61   2.0000      -0.477353       -12.9894 
  62   2.0000      -0.472969       -12.8701 
  63   2.0000      -0.459466       -12.5027 
  64   2.0000      -0.448528       -12.2051 
  65   2.0000      -0.442092       -12.0299 
  66   2.0000      -0.436040       -11.8653 
  67   2.0000      -0.425930       -11.5902 
  68   2.0000      -0.415358       -11.3025 
  69   2.0000      -0.413173       -11.2430 
  70   2.0000      -0.407618       -11.0918 
  71   2.0000      -0.404147       -10.9974 
  72   2.0000      -0.402345       -10.9484 
  73   2.0000      -0.398922       -10.8552 
  74   2.0000      -0.390770       -10.6334 
  75   2.0000      -0.379278       -10.3207 
  76   2.0000      -0.372591       -10.1387 
  77   2.0000      -0.370323       -10.0770 
  78   2.0000      -0.362224        -9.8566 
  79   2.0000      -0.343523        -9.3477 
  80   2.0000      -0.339101        -9.2274 
  81   2.0000      -0.336794        -9.1646 
  82   2.0000      -0.326867        -8.8945 
  83   2.0000      -0.316888        -8.6230 
  84   2.0000      -0.304025        -8.2729 
  85   2.0000      -0.289207        -7.8697 
  86   2.0000      -0.278625        -7.5818 
  87   2.0000      -0.264190        -7.1890 
  88   2.0000      -0.252800        -6.8790 
  89   2.0000      -0.237396        -6.4599 
  90   2.0000      -0.201406        -5.4805 
  91   0.0000      -0.081311        -2.2126 
  92   0.0000      -0.044180        -1.2022 
  93   0.0000      -0.014061        -0.3826 
  94   0.0000       0.001708         0.0465 
  95   0.0000       0.011601         0.3157 
  96   0.0000       0.017602         0.4790 
  97   0.0000       0.044900         1.2218 
  98   0.0000       0.060392         1.6434 
  99   0.0000       0.064096         1.7441 
 100   0.0000       0.064674         1.7599 
 101   0.0000       0.068691         1.8692 
 102   0.0000       0.083486         2.2718 
 103   0.0000       0.090176         2.4538 
 104   0.0000       0.092046         2.5047 
 105   0.0000       0.097002         2.6396 
 106   0.0000       0.100464         2.7338 
 107   0.0000       0.105802         2.8790 
 108   0.0000       0.109642         2.9835 
 109   0.0000       0.115298         3.1374 
 110   0.0000       0.118761         3.2316 
 111   0.0000       0.123457         3.3594 
 112   0.0000       0.124182         3.3792 
 113   0.0000       0.132296         3.6000 
 114   0.0000       0.133035         3.6201 
 115   0.0000       0.139146         3.7864 
 116   0.0000       0.141662         3.8548 
 117   0.0000       0.145915         3.9705 
 118   0.0000       0.149926         4.0797 
 119   0.0000       0.152631         4.1533 
 120   0.0000       0.157497         4.2857 
 121   0.0000       0.158842         4.3223 
 122   0.0000       0.160243         4.3604 
 123   0.0000       0.170298         4.6340 
 124   0.0000       0.181061         4.9269 
 125   0.0000       0.186844         5.0843 
 126   0.0000       0.199195         5.4204 
 127   0.0000       0.200902         5.4668 
 128   0.0000       0.205632         5.5955 
 129   0.0000       0.209055         5.6887 
 130   0.0000       0.215346         5.8599 
 131   0.0000       0.216939         5.9032 
 132   0.0000       0.220283         5.9942 
 133   0.0000       0.221844         6.0367 
 134   0.0000       0.225486         6.1358 
 135   0.0000       0.226750         6.1702 
 136   0.0000       0.232901         6.3376 
 137   0.0000       0.233967         6.3666 
 138   0.0000       0.238556         6.4914 
 139   0.0000       0.243794         6.6340 
 140   0.0000       0.246973         6.7205 
 141   0.0000       0.249591         6.7917 
 142   0.0000       0.257540         7.0080 
 143   0.0000       0.259246         7.0545 
 144   0.0000       0.263537         7.1712 
 145   0.0000       0.267178         7.2703 
 146   0.0000       0.275207         7.4888 
 147   0.0000       0.281516         7.6604 
 148   0.0000       0.283861         7.7242 
 149   0.0000       0.289709         7.8834 
 150   0.0000       0.293969         7.9993 
 151   0.0000       0.297599         8.0981 
 152   0.0000       0.302755         8.2384 
 153   0.0000       0.306706         8.3459 
 154   0.0000       0.316736         8.6188 
 155   0.0000       0.319146         8.6844 
 156   0.0000       0.319723         8.7001 
 157   0.0000       0.322416         8.7734 
 158   0.0000       0.326847         8.8940 
 159   0.0000       0.332165         9.0387 
 160   0.0000       0.336922         9.1681 
 161   0.0000       0.340475         9.2648 
 162   0.0000       0.344132         9.3643 
 163   0.0000       0.351050         9.5526 
 164   0.0000       0.355516         9.6741 
 165   0.0000       0.358331         9.7507 
 166   0.0000       0.366685         9.9780 
 167   0.0000       0.369704        10.0602 
 168   0.0000       0.374582        10.1929 
 169   0.0000       0.378385        10.2964 
 170   0.0000       0.383186        10.4270 
 171   0.0000       0.390739        10.6325 
 172   0.0000       0.394880        10.7452 
 173   0.0000       0.397853        10.8261 
 174   0.0000       0.401502        10.9254 
 175   0.0000       0.404681        11.0119 
 176   0.0000       0.409521        11.1436 
 177   0.0000       0.412975        11.2376 
 178   0.0000       0.414658        11.2834 
 179   0.0000       0.420233        11.4351 
 180   0.0000       0.422955        11.5092 
 181   0.0000       0.426458        11.6045 
 182   0.0000       0.430217        11.7068 
 183   0.0000       0.431945        11.7538 
 184   0.0000       0.434892        11.8340 
 185   0.0000       0.438521        11.9328 
 186   0.0000       0.440261        11.9801 
 187   0.0000       0.447818        12.1857 
 188   0.0000       0.450533        12.2596 
 189   0.0000       0.455777        12.4023 
 190   0.0000       0.460300        12.5254 
 191   0.0000       0.462000        12.5717 
 192   0.0000       0.466250        12.6873 
 193   0.0000       0.467388        12.7183 
 194   0.0000       0.470603        12.8058 
 195   0.0000       0.474990        12.9251 
 196   0.0000       0.476907        12.9773 
 197   0.0000       0.478505        13.0208 
 198   0.0000       0.483371        13.1532 
 199   0.0000       0.487026        13.2527 
 200   0.0000       0.488265        13.2864 
 201   0.0000       0.489612        13.3230 
 202   0.0000       0.498431        13.5630 
 203   0.0000       0.501710        13.6522 
 204   0.0000       0.503421        13.6988 
 205   0.0000       0.509554        13.8657 
 206   0.0000       0.515850        14.0370 
 207   0.0000       0.518791        14.1170 
 208   0.0000       0.523328        14.2405 
 209   0.0000       0.525128        14.2895 
 210   0.0000       0.529276        14.4023 
 211   0.0000       0.532147        14.4805 
 212   0.0000       0.538508        14.6535 
 213   0.0000       0.550853        14.9895 
 214   0.0000       0.554071        15.0770 
 215   0.0000       0.557353        15.1664 
 216   0.0000       0.571061        15.5394 
 217   0.0000       0.573866        15.6157 
 218   0.0000       0.579237        15.7618 
 219   0.0000       0.584380        15.9018 
 220   0.0000       0.587691        15.9919 
 221   0.0000       0.592955        16.1351 
 222   0.0000       0.598001        16.2724 
 223   0.0000       0.606381        16.5005 
 224   0.0000       0.610852        16.6221 
 225   0.0000       0.617696        16.8084 
 226   0.0000       0.626784        17.0557 
 227   0.0000       0.634950        17.2779 
 228   0.0000       0.641119        17.4457 
 229   0.0000       0.645227        17.5575 
 230   0.0000       0.650032        17.6883 
 231   0.0000       0.664280        18.0760 
 232   0.0000       0.666720        18.1424 
 233   0.0000       0.668094        18.1798 
 234   0.0000       0.675054        18.3691 
 235   0.0000       0.678284        18.4571 
 236   0.0000       0.684227        18.6188 
 237   0.0000       0.686696        18.6859 
 238   0.0000       0.689708        18.7679 
 239   0.0000       0.695256        18.9189 
 240   0.0000       0.702535        19.1169 
 241   0.0000       0.712153        19.3787 
 242   0.0000       0.719691        19.5838 
 243   0.0000       0.723951        19.6997 
 244   0.0000       0.729148        19.8411 
 245   0.0000       0.735822        20.0227 
 246   0.0000       0.740277        20.1440 
 247   0.0000       0.745567        20.2879 
 248   0.0000       0.747106        20.3298 
 249   0.0000       0.751163        20.4402 
 250   0.0000       0.763309        20.7707 
 251   0.0000       0.771544        20.9948 
 252   0.0000       0.775538        21.1035 
 253   0.0000       0.782309        21.2877 
 254   0.0000       0.788996        21.4697 
 255   0.0000       0.790347        21.5064 
 256   0.0000       0.796882        21.6843 
 257   0.0000       0.799835        21.7646 
 258   0.0000       0.803034        21.8517 
 259   0.0000       0.814613        22.1667 
 260   0.0000       0.816658        22.2224 
 261   0.0000       0.828661        22.5490 
 262   0.0000       0.832865        22.6634 
 263   0.0000       0.844465        22.9790 
 264   0.0000       0.851492        23.1703 
 265   0.0000       0.853643        23.2288 
 266   0.0000       0.859526        23.3889 
 267   0.0000       0.865538        23.5525 
 268   0.0000       0.873743        23.7757 
 269   0.0000       0.879124        23.9222 
 270   0.0000       0.891151        24.2494 
 271   0.0000       0.894570        24.3425 
 272   0.0000       0.897298        24.4167 
 273   0.0000       0.906792        24.6751 
 274   0.0000       0.909678        24.7536 
 275   0.0000       0.917313        24.9614 
 276   0.0000       0.922398        25.0997 
 277   0.0000       0.931777        25.3549 
 278   0.0000       0.936399        25.4807 
 279   0.0000       0.944224        25.6936 
 280   0.0000       0.956250        26.0209 
 281   0.0000       0.964218        26.2377 
 282   0.0000       0.976648        26.5760 
 283   0.0000       0.983640        26.7662 
 284   0.0000       0.986131        26.8340 
 285   0.0000       0.989217        26.9180 
 286   0.0000       1.000139        27.2152 
 287   0.0000       1.004755        27.3408 
 288   0.0000       1.016595        27.6630 
 289   0.0000       1.018263        27.7083 
 290   0.0000       1.022172        27.8147 
 291   0.0000       1.030631        28.0449 
 292   0.0000       1.042221        28.3603 
 293   0.0000       1.045947        28.4617 
 294   0.0000       1.048394        28.5282 
 295   0.0000       1.059121        28.8202 
 296   0.0000       1.068298        29.0699 
 297   0.0000       1.071659        29.1613 
 298   0.0000       1.079085        29.3634 
 299   0.0000       1.084703        29.5163 
 300   0.0000       1.090436        29.6723 
 301   0.0000       1.100735        29.9525 
 302   0.0000       1.111492        30.2452 
[...]
 28:    308.48   0.000088    0.45  0.000089  ( 0.005622  0.006196  0.004386)
 29:    314.84   0.000209    1.05  0.000207  (-0.003056  0.013957  0.001638)
 30:    339.46   0.002543   12.85  0.002338  ( 0.013984  0.023699 -0.039753)
 31:    370.70   0.003322   16.79  0.002797  (-0.030615  0.013573  0.040927)
 32:    390.25   0.002048   10.35  0.001638  ( 0.003386  0.010451 -0.038950)
 33:    425.74   0.000832    4.20  0.000610  ( 0.005814 -0.001896  0.023920)
 34:    465.75   0.000312    1.57  0.000209  ( 0.013202 -0.005035  0.003013)
 35:    478.56   0.000124    0.63  0.000081  ( 0.003863 -0.003813  0.007191)
 36:    503.47   0.001046    5.28  0.000648  (-0.003850  0.013033  0.021527)
 37:    547.73   0.006737   34.04  0.003838  ( 0.061532 -0.000766 -0.007176)
 38:    574.00   0.004840   24.46  0.002631  (-0.037874  0.030977  0.015408)
 39:    584.77   0.005732   28.97  0.003059  (-0.038959  0.010650 -0.037782)
 40:    599.78   0.001106    5.59  0.000575  (-0.001945 -0.017115  0.016693)
 41:    612.11   0.003559   17.99  0.001814  ( 0.000725  0.042062  0.006683)
 42:    652.70   0.000368    1.86  0.000176  ( 0.012742  0.003142  0.001871)
 43:    659.63   0.001741    8.80  0.000824  ( 0.019732 -0.004479  0.020356)
 44:    672.61   0.000780    3.94  0.000362  ( 0.008327 -0.010574  0.013442)
 45:    693.63   0.004078   20.61  0.001835  ( 0.018177  0.038653 -0.003174)
 46:    713.57   0.031881  161.11  0.013943  (-0.111821 -0.027082 -0.026554)
 47:    755.43   0.001055    5.33  0.000436  ( 0.016165  0.012712 -0.003624)
 48:    768.34   0.018664   94.32  0.007581  (-0.083212 -0.022920  0.011442)
 49:    770.38   0.007125   36.01  0.002886  (-0.024089 -0.013215  0.046167)
 50:    781.26   0.001035    5.23  0.000413  ( 0.008235  0.018564  0.000976)
 51:    802.78   0.006169   31.18  0.002398  (-0.039395 -0.007028  0.028225)
 52:    808.21   0.001518    7.67  0.000586  (-0.013113 -0.000440 -0.020350)
 53:    834.11   0.008522   43.06  0.003188  (-0.051234  0.006450  0.022839)
 54:    857.30   0.004206   21.26  0.001531  ( 0.022651  0.010555  0.030112)
 55:    872.95   0.000076    0.38  0.000027  (-0.001173 -0.004986  0.000875)
 56:    890.22   0.000389    1.97  0.000136  (-0.008326 -0.007880  0.002217)
 57:    923.62   0.007261   36.70  0.002453  ( 0.010061 -0.044045  0.020304)
 58:    924.74   0.011006   55.62  0.003714  ( 0.009138 -0.059789  0.007481)
 59:    958.92   0.000499    2.52  0.000163  (-0.012180  0.003590 -0.001148)
 60:    980.48   0.007386   37.33  0.002351  (-0.039747 -0.013483  0.024273)
 61:    986.40   0.000288    1.46  0.000091  ( 0.009075 -0.002847 -0.000794)
 62:    994.28   0.000217    1.10  0.000068  ( 0.007691 -0.000327  0.002960)
 63:   1034.65   0.002670   13.49  0.000805  (-0.010596  0.014260 -0.022129)
 64:   1037.64   0.007341   37.10  0.002208  (-0.035117 -0.010787  0.029296)
 65:   1045.46   0.004541   22.95  0.001356  ( 0.032051 -0.006708 -0.016830)
 66:   1048.50   0.001454    7.35  0.000433  ( 0.001145 -0.003250  0.020514)
 67:   1062.44   0.002565   12.96  0.000753  ( 0.026218  0.007298 -0.003576)
 68:   1071.38   0.012425   62.79  0.003619  (-0.020338  0.054781  0.014299)
 69:   1083.53   0.006880   34.77  0.001981  ( 0.002833 -0.028459  0.034109)
 70:   1084.67   0.004035   20.39  0.001161  (-0.013721  0.009409 -0.029732)
 71:   1090.44   0.008519   43.05  0.002438  ( 0.002682  0.044307 -0.021622)
 72:   1126.20   0.005182   26.19  0.001436  (-0.010966 -0.036238 -0.001573)
 73:   1136.57   0.003205   16.20  0.000880  (-0.016492  0.024547 -0.002355)
 74:   1169.21   0.000580    2.93  0.000155  (-0.010686 -0.002948  0.005649)
 75:   1171.12   0.000142    0.72  0.000038  ( 0.005334  0.000328 -0.003039)
 76:   1172.41   0.002535   12.81  0.000675  (-0.003560  0.025577 -0.002813)
 77:   1174.79   0.001913    9.67  0.000508  (-0.012415  0.013067 -0.013539)
 78:   1178.45   0.035292  178.35  0.009346  (-0.031219 -0.070710  0.058061)
 79:   1198.26   0.010484   52.98  0.002730  (-0.016147 -0.047488  0.014650)
 80:   1208.73   0.002426   12.26  0.000626  (-0.007897 -0.005491  0.023103)
 81:   1212.36   0.001599    8.08  0.000412  (-0.017551  0.005192 -0.008753)
 82:   1228.07   0.010152   51.30  0.002580  ( 0.011276 -0.000721  0.049518)
 83:   1229.05   0.003557   17.98  0.000903  (-0.020511  0.017887  0.012749)
 84:   1261.04   0.023178  117.13  0.005736  ( 0.028789 -0.044328 -0.054240)
 85:   1269.63   0.062394  315.31  0.015336  (-0.066873  0.050796  0.091014)
 86:   1277.81   0.077589  392.10  0.018948  (-0.003569  0.065134 -0.121216)
 87:   1289.94   0.014380   72.67  0.003479  ( 0.051757 -0.024238  0.014578)
 88:   1295.38   0.065743  332.24  0.015838  (-0.097168  0.071122 -0.036576)
 89:   1314.99   0.017111   86.47  0.004061  (-0.035510  0.013971  0.051034)
 90:   1324.51   0.043525  219.96  0.010255  ( 0.096849 -0.029472 -0.002550)
 91:   1354.26   0.026539  134.11  0.006115  (-0.056132  0.041561  0.035174)
 92:   1376.99   0.000142    0.72  0.000032  ( 0.003860  0.004147 -0.000394)
 93:   1385.02   0.007971   40.28  0.001796  (-0.011892  0.032967 -0.023827)
 94:   1398.45   0.000995    5.03  0.000222  (-0.009046 -0.011447 -0.003037)
 95:   1416.83   0.005788   29.25  0.001275  ( 0.008922 -0.002016 -0.034512)
 96:   1421.92   0.020740  104.81  0.004552  (-0.005615  0.035378 -0.057171)
 97:   1442.58   0.002805   14.18  0.000607  (-0.008319 -0.005389 -0.022552)
 98:   1463.54   0.007977   40.31  0.001701  (-0.006996  0.018884 -0.035990)
 99:   1464.80   0.002901   14.66  0.000618  ( 0.019103 -0.014774  0.005905)
100:   1467.48   0.002266   11.45  0.000482  (-0.014515  0.012972 -0.010144)
101:   1470.29   0.016728   84.54  0.003550  ( 0.027631  0.012588 -0.051269)
102:   1473.76   0.003016   15.24  0.000639  ( 0.023387  0.007715 -0.005676)
103:   1474.45   0.002877   14.54  0.000609  ( 0.006041  0.019661  0.013632)
104:   1485.06   0.005115   25.85  0.001075  ( 0.009795 -0.009714  0.029740)
105:   1497.31   0.015292   77.28  0.003187  ( 0.021146 -0.035114  0.038819)
106:   1526.97   0.019157   96.81  0.003915  (-0.019246  0.050332 -0.031803)
107:   1531.97   0.032245  162.95  0.006568  ( 0.028287 -0.052818  0.054576)
108:   1533.54   0.016605   83.91  0.003379  ( 0.015192  0.000936  0.056101)
109:   1584.12   0.120830  610.63  0.023803  ( 0.000404 -0.125604  0.089590)
110:   1642.24   0.002161   10.92  0.000411  ( 0.010658 -0.004672  0.016590)
111:   1647.41   0.002557   12.92  0.000484  (-0.010733  0.019212  0.000164)
112:   1663.17   0.010586   53.50  0.001986  ( 0.017398 -0.020231  0.035697)
113:   1696.01   0.019293   97.50  0.003550  ( 0.004099 -0.026110 -0.053397)
114:   1780.28   0.111455  563.25  0.019537  (-0.078283 -0.092886 -0.069143)
115:   3022.69   0.011843   59.85  0.001223  ( 0.033972  0.006917 -0.004554)
116:   3037.62   0.012893   65.16  0.001325  ( 0.011739 -0.033988  0.005619)
117:   3049.53   0.002099   10.61  0.000215  ( 0.006218  0.004963 -0.012310)
118:   3071.17   0.006749   34.11  0.000686  (-0.017514 -0.006802  0.018241)
119:   3072.08   0.006760   34.16  0.000687  (-0.005318 -0.009986 -0.023636)
120:   3107.10   0.003420   17.28  0.000343  ( 0.010078  0.015465 -0.001650)
121:   3109.25   0.006914   34.94  0.000694  (-0.024395 -0.007045  0.007012)
122:   3132.99   0.004790   24.21  0.000477  ( 0.003444 -0.020152  0.007693)
123:   3154.49   0.003934   19.88  0.000389  ( 0.014308 -0.011872  0.006594)
124:   3165.23   0.003879   19.60  0.000382  ( 0.005314 -0.001135  0.018785)
125:   3187.61   0.002329   11.77  0.000228  ( 0.002772  0.009984  0.010985)
126:   3191.60   0.000519    2.62  0.000051  ( 0.001252 -0.006187 -0.003295)
127:   3193.60   0.017548   88.68  0.001715  (-0.011705 -0.000915 -0.039710)
128:   3206.39   0.002549   12.88  0.000248  (-0.002824 -0.003734 -0.015040)
129:   3220.47   0.000064    0.32  0.000006  (-0.001119  0.002218  0.000224)
130:   3221.47   0.002712   13.70  0.000263  ( 0.007355 -0.006829  0.012726)
131:   3229.76   0.000688    3.48  0.000066  (-0.001217  0.007695  0.002402)
132:   3235.44   0.001157    5.85  0.000112  (-0.000830  0.009209  0.005108)
133:   3242.40   0.000692    3.50  0.000067  (-0.002928  0.007051 -0.002887)
134:   3247.60   0.000796    4.02  0.000077  ( 0.001435 -0.007262  0.004660)

* The epsilon (eps) is given for a Dirac delta lineshape.
** The dipole moment derivative (T) already includes vibrational overlap.

The first frequency considered to be a vibration is 6
The total number of vibrations considered is 129


--------------------------
THERMOCHEMISTRY AT 298.15K
--------------------------

Temperature         ... 298.15 K
Pressure            ... 1.00 atm
Total Mass          ... 344.37 AMU

Throughout the following assumptions are being made:
  (1) The electronic state is orbitally nondegenerate
  (2) There are no thermally accessible electronically excited states
  (3) Hindered rotations indicated by low frequency modes are not
      treated as such but are treated as vibrations and this may
      cause some error
  (4) All equations used are the standard statistical mechanics
      equations for an ideal gas
  (5) All vibrations are strictly harmonic

freq.      25.29  E(vib)   ...       0.56 
freq.      43.15  E(vib)   ...       0.53 
freq.      45.42  E(vib)   ...       0.53 
freq.      57.77  E(vib)   ...       0.51 
freq.      66.70  E(vib)   ...       0.50 
freq.      71.51  E(vib)   ...       0.50 
freq.      86.32  E(vib)   ...       0.48 
freq.      89.64  E(vib)   ...       0.47 
freq.      98.92  E(vib)   ...       0.46 
freq.     105.14  E(vib)   ...       0.45 
freq.     132.24  E(vib)   ...       0.42 
freq.     137.86  E(vib)   ...       0.42 
freq.     145.40  E(vib)   ...       0.41 
freq.     164.69  E(vib)   ...       0.39 
freq.     178.93  E(vib)   ...       0.37 
freq.     193.43  E(vib)   ...       0.36 
freq.     198.15  E(vib)   ...       0.35 
freq.     226.68  E(vib)   ...       0.33 
freq.     254.60  E(vib)   ...       0.30 
freq.     255.73  E(vib)   ...       0.30 
freq.     278.52  E(vib)   ...       0.28 
freq.     294.68  E(vib)   ...       0.27 
freq.     308.48  E(vib)   ...       0.26 
freq.     314.84  E(vib)   ...       0.25 
freq.     339.46  E(vib)   ...       0.23 
freq.     370.70  E(vib)   ...       0.21 
freq.     390.25  E(vib)   ...       0.20 
freq.     425.74  E(vib)   ...       0.18 
freq.     465.75  E(vib)   ...       0.16 
freq.     478.56  E(vib)   ...       0.15 
freq.     503.47  E(vib)   ...       0.14 
freq.     547.73  E(vib)   ...       0.12 
freq.     574.00  E(vib)   ...       0.11 
freq.     584.77  E(vib)   ...       0.11 
freq.     599.78  E(vib)   ...       0.10 
freq.     612.11  E(vib)   ...       0.10 
freq.     652.70  E(vib)   ...       0.08 
freq.     659.63  E(vib)   ...       0.08 
freq.     672.61  E(vib)   ...       0.08 
freq.     693.63  E(vib)   ...       0.07 
freq.     713.57  E(vib)   ...       0.07 
freq.     755.43  E(vib)   ...       0.06 
freq.     768.34  E(vib)   ...       0.06 
freq.     770.38  E(vib)   ...       0.05 
freq.     781.26  E(vib)   ...       0.05 
freq.     802.78  E(vib)   ...       0.05 
freq.     808.21  E(vib)   ...       0.05 
freq.     834.11  E(vib)   ...       0.04 
freq.     857.30  E(vib)   ...       0.04 
freq.     872.95  E(vib)   ...       0.04 
freq.     890.22  E(vib)   ...       0.04 
freq.     923.62  E(vib)   ...       0.03 
freq.     924.74  E(vib)   ...       0.03 
freq.     958.92  E(vib)   ...       0.03 
freq.     980.48  E(vib)   ...       0.02 
freq.     986.40  E(vib)   ...       0.02 
freq.     994.28  E(vib)   ...       0.02 
freq.    1034.65  E(vib)   ...       0.02 
freq.    1037.64  E(vib)   ...       0.02 
freq.    1045.46  E(vib)   ...       0.02 
freq.    1048.50  E(vib)   ...       0.02 
freq.    1062.44  E(vib)   ...       0.02 
freq.    1071.38  E(vib)   ...       0.02 
freq.    1083.53  E(vib)   ...       0.02 
freq.    1084.67  E(vib)   ...       0.02 
freq.    1090.44  E(vib)   ...       0.02 
freq.    1126.20  E(vib)   ...       0.01 
freq.    1136.57  E(vib)   ...       0.01 
freq.    1169.21  E(vib)   ...       0.01 
freq.    1171.12  E(vib)   ...       0.01 
freq.    1172.41  E(vib)   ...       0.01 
freq.    1174.79  E(vib)   ...       0.01 
freq.    1178.45  E(vib)   ...       0.01 
freq.    1198.26  E(vib)   ...       0.01 
freq.    1208.73  E(vib)   ...       0.01 
freq.    1212.36  E(vib)   ...       0.01 
freq.    1228.07  E(vib)   ...       0.01 
freq.    1229.05  E(vib)   ...       0.01 
freq.    1261.04  E(vib)   ...       0.01 
freq.    1269.63  E(vib)   ...       0.01 
freq.    1277.81  E(vib)   ...       0.01 
freq.    1289.94  E(vib)   ...       0.01 
freq.    1295.38  E(vib)   ...       0.01 
freq.    1314.99  E(vib)   ...       0.01 
freq.    1324.51  E(vib)   ...       0.01 
freq.    1354.26  E(vib)   ...       0.01 
freq.    1376.99  E(vib)   ...       0.01 
freq.    1385.02  E(vib)   ...       0.00 
freq.    1398.45  E(vib)   ...       0.00 
freq.    1416.83  E(vib)   ...       0.00 
freq.    1421.92  E(vib)   ...       0.00 
freq.    1442.58  E(vib)   ...       0.00 
freq.    1463.54  E(vib)   ...       0.00 
freq.    1464.80  E(vib)   ...       0.00 
freq.    1467.48  E(vib)   ...       0.00 
freq.    1470.29  E(vib)   ...       0.00 
freq.    1473.76  E(vib)   ...       0.00 
freq.    1474.45  E(vib)   ...       0.00 
freq.    1485.06  E(vib)   ...       0.00 
freq.    1497.31  E(vib)   ...       0.00 
freq.    1526.97  E(vib)   ...       0.00 
freq.    1531.97  E(vib)   ...       0.00 
freq.    1533.54  E(vib)   ...       0.00 
freq.    1584.12  E(vib)   ...       0.00 
freq.    1642.24  E(vib)   ...       0.00 
freq.    1647.41  E(vib)   ...       0.00 
freq.    1663.17  E(vib)   ...       0.00 
freq.    1696.01  E(vib)   ...       0.00 
freq.    1780.28  E(vib)   ...       0.00 
freq.    3022.69  E(vib)   ...       0.00 
freq.    3037.62  E(vib)   ...       0.00 
freq.    3049.53  E(vib)   ...       0.00 
freq.    3071.17  E(vib)   ...       0.00 
freq.    3072.08  E(vib)   ...       0.00 
freq.    3107.10  E(vib)   ...       0.00 
freq.    3109.25  E(vib)   ...       0.00 
freq.    3132.99  E(vib)   ...       0.00 
freq.    3154.49  E(vib)   ...       0.00 
freq.    3165.23  E(vib)   ...       0.00 
freq.    3187.61  E(vib)   ...       0.00 
freq.    3191.60  E(vib)   ...       0.00 
freq.    3193.60  E(vib)   ...       0.00 
freq.    3206.39  E(vib)   ...       0.00 
freq.    3220.47  E(vib)   ...       0.00 
freq.    3221.47  E(vib)   ...       0.00 
freq.    3229.76  E(vib)   ...       0.00 
freq.    3235.44  E(vib)   ...       0.00 
freq.    3242.40  E(vib)   ...       0.00 
freq.    3247.60  E(vib)   ...       0.00 

------------
INNER ENERGY
------------

The inner energy is: U= E(el) + E(ZPE) + E(vib) + E(rot) + E(trans)
    E(el)   - is the total energy from the electronic structure calculation
              = E(kin-el) + E(nuc-el) + E(el-el) + E(nuc-nuc)
    E(ZPE)  - the the zero temperature vibrational energy from the frequency calculation
    E(vib)  - the the finite temperature correction to E(ZPE) due to population
              of excited vibrational states
    E(rot)  - is the rotational thermal energy
    E(trans)- is the translational thermal energy

Summary of contributions to the inner energy U:
Electronic energy                ...  -1182.62943346 Eh
Zero point energy                ...      0.36237031 Eh     227.39 kcal/mol
Thermal vibrational correction   ...      0.02065417 Eh      12.96 kcal/mol
Thermal rotational correction    ...      0.00141627 Eh       0.89 kcal/mol
Thermal translational correction ...      0.00141627 Eh       0.89 kcal/mol
-----------------------------------------------------------------------
Total thermal energy                  -1182.24357644 Eh


Summary of corrections to the electronic energy:
(perhaps to be used in another calculation)
Total thermal correction                  0.02348672 Eh      14.74 kcal/mol
Non-thermal (ZPE) correction              0.36237031 Eh     227.39 kcal/mol
-----------------------------------------------------------------------
Total correction                          0.38585702 Eh     242.13 kcal/mol


--------
ENTHALPY
--------

The enthalpy is H = U + kB*T
                kB is Boltzmann's constant
Total free energy                 ...  -1182.24357644 Eh 
Thermal Enthalpy correction       ...      0.00094421 Eh       0.59 kcal/mol
-----------------------------------------------------------------------
Total Enthalpy                    ...  -1182.24263223 Eh


Note: Only C1 symmetry has been detected, increase convergence thresholds 
      if your molecule has a higher symmetry. Symmetry factor of 1.0 is   
      used for the rotational entropy correction. 
 

Note: Rotational entropy computed according to Herzberg 
Infrared and Raman Spectra, Chapter V,1, Van Nostrand Reinhold, 1945 
Point Group:  C1, Symmetry Number:   1  
Rotational constants in cm-1:     0.010808     0.006439     0.005838 

Vibrational entropy computed according to the QRRHO of S. Grimme
Chem.Eur.J. 2012 18 9955


-------
ENTROPY
-------

The entropy contributions are T*S = T*(S(el)+S(vib)+S(rot)+S(trans))
     S(el)   - electronic entropy
     S(vib)  - vibrational entropy
     S(rot)  - rotational entropy
     S(trans)- translational entropy
The entropies will be listed as multiplied by the temperature to get
units of energy

Electronic entropy                ...      0.00000000 Eh      0.00 kcal/mol
Vibrational entropy               ...      0.03702824 Eh     23.24 kcal/mol
Rotational entropy                ...      0.01645820 Eh     10.33 kcal/mol
Translational entropy             ...      0.02062252 Eh     12.94 kcal/mol
-----------------------------------------------------------------------
Final entropy term                ...      0.07410895 Eh     46.50 kcal/mol

In case the symmetry of your molecule has not been determined correctly
or in case you have a reason to use a different symmetry number we print 
out the resulting rotational entropy values for sn=1,12 :
 --------------------------------------------------------
|  sn= 1 | S(rot)=       0.01645820 Eh     10.33 kcal/mol|
|  sn= 2 | S(rot)=       0.01580374 Eh      9.92 kcal/mol|
|  sn= 3 | S(rot)=       0.01542091 Eh      9.68 kcal/mol|
|  sn= 4 | S(rot)=       0.01514928 Eh      9.51 kcal/mol|
|  sn= 5 | S(rot)=       0.01493859 Eh      9.37 kcal/mol|
|  sn= 6 | S(rot)=       0.01476645 Eh      9.27 kcal/mol|
|  sn= 7 | S(rot)=       0.01462090 Eh      9.17 kcal/mol|
|  sn= 8 | S(rot)=       0.01449483 Eh      9.10 kcal/mol|
|  sn= 9 | S(rot)=       0.01438362 Eh      9.03 kcal/mol|
|  sn=10 | S(rot)=       0.01428414 Eh      8.96 kcal/mol|
|  sn=11 | S(rot)=       0.01419415 Eh      8.91 kcal/mol|
|  sn=12 | S(rot)=       0.01411199 Eh      8.86 kcal/mol|
 --------------------------------------------------------


-------------------
GIBBS FREE ENERGY
-------------------

The Gibbs free energy is G = H - T*S

Total enthalpy                    ...  -1182.24263223 Eh 
Total entropy correction          ...     -0.07410895 Eh    -46.50 kcal/mol
-----------------------------------------------------------------------
Final Gibbs free energy         ...  -1182.31674118 Eh

For completeness - the Gibbs free energy minus the electronic energy
G-E(el)                           ...      0.31269228 Eh    196.22 kcal/mol


Timings for individual modules:

Sum of individual times         ...     7089.940 sec (= 118.166 min)
GTO integral calculation        ...       63.484 sec (=   1.058 min)   0.9 %
SCF iterations                  ...     2707.902 sec (=  45.132 min)  38.2 %
SCF Gradient evaluation         ...      800.781 sec (=  13.346 min)  11.3 %
Geometry relaxation             ...        3.714 sec (=   0.062 min)   0.1 %
Analytical frequency calculation...     3514.059 sec (=  58.568 min)  49.6 %
                             ****ORCA TERMINATED NORMALLY****
TOTAL RUN TIME: 0 days 1 hours 59 minutes 12 seconds 608 msec
