
                                 *****************
                                 * O   R   C   A *
                                 *****************

                                            #,                                       
                                            ###                                      
                                            ####                                     
                                            #####                                    
                                            ######                                   
                                           ########,                                 
                                     ,,################,,,,,                         
                               ,,#################################,,                 
                          ,,##########################################,,             
                       ,#########################################, ''#####,          
                    ,#############################################,,   '####,        
                  ,##################################################,,,,####,       
                ,###########''''           ''''###############################       
              ,#####''   ,,,,##########,,,,          '''####'''          '####       
            ,##' ,,,,###########################,,,                        '##       
           ' ,,###''''                  '''############,,,                           
         ,,##''                                '''############,,,,        ,,,,,,###''
      ,#''                                            '''#######################'''  
     '                                                          ''''####''''         
             ,#######,   #######,   ,#######,      ##                                
            ,#'     '#,  ##    ##  ,#'     '#,    #''#        ######   ,####,        
            ##       ##  ##   ,#'  ##            #'  '#       #        #'  '#        
            ##       ##  #######   ##           ,######,      #####,   #    #        
            '#,     ,#'  ##    ##  '#,     ,#' ,#      #,         ##   #,  ,#        
             '#######'   ##     ##  '#######'  #'      '#     #####' # '####'        



                  #######################################################
                  #                        -***-                        #
                  #          Department of theory and spectroscopy      #
                  #    Directorship and core code : Frank Neese         #
                  #        Max Planck Institute fuer Kohlenforschung    #
                  #                Kaiser Wilhelm Platz 1               #
                  #                 D-45470 Muelheim/Ruhr               #
                  #                      Germany                        #
                  #                                                     #
                  #                  All rights reserved                #
                  #                        -***-                        #
                  #######################################################


                         Program Version 5.0.4 -  RELEASE  -


 With contributions from (in alphabetic order):
   Daniel Aravena         : Magnetic Suceptibility
   Michael Atanasov       : Ab Initio Ligand Field Theory (pilot matlab implementation)
   Alexander A. Auer      : GIAO ZORA, VPT2 properties, NMR spectrum
   Ute Becker             : Parallelization
   Giovanni Bistoni       : ED, misc. LED, open-shell LED, HFLD
   Martin Brehm           : Molecular dynamics
   Dmytro Bykov           : SCF Hessian
   Vijay G. Chilkuri      : MRCI spin determinant printing, contributions to CSF-ICE
   Dipayan Datta          : RHF DLPNO-CCSD density
   Achintya Kumar Dutta   : EOM-CC, STEOM-CC
   Dmitry Ganyushin       : Spin-Orbit,Spin-Spin,Magnetic field MRCI
   Miquel Garcia          : C-PCM and meta-GGA Hessian, CC/C-PCM, Gaussian charge scheme
   Yang Guo               : DLPNO-NEVPT2, F12-NEVPT2, CIM, IAO-localization
   Andreas Hansen         : Spin unrestricted coupled pair/coupled cluster methods
   Benjamin Helmich-Paris : MC-RPA, TRAH-SCF, COSX integrals
   Lee Huntington         : MR-EOM, pCC
   Robert Izsak           : Overlap fitted RIJCOSX, COSX-SCS-MP3, EOM
   Marcus Kettner         : VPT2
   Christian Kollmar      : KDIIS, OOCD, Brueckner-CCSD(T), CCSD density, CASPT2, CASPT2-K
   Simone Kossmann        : Meta GGA functionals, TD-DFT gradient, OOMP2, MP2 Hessian
   Martin Krupicka        : Initial AUTO-CI
   Lucas Lang             : DCDCAS
   Marvin Lechner         : AUTO-CI (C++ implementation), FIC-MRCC
   Dagmar Lenk            : GEPOL surface, SMD
   Dimitrios Liakos       : Extrapolation schemes; Compound Job, initial MDCI parallelization
   Dimitrios Manganas     : Further ROCIS development; embedding schemes
   Dimitrios Pantazis     : SARC Basis sets
   Anastasios Papadopoulos: AUTO-CI, single reference methods and gradients
   Taras Petrenko         : DFT Hessian,TD-DFT gradient, ASA, ECA, R-Raman, ABS, FL, XAS/XES, NRVS
   Peter Pinski           : DLPNO-MP2, DLPNO-MP2 Gradient
   Christoph Reimann      : Effective Core Potentials
   Marius Retegan         : Local ZFS, SOC
   Christoph Riplinger    : Optimizer, TS searches, QM/MM, DLPNO-CCSD(T), (RO)-DLPNO pert. Triples
   Tobias Risthaus        : Range-separated hybrids, TD-DFT gradient, RPA, STAB
   Michael Roemelt        : Original ROCIS implementation
   Masaaki Saitow         : Open-shell DLPNO-CCSD energy and density
   Barbara Sandhoefer     : DKH picture change effects
   Avijit Sen             : IP-ROCIS
   Kantharuban Sivalingam : CASSCF convergence, NEVPT2, FIC-MRCI
   Bernardo de Souza      : ESD, SOC TD-DFT
   Georgi Stoychev        : AutoAux, RI-MP2 NMR, DLPNO-MP2 response
   Willem Van den Heuvel  : Paramagnetic NMR
   Boris Wezisla          : Elementary symmetry handling
   Frank Wennmohs         : Technical directorship


 We gratefully acknowledge several colleagues who have allowed us to
 interface, adapt or use parts of their codes:
   Stefan Grimme, W. Hujo, H. Kruse, P. Pracht,  : VdW corrections, initial TS optimization,
                  C. Bannwarth, S. Ehlert          DFT functionals, gCP, sTDA/sTD-DF
   Ed Valeev, F. Pavosevic, A. Kumar             : LibInt (2-el integral package), F12 methods
   Garnet Chan, S. Sharma, J. Yang, R. Olivares  : DMRG
   Ulf Ekstrom                                   : XCFun DFT Library
   Mihaly Kallay                                 : mrcc  (arbitrary order and MRCC methods)
   Jiri Pittner, Ondrej Demel                    : Mk-CCSD
   Frank Weinhold                                : gennbo (NPA and NBO analysis)
   Christopher J. Cramer and Donald G. Truhlar   : smd solvation model
   Lars Goerigk                                  : TD-DFT with DH, B97 family of functionals
   V. Asgeirsson, H. Jonsson                     : NEB implementation
   FAccTs GmbH                                   : IRC, NEB, NEB-TS, DLPNO-Multilevel, CI-OPT
                                                   MM, QMMM, 2- and 3-layer-ONIOM, Crystal-QMMM,
                                                   LR-CPCM, SF, NACMEs, symmetry and pop. for TD-DFT,
                                                   nearIR, NL-DFT gradient (VV10), updates on ESD,
                                                   ML-optimized integration grids
   S Lehtola, MJT Oliveira, MAL Marques          : LibXC Library
   Liviu Ungur et al                             : ANISO software


 Your calculation uses the libint2 library for the computation of 2-el integrals
 For citations please refer to: http://libint.valeyev.net

 Your ORCA version has been built with support for libXC version: 5.1.0
 For citations please refer to: https://tddft.org/programs/libxc/

 This ORCA versions uses:
   CBLAS   interface :  Fast vector & matrix operations
   LAPACKE interface :  Fast linear algebra routines
   SCALAPACK package :  Parallel linear algebra routines
   Shared memory     :  Shared parallel matrices
   BLAS/LAPACK       :  OpenBLAS 0.3.15  USE64BITINT DYNAMIC_ARCH NO_AFFINITY Haswell SINGLE_THREADED
        Core in use  :  Haswell
   Copyright (c) 2011-2014, The OpenBLAS Project


Your calculation utilizes the atom-pairwise dispersion correction
with the Becke-Johnson damping scheme (D3BJ)
Cite in your paper:
S.Grimme, S.Ehrlich, L.Goerigk, J Comput Chem, (2011), 32, 1456–1465 
S.Grimme, J.Antony, S.Ehrlich and H.Krieg, J.Chem.Phys., 132, (2010), 154104 
   

================================================================================

----- Orbital basis set information -----
Your calculation utilizes the basis: def2-TZVP
   F. Weigend and R. Ahlrichs, Phys. Chem. Chem. Phys. 7, 3297 (2005).

----- AuxJ basis set information -----
Your calculation utilizes the auxiliary basis: def2/J
   F. Weigend, Phys. Chem. Chem. Phys. 8, 1057 (2006).

================================================================================
                                        WARNINGS
                       Please study these warnings very carefully!
================================================================================


WARNING: Geometry Optimization
  ===> : Switching off AutoStart
         For restart on a previous wavefunction, please use MOREAD

INFO   : the flag for use of the SHARK integral package has been found!

================================================================================
                                       INPUT FILE
================================================================================
NAME = IM_NMe2/IM_NMe2.inp
|  1> %pal nprocs 24 end
|  2> ! PBE0 D3BJ def2-TZVP TightSCF OPT FREQ TightOpt
|  3> ! CPCM(dmso)
|  4> %scf
|  5> MaxIter 800
|  6> end
|  7> 
|  8> %geom
|  9> MaxIter 800
| 10> MaxStep 0.15
| 11> end
| 12> 
| 13> *xyz 0 1
| 14> C       2.98107600      2.55622300      1.76050000
| 15> C       3.28525200      2.06335200      0.49518700
| 16> C       2.25913800      1.64257800     -0.33303100
| 17> N       0.97003300      1.72707200      0.07533600
| 18> C       0.65440700      2.18240700      1.30755800
| 19> C       1.64707800      2.61721600      2.16477100
| 20> C       0.00552000      1.11555500     -0.82526900
| 21> C      -1.36468000      1.74489600     -0.83057000
| 22> O      -1.91458900      2.30322800      0.08960300
| 23> O      -1.91846500      1.55668700     -2.01655700
| 24> C      -3.27227000      1.97449200     -2.16381300
| 25> H       3.77700900      2.89214100      2.42876700
| 26> H       2.41064100      1.28970100     -1.35639000
| 27> H      -0.40560000      2.20055500      1.55213700
| 28> H       1.36445900      2.99345700      3.14873800
| 29> H       0.42377000      1.19955900     -1.83664900
| 30> H      -3.90490900      1.49336300     -1.40559800
| 31> H      -3.57789400      1.66481200     -3.16879300
| 32> H       4.31330300      1.99973600      0.13633700
| 33> C       1.28506600     -1.10637900     -0.71922300
| 34> C      -0.06704600     -0.44820900     -0.59812300
| 35> C      -0.81261300     -0.76520200      0.67291000
| 36> C      -0.20952500     -0.71416700      1.93319000
| 37> C      -0.93181000     -0.96099000      3.10169300
| 38> C      -2.28479600     -1.27531700      3.01476200
| 39> C      -2.91757600     -1.33163700      1.77305600
| 40> C      -2.19009900     -1.07088600      0.60604500
| 41> O      -2.74267800     -1.08246700     -0.62630200
| 42> C      -4.10218200     -1.41952700     -0.76978400
| 43> N       1.89367000     -1.05072300     -1.92476300
| 44> O       2.91777200     -1.73538800     -2.16829500
| 45> H      -0.68792800     -0.75826400     -1.45322100
| 46> H       0.85526800     -0.49340100      1.99994800
| 47> H      -0.43316300     -0.91235400      4.07231800
| 48> H      -2.86442800     -1.47940300      3.91886300
| 49> H      -3.97913100     -1.57426800      1.71968600
| 50> H      -4.75467100     -0.70216800     -0.24457000
| 51> H      -4.30783200     -2.43539000     -0.39343500
| 52> H      -4.31933400     -1.38120800     -1.84433200
| 53> O       1.45625100     -0.25355000     -2.81620500
| 54> H      -3.34884000      3.06599800     -2.06088400
| 55> N       1.75836000     -2.00208400      0.24343200
| 56> C       1.40141400     -3.38779500      0.04299100
| 57> H       1.59627200     -3.96543600      0.96199700
| 58> H       0.32561300     -3.46467000     -0.17973500
| 59> H       1.96152600     -3.86301100     -0.78762300
| 60> C       3.07523600     -1.78314900      0.78898000
| 61> H       3.19115800     -0.72323300      1.06004600
| 62> H       3.20050400     -2.38199700      1.70669800
| 63> H       3.89058700     -2.04477800      0.08685600
| 64> *
| 65> 
| 66>                          ****END OF INPUT****
================================================================================

                       *****************************
                       * Geometry Optimization Run *
                       *****************************

Geometry optimization settings:
Update method            Update   .... BFGS
Choice of coordinates    CoordSys .... Z-matrix Internals
Initial Hessian          InHess   .... Almoef's Model

Convergence Tolerances:
Energy Change            TolE     ....  1.0000e-06 Eh
Max. Gradient            TolMAXG  ....  1.0000e-04 Eh/bohr
RMS Gradient             TolRMSG  ....  3.0000e-05 Eh/bohr
Max. Displacement        TolMAXD  ....  1.0000e-03 bohr
RMS Displacement         TolRMSD  ....  6.0000e-04 bohr
Strict Convergence                ....  False
------------------------------------------------------------------------------
                        ORCA OPTIMIZATION COORDINATE SETUP
------------------------------------------------------------------------------

The optimization will be done in new redundant internal coordinates
Making redundant internal coordinates   ...  (new redundants) done
Evaluating the initial hessian          ...  (Almloef) done
Evaluating the coordinates              ...  done
Calculating the B-matrix                .... done
Calculating the G-matrix                .... done
Diagonalizing the G-matrix              .... done
Small eigenvalue found = 3.578e-03
Small eigenvalue found = 3.870e-03
Small eigenvalue found = 5.104e-03
Small eigenvalue found = 7.714e-03
Small eigenvalue found = 8.719e-03
Small eigenvalue found = 1.385e-02
Small eigenvalue found = 1.461e-02
Small eigenvalue found = 2.230e-02
Small eigenvalue found = 2.558e-02
The first mode is                       ....  104
The number of degrees of freedom        ....  144

    -----------------------------------------------------------------
                    Redundant Internal Coordinates


    -----------------------------------------------------------------
         Definition                    Initial Value    Approx d2E/dq
    -----------------------------------------------------------------
      1. B(C   1,C   0)                  1.3916         0.621208   
      2. B(C   2,C   1)                  1.3842         0.638340   
      3. B(N   3,C   2)                  1.3549         0.636664   
      4. B(C   4,N   3)                  1.3510         0.645694   
      5. B(C   5,C   4)                  1.3818         0.643992   
      6. B(C   5,C   0)                  1.3952         0.612875   
      7. B(C   6,N   3)                  1.4544         0.441675   
      8. B(C   7,C   6)                  1.5078         0.405276   
      9. B(O   8,C   7)                  1.2087         1.089421   
     10. B(O   9,C   7)                  1.3224         0.717419   
     11. B(C  10,O   9)                  1.4244         0.493090   
     12. B(H  11,C   0)                  1.0922         0.357183   
     13. B(H  12,C   2)                  1.0930         0.356099   
     14. B(H  13,C   4)                  1.0880         0.362744   
     15. B(H  14,C   5)                  1.0907         0.359178   
     16. B(H  15,C   6)                  1.0977         0.350095   
     17. B(H  16,C  10)                  1.0985         0.349085   
     18. B(H  17,C  10)                  1.0951         0.353387   
     19. B(H  18,C   1)                  1.0907         0.359125   
     20. B(C  20,C  19)                  1.5087         0.404037   
     21. B(C  20,C   6)                  1.5818         0.308794   
     22. B(C  21,C  20)                  1.5073         0.406100   
     23. B(C  22,C  21)                  1.3981         0.606525   
     24. B(C  23,C  22)                  1.3957         0.611819   
     25. B(C  24,C  23)                  1.3917         0.620824   
     26. B(C  25,C  24)                  1.3948         0.613917   
     27. B(C  26,C  25)                  1.3997         0.602949   
     28. B(C  26,C  21)                  1.4126         0.575061   
     29. B(O  27,C  26)                  1.3506         0.646717   
     30. B(C  28,O  27)                  1.4080         0.523802   
     31. B(N  29,C  19)                  1.3516         0.644377   
     32. B(O  30,N  29)                  1.2557         0.820788   
     33. B(H  31,C  20)                  1.1013         0.345481   
     34. B(H  32,C  22)                  1.0895         0.360781   
     35. B(H  33,C  23)                  1.0923         0.357065   
     36. B(H  34,C  24)                  1.0932         0.355929   
     37. B(H  35,C  25)                  1.0902         0.359786   
     38. B(H  36,C  28)                  1.1028         0.343543   
     39. B(H  37,C  28)                  1.1027         0.343708   
     40. B(H  38,C  28)                  1.0969         0.351036   
     41. B(O  39,N  29)                  1.2734         0.769267   
     42. B(H  40,C  10)                  1.0990         0.348365   
     43. B(N  41,C  19)                  1.3975         0.544394   
     44. B(C  42,N  41)                  1.4449         0.457363   
     45. B(H  43,C  42)                  1.1028         0.343535   
     46. B(H  44,C  42)                  1.1013         0.345456   
     47. B(H  45,C  42)                  1.1088         0.336048   
     48. B(C  46,N  41)                  1.4421         0.462080   
     49. B(H  47,C  46)                  1.1002         0.346916   
     50. B(H  48,C  46)                  1.1030         0.343359   
     51. B(H  49,C  46)                  1.1074         0.337864   
     52. A(C   1,C   0,H  11)          120.3961         0.352540   
     53. A(C   1,C   0,C   5)          119.2049         0.433316   
     54. A(C   5,C   0,H  11)          120.3990         0.351735   
     55. A(C   0,C   1,H  18)          121.7240         0.352863   
     56. A(C   2,C   1,H  18)          118.9557         0.354493   
     57. A(C   0,C   1,C   2)          119.3203         0.436503   
     58. A(C   1,C   2,N   3)          120.3999         0.435566   
     59. A(C   1,C   2,H  12)          123.7517         0.353985   
     60. A(N   3,C   2,H  12)          115.7345         0.351648   
     61. A(C   2,N   3,C   6)          114.7154         0.405225   
     62. A(C   4,N   3,C   6)          123.4727         0.406234   
     63. A(C   2,N   3,C   4)          121.2109         0.433607   
     64. A(N   3,C   4,H  13)          115.9923         0.353592   
     65. A(N   3,C   4,C   5)          120.2674         0.437367   
     66. A(C   5,C   4,H  13)          123.7254         0.355628   
     67. A(C   0,C   5,C   4)          119.5619         0.436135   
     68. A(C   4,C   5,H  14)          118.8204         0.355032   
     69. A(C   0,C   5,H  14)          121.6157         0.352067   
     70. A(C   7,C   6,C  20)          111.8039         0.356666   
     71. A(N   3,C   6,C  20)          110.9256         0.359682   
     72. A(H  15,C   6,C  20)          103.0289         0.312958   
     73. A(N   3,C   6,H  15)          106.5994         0.329857   
     74. A(N   3,C   6,C   7)          115.4242         0.376863   
     75. A(C   7,C   6,H  15)          108.1240         0.327173   
     76. A(C   6,C   7,O   9)          108.9235         0.410269   
     77. A(C   6,C   7,O   8)          127.1266         0.442127   
     78. A(O   8,C   7,O   9)          123.9183         0.487547   
     79. A(C   7,O   9,C  10)          116.6786         0.422087   
     80. A(O   9,C  10,H  40)          110.3553         0.335659   
     81. A(H  16,C  10,H  17)          110.4169         0.288573   
     82. A(O   9,C  10,H  17)          106.0910         0.336459   
     83. A(O   9,C  10,H  16)          110.3373         0.335774   
     84. A(H  17,C  10,H  40)          110.3254         0.288480   
     85. A(H  16,C  10,H  40)          109.2832         0.287928   
     86. A(C  20,C  19,N  29)          117.2060         0.402338   
     87. A(N  29,C  19,N  41)          119.2286         0.421455   
     88. A(C  20,C  19,N  41)          121.8604         0.390605   
     89. A(C  21,C  20,H  31)          108.4621         0.326568   
     90. A(C  19,C  20,H  31)          108.6707         0.326295   
     91. A(C   6,C  20,H  31)          101.1098         0.312287   
     92. A(C  19,C  20,C  21)          114.7877         0.373589   
     93. A(C   6,C  20,C  21)          110.5905         0.356789   
     94. A(C   6,C  20,C  19)          112.2492         0.356481   
     95. A(C  22,C  21,C  26)          118.1136         0.426556   
     96. A(C  20,C  21,C  26)          119.2060         0.397258   
     97. A(C  20,C  21,C  22)          122.6223         0.400997   
     98. A(C  23,C  22,H  32)          119.3608         0.352229   
     99. A(C  21,C  22,H  32)          118.9617         0.351712   
    100. A(C  21,C  22,C  23)          121.6683         0.431323   
    101. A(C  24,C  23,H  33)          120.6212         0.352483   
    102. A(C  22,C  23,H  33)          119.9886         0.351613   
    103. A(C  22,C  23,C  24)          119.3892         0.433134   
    104. A(C  25,C  24,H  34)          119.2214         0.351627   
    105. A(C  23,C  24,H  34)          120.3959         0.352293   
    106. A(C  23,C  24,C  25)          120.3826         0.433400   
    107. A(C  26,C  25,H  35)          120.4451         0.351197   
    108. A(C  24,C  25,H  35)          119.6241         0.352269   
    109. A(C  24,C  25,C  26)          119.9301         0.431131   
    110. A(C  25,C  26,O  27)          123.1283         0.432336   
    111. A(C  21,C  26,O  27)          116.3602         0.428676   
    112. A(C  21,C  26,C  25)          120.5092         0.426105   
    113. A(C  26,O  27,C  28)          119.3456         0.418837   
    114. A(H  36,C  28,H  38)          109.0673         0.287552   
    115. A(O  27,C  28,H  38)          106.4158         0.339488   
    116. A(H  36,C  28,H  37)          109.0490         0.286606   
    117. A(O  27,C  28,H  37)          111.4592         0.338294   
    118. A(O  27,C  28,H  36)          111.5327         0.338267   
    119. A(H  37,C  28,H  38)          109.2444         0.287573   
    120. A(C  19,N  29,O  30)          121.1817         0.450770   
    121. A(O  30,N  29,O  39)          119.0592         0.462410   
    122. A(C  19,N  29,O  39)          119.7034         0.445501   
    123. A(C  42,N  41,C  46)          115.0654         0.385430   
    124. A(C  19,N  41,C  46)          118.1994         0.397351   
    125. A(C  19,N  41,C  42)          115.8140         0.396635   
    126. A(H  44,C  42,H  45)          108.1818         0.285848   
    127. A(H  43,C  42,H  45)          108.0896         0.285599   
    128. A(N  41,C  42,H  45)          112.9636         0.329527   
    129. A(H  43,C  42,H  44)          107.7322         0.286832   
    130. A(N  41,C  42,H  44)          109.6525         0.331035   
    131. A(N  41,C  42,H  43)          110.0643         0.330730   
    132. A(H  48,C  46,H  49)          108.4008         0.285816   
    133. A(H  47,C  46,H  49)          107.8343         0.286276   
    134. A(N  41,C  46,H  49)          113.3677         0.330381   
    135. A(H  47,C  46,H  48)          107.8252         0.286998   
    136. A(N  41,C  46,H  48)          109.6361         0.331264   
    137. A(N  41,C  46,H  47)          109.6144         0.331830   
    138. D(C   2,C   1,C   0,C   5)     -0.1134         0.026709   
    139. D(C   2,C   1,C   0,H  11)    179.9423         0.026709   
    140. D(H  18,C   1,C   0,C   5)    179.8461         0.026709   
    141. D(H  18,C   1,C   0,H  11)     -0.0983         0.026709   
    142. D(H  12,C   2,C   1,H  18)     -3.0651         0.028301   
    143. D(N   3,C   2,C   1,H  18)   -179.0173         0.028301   
    144. D(H  12,C   2,C   1,C   0)    176.8955         0.028301   
    145. D(N   3,C   2,C   1,C   0)      0.9433         0.028301   
    146. D(C   6,N   3,C   2,H  12)     10.3001         0.032963   
    147. D(C   4,N   3,C   2,H  12)   -178.2919         0.032963   
    148. D(C   4,N   3,C   2,C   1)     -2.0276         0.032963   
    149. D(C   6,N   3,C   2,C   1)   -173.4356         0.032963   
    150. D(C   5,C   4,N   3,C   6)    172.8791         0.033986   
    151. D(C   5,C   4,N   3,C   2)      2.2424         0.033986   
    152. D(H  13,C   4,N   3,C   2)   -179.1089         0.033986   
    153. D(H  13,C   4,N   3,C   6)     -8.4722         0.033986   
    154. D(H  14,C   5,C   4,H  13)      0.5927         0.028839   
    155. D(C   0,C   5,C   4,H  13)   -179.9143         0.028839   
    156. D(H  14,C   5,C   0,H  11)     -0.2518         0.025956   
    157. D(C   0,C   5,C   4,N   3)     -1.3747         0.028839   
    158. D(H  14,C   5,C   0,C   1)    179.8038         0.025956   
    159. D(H  14,C   5,C   4,N   3)    179.1323         0.028839   
    160. D(C   4,C   5,C   0,H  11)   -179.7302         0.025956   
    161. D(C   4,C   5,C   0,C   1)      0.3254         0.025956   
    162. D(C  20,C   6,N   3,C   4)    -89.5958         0.016635   
    163. D(C  20,C   6,N   3,C   2)     81.5929         0.016635   
    164. D(H  15,C   6,N   3,C   4)    158.9447         0.016635   
    165. D(C   7,C   6,N   3,C   2)   -149.9402         0.016635   
    166. D(C   7,C   6,N   3,C   4)     38.8710         0.016635   
    167. D(H  15,C   6,N   3,C   2)    -29.8666         0.016635   
    168. D(O   8,C   7,C   6,N   3)    -30.0890         0.012176   
    169. D(O   9,C   7,C   6,C  20)    -80.0615         0.012176   
    170. D(O   9,C   7,C   6,H  15)     32.6710         0.012176   
    171. D(O   9,C   7,C   6,N   3)    151.9074         0.012176   
    172. D(O   8,C   7,C   6,C  20)     97.9421         0.012176   
    173. D(O   8,C   7,C   6,H  15)   -149.3253         0.012176   
    174. D(C  10,O   9,C   7,O   8)     -3.9346         0.038730   
    175. D(C  10,O   9,C   7,C   6)    174.1473         0.038730   
    176. D(H  40,C  10,O   9,C   7)     65.1280         0.019206   
    177. D(H  17,C  10,O   9,C   7)   -175.3594         0.019206   
    178. D(H  16,C  10,O   9,C   7)    -55.7470         0.019206   
    179. D(H  31,C  20,C  19,N  41)   -117.8879         0.012105   
    180. D(C  21,C  20,C  19,N  41)      3.7292         0.012105   
    181. D(C  21,C  20,C  19,N  29)    168.7261         0.012105   
    182. D(C   6,C  20,C  19,N  41)    131.1352         0.012105   
    183. D(C   6,C  20,C  19,N  29)    -63.8679         0.012105   
    184. D(H  31,C  20,C   6,H  15)    -56.8700         0.007884   
    185. D(H  31,C  20,C   6,C   7)     59.0087         0.007884   
    186. D(H  31,C  20,C   6,N   3)   -170.5991         0.007884   
    187. D(C  21,C  20,C   6,H  15)   -171.6112         0.007884   
    188. D(C  21,C  20,C   6,C   7)    -55.7326         0.007884   
    189. D(C  21,C  20,C   6,N   3)     74.6596         0.007884   
    190. D(C  19,C  20,C   6,H  15)     58.7767         0.007884   
    191. D(H  31,C  20,C  19,N  29)     47.1090         0.012105   
    192. D(C  19,C  20,C   6,N   3)    -54.9524         0.007884   
    193. D(C  19,C  20,C   6,C   7)    174.6554         0.007884   
    194. D(C  26,C  21,C  20,H  31)    -14.3883         0.012223   
    195. D(C  26,C  21,C  20,C  19)   -136.1189         0.012223   
    196. D(C  26,C  21,C  20,C   6)     95.6369         0.012223   
    197. D(C  22,C  21,C  20,H  31)    168.4371         0.012223   
    198. D(C  22,C  21,C  20,C  19)     46.7065         0.012223   
    199. D(C  22,C  21,C  20,C   6)    -81.5377         0.012223   
    200. D(C  23,C  22,C  21,C  20)    177.4661         0.025390   
    201. D(H  32,C  22,C  21,C  26)    179.1508         0.025390   
    202. D(H  32,C  22,C  21,C  20)     -3.6453         0.025390   
    203. D(C  23,C  22,C  21,C  26)      0.2622         0.025390   
    204. D(H  33,C  23,C  22,H  32)      1.2034         0.025861   
    205. D(H  33,C  23,C  22,C  21)   -179.9124         0.025861   
    206. D(C  24,C  23,C  22,H  32)   -178.4342         0.025861   
    207. D(C  24,C  23,C  22,C  21)      0.4500         0.025861   
    208. D(H  34,C  24,C  23,H  33)     -0.1190         0.026674   
    209. D(H  34,C  24,C  23,C  22)    179.5162         0.026674   
    210. D(C  25,C  24,C  23,H  33)    179.7835         0.026674   
    211. D(C  25,C  24,C  23,C  22)     -0.5813         0.026674   
    212. D(H  35,C  25,C  24,H  34)      0.2035         0.026049   
    213. D(H  35,C  25,C  24,C  23)   -179.7002         0.026049   
    214. D(C  26,C  25,C  24,H  34)    179.8993         0.026049   
    215. D(C  26,C  25,C  24,C  23)     -0.0044         0.026049   
    216. D(O  27,C  26,C  25,H  35)      0.9920         0.025076   
    217. D(O  27,C  26,C  25,C  24)   -178.7013         0.025076   
    218. D(C  21,C  26,C  25,H  35)   -179.5728         0.025076   
    219. D(C  21,C  26,C  25,C  24)      0.7340         0.025076   
    220. D(O  27,C  26,C  21,C  22)    178.6191         0.022702   
    221. D(O  27,C  26,C  21,C  20)      1.3170         0.022702   
    222. D(C  25,C  26,C  21,C  22)     -0.8531         0.022702   
    223. D(C  25,C  26,C  21,C  20)   -178.1552         0.022702   
    224. D(C  28,O  27,C  26,C  25)     -2.4709         0.030885   
    225. D(C  28,O  27,C  26,C  21)    178.0721         0.030885   
    226. D(H  38,C  28,O  27,C  26)   -178.9416         0.021766   
    227. D(H  37,C  28,O  27,C  26)    -59.9285         0.021766   
    228. D(H  36,C  28,O  27,C  26)     62.2188         0.021766   
    229. D(O  39,N  29,C  19,N  41)    178.8549         0.033835   
    230. D(O  39,N  29,C  19,C  20)     13.4477         0.033835   
    231. D(O  30,N  29,C  19,N  41)     -3.8859         0.033835   
    232. D(O  30,N  29,C  19,C  20)   -169.2932         0.033835   
    233. D(C  46,N  41,C  19,N  29)     66.1684         0.023596   
    234. D(C  46,N  41,C  19,C  20)   -129.1286         0.023596   
    235. D(C  42,N  41,C  19,N  29)    -76.3320         0.023596   
    236. D(C  42,N  41,C  19,C  20)     88.3710         0.023596   
    237. D(H  45,C  42,N  41,C  46)    -70.5215         0.017853   
    238. D(H  45,C  42,N  41,C  19)     73.1595         0.017853   
    239. D(H  44,C  42,N  41,C  46)    168.7367         0.017853   
    240. D(H  44,C  42,N  41,C  19)    -47.5823         0.017853   
    241. D(H  43,C  42,N  41,C  46)     50.3945         0.017853   
    242. D(H  43,C  42,N  41,C  19)   -165.9245         0.017853   
    243. D(H  49,C  46,N  41,C  42)     68.8014         0.018230   
    244. D(H  49,C  46,N  41,C  19)    -73.9709         0.018230   
    245. D(H  48,C  46,N  41,C  42)    -52.4812         0.018230   
    246. D(H  48,C  46,N  41,C  19)    164.7465         0.018230   
    247. D(H  47,C  46,N  41,C  42)   -170.6574         0.018230   
    248. D(H  47,C  46,N  41,C  19)     46.5703         0.018230   
    -----------------------------------------------------------------

Number of atoms                         .... 50
Number of degrees of freedom            .... 248

         *************************************************************
         *                GEOMETRY OPTIMIZATION CYCLE   1            *
         *************************************************************
---------------------------------
CARTESIAN COORDINATES (ANGSTROEM)
---------------------------------
  C      2.981076    2.556223    1.760500
  C      3.285252    2.063352    0.495187
  C      2.259138    1.642578   -0.333031
  N      0.970033    1.727072    0.075336
  C      0.654407    2.182407    1.307558
  C      1.647078    2.617216    2.164771
  C      0.005520    1.115555   -0.825269
  C     -1.364680    1.744896   -0.830570
  O     -1.914589    2.303228    0.089603
  O     -1.918465    1.556687   -2.016557
  C     -3.272270    1.974492   -2.163813
  H      3.777009    2.892141    2.428767
  H      2.410641    1.289701   -1.356390
  H     -0.405600    2.200555    1.552137
  H      1.364459    2.993457    3.148738
  H      0.423770    1.199559   -1.836649
  H     -3.904909    1.493363   -1.405598
  H     -3.577894    1.664812   -3.168793
  H      4.313303    1.999736    0.136337
  C      1.285066   -1.106379   -0.719223
  C     -0.067046   -0.448209   -0.598123
  C     -0.812613   -0.765202    0.672910
  C     -0.209525   -0.714167    1.933190
  C     -0.931810   -0.960990    3.101693
  C     -2.284796   -1.275317    3.014762
  C     -2.917576   -1.331637    1.773056
  C     -2.190099   -1.070886    0.606045
  O     -2.742678   -1.082467   -0.626302
  C     -4.102182   -1.419527   -0.769784
  N      1.893670   -1.050723   -1.924763
  O      2.917772   -1.735388   -2.168295
  H     -0.687928   -0.758264   -1.453221
  H      0.855268   -0.493401    1.999948
  H     -0.433163   -0.912354    4.072318
  H     -2.864428   -1.479403    3.918863
  H     -3.979131   -1.574268    1.719686
  H     -4.754671   -0.702168   -0.244570
  H     -4.307832   -2.435390   -0.393435
  H     -4.319334   -1.381208   -1.844332
  O      1.456251   -0.253550   -2.816205
  H     -3.348840    3.065998   -2.060884
  N      1.758360   -2.002084    0.243432
  C      1.401414   -3.387795    0.042991
  H      1.596272   -3.965436    0.961997
  H      0.325613   -3.464670   -0.179735
  H      1.961526   -3.863011   -0.787623
  C      3.075236   -1.783149    0.788980
  H      3.191158   -0.723233    1.060046
  H      3.200504   -2.381997    1.706698
  H      3.890587   -2.044778    0.086856

----------------------------
CARTESIAN COORDINATES (A.U.)
----------------------------
  NO LB      ZA    FRAG     MASS         X           Y           Z
   0 C     6.0000    0    12.011    5.633417    4.830561    3.326863
   1 C     6.0000    0    12.011    6.208227    3.899170    0.935768
   2 C     6.0000    0    12.011    4.269152    3.104023   -0.629337
   3 N     7.0000    0    14.007    1.833097    3.263693    0.142364
   4 C     6.0000    0    12.011    1.236650    4.124152    2.470927
   5 C     6.0000    0    12.011    3.112526    4.945821    4.090824
   6 C     6.0000    0    12.011    0.010431    2.108093   -1.559532
   7 C     6.0000    0    12.011   -2.578871    3.297376   -1.569550
   8 O     8.0000    0    15.999   -3.618049    4.352470    0.169325
   9 O     8.0000    0    15.999   -3.625373    2.941712   -3.810740
  10 C     6.0000    0    12.011   -6.183694    3.731249   -4.089014
  11 H     1.0000    0     1.008    7.137513    5.465354    4.589704
  12 H     1.0000    0     1.008    4.555451    2.437182   -2.563206
  13 H     1.0000    0     1.008   -0.766473    4.158446    2.933114
  14 H     1.0000    0     1.008    2.578454    5.656814    5.950252
  15 H     1.0000    0     1.008    0.800809    2.266838   -3.470764
  16 H     1.0000    0     1.008   -7.379209    2.822047   -2.656195
  17 H     1.0000    0     1.008   -6.761240    3.146039   -5.988151
  18 H     1.0000    0     1.008    8.150961    3.778953    0.257640
  19 C     6.0000    0    12.011    2.428423   -2.090753   -1.359134
  20 C     6.0000    0    12.011   -0.126699   -0.846992   -1.130289
  21 C     6.0000    0    12.011   -1.535616   -1.446022    1.271616
  22 C     6.0000    0    12.011   -0.395945   -1.349580    3.653200
  23 C     6.0000    0    12.011   -1.760866   -1.816008    5.861350
  24 C     6.0000    0    12.011   -4.317639   -2.410000    5.697075
  25 C     6.0000    0    12.011   -5.513420   -2.516429    3.350590
  26 C     6.0000    0    12.011   -4.138687   -2.023681    1.145259
  27 O     8.0000    0    15.999   -5.182910   -2.045566   -1.183539
  28 C     6.0000    0    12.011   -7.752001   -2.682517   -1.454681
  29 N     7.0000    0    14.007    3.578518   -1.985579   -3.637275
  30 O     8.0000    0    15.999    5.513790   -3.279408   -4.097484
  31 H     1.0000    0     1.008   -1.299996   -1.432911   -2.746190
  32 H     1.0000    0     1.008    1.616222   -0.932393    3.779354
  33 H     1.0000    0     1.008   -0.818559   -1.724099    7.695566
  34 H     1.0000    0     1.008   -5.412984   -2.795667    7.405578
  35 H     1.0000    0     1.008   -7.519468   -2.974935    3.249736
  36 H     1.0000    0     1.008   -8.985026   -1.326905   -0.462170
  37 H     1.0000    0     1.008   -8.140623   -4.602220   -0.743484
  38 H     1.0000    0     1.008   -8.162358   -2.610105   -3.485282
  39 O     8.0000    0    15.999    2.751916   -0.479140   -5.321856
  40 H     1.0000    0     1.008   -6.328390    5.793897   -3.894506
  41 N     7.0000    0    14.007    3.322819   -3.783390    0.460020
  42 C     6.0000    0    12.011    2.648289   -6.402005    0.081241
  43 H     1.0000    0     1.008    3.016517   -7.493588    1.817911
  44 H     1.0000    0     1.008    0.615319   -6.547277   -0.339650
  45 H     1.0000    0     1.008    3.706747   -7.300033   -1.488392
  46 C     6.0000    0    12.011    5.811354   -3.369663    1.490956
  47 H     1.0000    0     1.008    6.030415   -1.366712    2.003197
  48 H     1.0000    0     1.008    6.048076   -4.501322    3.225192
  49 H     1.0000    0     1.008    7.352144   -3.864070    0.164134

--------------------------------
INTERNAL COORDINATES (ANGSTROEM)
--------------------------------
 C      0   0   0     0.000000000000     0.00000000     0.00000000
 C      1   0   0     1.391568126103     0.00000000     0.00000000
 C      2   1   0     1.384162474421   119.32032879     0.00000000
 N      3   2   1     1.354878054937   120.39991784     0.94329175
 C      4   3   2     1.351044333612   121.21091736   357.97240065
 C      5   4   3     1.381762898652   120.26744232     2.24244111
 C      4   3   2     1.454416630296   114.71538500   186.56441927
 C      7   4   3     1.507828317443   115.42423393   210.05980563
 O      8   7   4     1.208657470268   127.12655354   329.91104777
 O      8   7   4     1.322371210393   108.92350142   151.90742866
 C     10   8   7     1.424441408267   116.67857096   174.14734425
 H      1   2   3     1.092213819040   120.39614609   179.94225065
 H      3   2   1     1.093041160716   123.75174854   176.89547620
 H      5   4   3     1.088008767058   115.99228039   180.89113973
 H      6   5   4     1.090697871242   118.82041174   179.13229984
 H      7   4   3     1.097669913460   106.59939027   330.13342144
 H     11  10   8     1.098456737968   110.33726078   304.25303749
 H     11  10   8     1.095122153997   106.09102781   184.64063255
 H      2   1   3     1.090737904612   121.72399037   179.95949214
 C      7   4   3     2.566217921492    90.44681604    55.13931411
 C     20   7   4     1.508661598717    34.78615638   130.11939418
 C     21  20   7     1.507275555639   114.78767616   232.59399762
 C     22  21  20     1.398079177074   122.62229207    46.70649192
 C     23  22  21     1.395713608002   121.66827476   177.46609901
 C     24  23  22     1.391736173952   119.38923667     0.45004169
 C     25  24  23     1.394781796998   120.38259773   359.41872623
 C     26  25  24     1.399688730987   119.93007799     0.00000000
 O     27  26  25     1.350613489941   123.12829949   181.29873986
 C     28  27  26     1.407994195279   119.34559499   357.52909378
 N     20   7   4     1.351600203741    98.74314914   256.23338989
 O     30  20   7     1.255730426347   121.18166631   159.49392471
 H     21  20   7     1.101281594577   108.67068300   110.97695914
 H     23  22  21     1.089485378593   118.96167920   356.35465802
 H     24  23  22     1.092303612431   119.98858677   180.08760280
 H     25  24  23     1.093171061189   120.39592455   179.51619591
 H     26  25  24     1.090237211384   119.62411172   180.29982619
 H     29  28  27     1.102812575100   111.53266242    62.21880052
 H     29  28  27     1.102682242112   111.45917556   300.07149926
 H     29  28  27     1.096939716288   106.41583350   181.05844524
 O     30  20   7     1.273377011279   119.70342066   342.23476801
 H     11  10   8     1.099018967979   110.35530390    65.12795296
 N     20   7   4     1.397497515735   138.78815598    53.97050297
 C     42  20   7     1.444915920363   115.81401923   129.07762071
 H     43  42  20     1.102819474384   110.06431496   194.07552291
 H     43  42  20     1.101301243213   109.65248007   312.41772853
 H     43  42  20     1.108817079683   112.96358355    73.15954556
 C     42  20   7     1.442122586296   118.19940790   271.57799222
 H     47  42  20     1.100152995495   109.61436060    46.57034121
 H     47  42  20     1.102958442758   109.63606760   164.74654954
 H     47  42  20     1.107350485717   113.36773778   286.02912882

---------------------------
INTERNAL COORDINATES (A.U.)
---------------------------
 C      0   0   0     0.000000000000     0.00000000     0.00000000
 C      1   0   0     2.629682655029     0.00000000     0.00000000
 C      2   1   0     2.615688001507   119.32032879     0.00000000
 N      3   2   1     2.560348468691   120.39991784     0.94329175
 C      4   3   2     2.553103785313   121.21091736   357.97240065
 C      5   4   3     2.611153460465   120.26744232     2.24244111
 C      4   3   2     2.748449115881   114.71538500   186.56441927
 C      7   4   3     2.849382576938   115.42423393   210.05980563
 O      8   7   4     2.284031608524   127.12655354   329.91104777
 O      8   7   4     2.498919435024   108.92350142   151.90742866
 C     10   8   7     2.691804155442   116.67857096   174.14734425
 H      1   2   3     2.063984997670   120.39614609   179.94225065
 H      3   2   1     2.065548446856   123.75174854   176.89547620
 H      5   4   3     2.056038601044   115.99228039   180.89113973
 H      6   5   4     2.061120271498   118.82041174   179.13229984
 H      7   4   3     2.074295521885   106.59939027   330.13342144
 H     11  10   8     2.075782404720   110.33726078   304.25303749
 H     11  10   8     2.069480954245   106.09102781   184.64063255
 H      2   1   3     2.061195923603   121.72399037   179.95949214
 C      7   4   3     4.849449071581    90.44681604    55.13931411
 C     20   7   4     2.850957250339    34.78615638   130.11939418
 C     21  20   7     2.848338008512   114.78767616   232.59399762
 C     22  21  20     2.641986758209   122.62229207    46.70649192
 C     23  22  21     2.637516480512   121.66827476   177.46609901
 C     24  23  22     2.630000219440   119.38923667     0.45004169
 C     25  24  23     2.635755612904   120.38259773   359.41872623
 C     26  25  24     2.645028374301   119.93007799     0.00000000
 O     27  26  25     2.552289608768   123.12829949   181.29873986
 C     28  27  26     2.660723427229   119.34559499   357.52909378
 N     20   7   4     2.554154227622    98.74314914   256.23338989
 O     30  20   7     2.372986603828   121.18166631   159.49392471
 H     21  20   7     2.081120610078   108.67068300   110.97695914
 H     23  22  21     2.058828992453   118.96167920   356.35465802
 H     24  23  22     2.064154682588   119.98858677   180.08760280
 H     25  24  23     2.065793923175   120.39592455   179.51619591
 H     26  25  24     2.060249750525   119.62411172   180.29982619
 H     29  28  27     2.084013743983   111.53266242    62.21880052
 H     29  28  27     2.083767450331   111.45917556   300.07149926
 H     29  28  27     2.072915649205   106.41583350   181.05844524
 O     30  20   7     2.406333816549   119.70342066   342.23476801
 H     11  10   8     2.076844865465   110.35530390    65.12795296
 N     20   7   4     2.640887577575   138.78815598    53.97050297
 C     42  20   7     2.730495376029   115.81401923   129.07762071
 H     43  42  20     2.084026781741   110.06431496   194.07552291
 H     43  42  20     2.081157740619   109.65248007   312.41772853
 H     43  42  20     2.095360613215   112.96358355    73.15954556
 C     42  20   7     2.725216739642   118.19940790   271.57799222
 H     47  42  20     2.078987866898   109.61436060    46.57034121
 H     47  42  20     2.084289393910   109.63606760   164.74654954
 H     47  42  20     2.092589152270   113.36773778   286.02912882

---------------------
BASIS SET INFORMATION
---------------------
There are 4 groups of distinct atoms

 Group   1 Type C   : 11s6p2d1f contracted to 5s3p2d1f pattern {62111/411/11/1}
 Group   2 Type N   : 11s6p2d1f contracted to 5s3p2d1f pattern {62111/411/11/1}
 Group   3 Type O   : 11s6p2d1f contracted to 5s3p2d1f pattern {62111/411/11/1}
 Group   4 Type H   : 5s1p contracted to 3s1p pattern {311/1}

Atom   0C    basis set group =>   1
Atom   1C    basis set group =>   1
Atom   2C    basis set group =>   1
Atom   3N    basis set group =>   2
Atom   4C    basis set group =>   1
Atom   5C    basis set group =>   1
Atom   6C    basis set group =>   1
Atom   7C    basis set group =>   1
Atom   8O    basis set group =>   3
Atom   9O    basis set group =>   3
Atom  10C    basis set group =>   1
Atom  11H    basis set group =>   4
Atom  12H    basis set group =>   4
Atom  13H    basis set group =>   4
Atom  14H    basis set group =>   4
Atom  15H    basis set group =>   4
Atom  16H    basis set group =>   4
Atom  17H    basis set group =>   4
Atom  18H    basis set group =>   4
Atom  19C    basis set group =>   1
Atom  20C    basis set group =>   1
Atom  21C    basis set group =>   1
Atom  22C    basis set group =>   1
Atom  23C    basis set group =>   1
Atom  24C    basis set group =>   1
Atom  25C    basis set group =>   1
Atom  26C    basis set group =>   1
Atom  27O    basis set group =>   3
Atom  28C    basis set group =>   1
Atom  29N    basis set group =>   2
Atom  30O    basis set group =>   3
Atom  31H    basis set group =>   4
Atom  32H    basis set group =>   4
Atom  33H    basis set group =>   4
Atom  34H    basis set group =>   4
Atom  35H    basis set group =>   4
Atom  36H    basis set group =>   4
Atom  37H    basis set group =>   4
Atom  38H    basis set group =>   4
Atom  39O    basis set group =>   3
Atom  40H    basis set group =>   4
Atom  41N    basis set group =>   2
Atom  42C    basis set group =>   1
Atom  43H    basis set group =>   4
Atom  44H    basis set group =>   4
Atom  45H    basis set group =>   4
Atom  46C    basis set group =>   1
Atom  47H    basis set group =>   4
Atom  48H    basis set group =>   4
Atom  49H    basis set group =>   4
---------------------------------
AUXILIARY/J BASIS SET INFORMATION
---------------------------------
There are 4 groups of distinct atoms

 Group   1 Type C   : 12s5p4d2f1g contracted to 6s4p3d1f1g pattern {711111/2111/211/2/1}
 Group   2 Type N   : 12s5p4d2f1g contracted to 6s4p3d1f1g pattern {711111/2111/211/2/1}
 Group   3 Type O   : 12s5p4d2f1g contracted to 6s4p3d1f1g pattern {711111/2111/211/2/1}
 Group   4 Type H   : 5s2p1d contracted to 3s1p1d pattern {311/2/1}

Atom   0C    basis set group =>   1
Atom   1C    basis set group =>   1
Atom   2C    basis set group =>   1
Atom   3N    basis set group =>   2
Atom   4C    basis set group =>   1
Atom   5C    basis set group =>   1
Atom   6C    basis set group =>   1
Atom   7C    basis set group =>   1
Atom   8O    basis set group =>   3
Atom   9O    basis set group =>   3
Atom  10C    basis set group =>   1
Atom  11H    basis set group =>   4
Atom  12H    basis set group =>   4
Atom  13H    basis set group =>   4
Atom  14H    basis set group =>   4
Atom  15H    basis set group =>   4
Atom  16H    basis set group =>   4
Atom  17H    basis set group =>   4
Atom  18H    basis set group =>   4
Atom  19C    basis set group =>   1
Atom  20C    basis set group =>   1
Atom  21C    basis set group =>   1
Atom  22C    basis set group =>   1
Atom  23C    basis set group =>   1
Atom  24C    basis set group =>   1
Atom  25C    basis set group =>   1
Atom  26C    basis set group =>   1
Atom  27O    basis set group =>   3
Atom  28C    basis set group =>   1
Atom  29N    basis set group =>   2
Atom  30O    basis set group =>   3
Atom  31H    basis set group =>   4
Atom  32H    basis set group =>   4
Atom  33H    basis set group =>   4
Atom  34H    basis set group =>   4
Atom  35H    basis set group =>   4
Atom  36H    basis set group =>   4
Atom  37H    basis set group =>   4
Atom  38H    basis set group =>   4
Atom  39O    basis set group =>   3
Atom  40H    basis set group =>   4
Atom  41N    basis set group =>   2
Atom  42C    basis set group =>   1
Atom  43H    basis set group =>   4
Atom  44H    basis set group =>   4
Atom  45H    basis set group =>   4
Atom  46C    basis set group =>   1
Atom  47H    basis set group =>   4
Atom  48H    basis set group =>   4
Atom  49H    basis set group =>   4


           ************************************************************
           *        Program running with 24 parallel MPI-processes    *
           *              working on a common directory               *
           ************************************************************
------------------------------------------------------------------------------
                           ORCA GTO INTEGRAL CALCULATION
                           -- RI-GTO INTEGRALS CHOSEN --
------------------------------------------------------------------------------
------------------------------------------------------------------------------
                   ___                                                        
                  /   \      - P O W E R E D   B Y -                         
                 /     \                                                     
                 |  |  |   _    _      __       _____    __    __             
                 |  |  |  | |  | |    /  \     |  _  \  |  |  /  |          
                  \  \/   | |  | |   /    \    | | | |  |  | /  /          
                 / \  \   | |__| |  /  /\  \   | |_| |  |  |/  /          
                |  |  |   |  __  | /  /__\  \  |    /   |      \           
                |  |  |   | |  | | |   __   |  |    \   |  |\   \          
                \     /   | |  | | |  |  |  |  | |\  \  |  | \   \       
                 \___/    |_|  |_| |__|  |__|  |_| \__\ |__|  \__/        
                                                                              
                      - O R C A' S   B I G   F R I E N D -                    
                                      &                                       
                       - I N T E G R A L  F E E D E R -                       
                                                                              
 v1 FN, 2020, v2 2021                                                         
------------------------------------------------------------------------------


Reading SHARK input file IM_NMe2/IM_NMe2.SHARKINP.tmp ... ok
----------------------
SHARK INTEGRAL PACKAGE
----------------------

Number of atoms                             ...     50
Number of basis functions                   ...    975
Number of shells                            ...    389
Maximum angular momentum                    ...      3
Integral batch strategy                     ... SHARK/LIBINT Hybrid
RI-J (if used) integral strategy            ... SPLIT-RIJ (Revised 2003 algorithm where possible)
Printlevel                                  ...      1
Contraction scheme used                     ... SEGMENTED contraction
Coulomb Range Separation                    ... NOT USED
Exchange Range Separation                   ... NOT USED
Finite Nucleus Model                        ... NOT USED
Auxiliary Coulomb fitting basis             ... AVAILABLE
   # of basis functions in Aux-J            ...   1576
   # of shells in Aux-J                     ...    520
   Maximum angular momentum in Aux-J        ...      4
Auxiliary J/K fitting basis                 ... NOT available
Auxiliary Correlation fitting basis         ... NOT available
Auxiliary 'external' fitting basis          ... NOT available
Integral threshold                          ...     2.500000e-11
Primitive cut-off                           ...     2.500000e-12
Primitive pair pre-selection threshold      ...     2.500000e-12

Calculating pre-screening integrals         ... done (  0.1 sec) Dimension = 389
Organizing shell pair data                  ... done (  0.7 sec)
Shell pair information
Total number of shell pairs                 ...     75855
Shell pairs after pre-screening             ...     55168
Total number of primitive shell pairs       ...    230844
Primitive shell pairs kept                  ...    109319
          la=0 lb=0:  14640 shell pairs
          la=1 lb=0:  15975 shell pairs
          la=1 lb=1:   4397 shell pairs
          la=2 lb=0:   7780 shell pairs
          la=2 lb=1:   4335 shell pairs
          la=2 lb=2:   1105 shell pairs
          la=3 lb=0:   3602 shell pairs
          la=3 lb=1:   2072 shell pairs
          la=3 lb=2:   1012 shell pairs
          la=3 lb=3:    250 shell pairs

Calculating one electron integrals          ... done (  0.1 sec)
Calculating RI/J V-Matrix + Cholesky decomp.... done (  0.3 sec)
Calculating Nuclear repulsion               ... done (  0.0 sec) ENN=   2776.761205852394 Eh

SHARK setup successfully completed in   2.0 seconds

Maximum memory used throughout the entire GTOINT-calculation: 81.1 MB


           ************************************************************
           *        Program running with 24 parallel MPI-processes    *
           *              working on a common directory               *
           ************************************************************
-------------------------------------------------------------------------------
                                 ORCA SCF
-------------------------------------------------------------------------------

------------
SCF SETTINGS
------------
Hamiltonian:
 Density Functional     Method          .... DFT(GTOs)
 Exchange Functional    Exchange        .... PBE
   PBE kappa parameter   XKappa         ....  0.804000
   PBE mue parameter    XMuePBE         ....  0.219520
 Correlation Functional Correlation     .... PBE
   PBE beta parameter  CBetaPBE         ....  0.066725
 LDA part of GGA corr.  LDAOpt          .... PW91-LDA
 Gradients option       PostSCFGGA      .... off
 Hybrid DFT is turned on
   Fraction HF Exchange ScalHFX         ....  0.250000
   Scaling of DF-GGA-X  ScalDFX         ....  0.750000
   Scaling of DF-GGA-C  ScalDFC         ....  1.000000
   Scaling of DF-LDA-C  ScalLDAC        ....  1.000000
   Perturbative correction              ....  0.000000
   Density functional embedding theory  .... OFF
   NL short-range parameter             ....  6.900000
 RI-approximation to the Coulomb term is turned on
   Number of AuxJ basis functions       .... 1576
   RIJ-COSX (HFX calculated with COS-X)).... on


General Settings:
 Integral files         IntName         .... IM_NMe2/IM_NMe2
 Hartree-Fock type      HFTyp           .... RHF
 Total Charge           Charge          ....    0
 Multiplicity           Mult            ....    1
 Number of Electrons    NEL             ....  198
 Basis Dimension        Dim             ....  975
 Nuclear Repulsion      ENuc            ....   2776.7612058524 Eh

Convergence Acceleration:
 DIIS                   CNVDIIS         .... on
   Start iteration      DIISMaxIt       ....    12
   Startup error        DIISStart       ....  0.200000
   # of expansion vecs  DIISMaxEq       ....     5
   Bias factor          DIISBfac        ....   1.050
   Max. coefficient     DIISMaxC        ....  10.000
 Trust-Rad. Augm. Hess. CNVTRAH         .... auto
   Auto Start mean grad. ratio tolernc. ....  1.125000
   Auto Start start iteration           ....    20
   Auto Start num. interpolation iter.  ....    10
   Max. Number of Micro iterations      ....    16
   Max. Number of Macro iterations      .... Maxiter - #DIIS iter
   Number of Davidson start vectors     ....     2
   Converg. threshold I  (grad. norm)   ....   1.000e-05
   Converg. threshold II (energy diff.) ....   1.000e-08
   Grad. Scal. Fac. for Micro threshold ....   0.100
   Minimum threshold for Micro iter.    ....   0.010
   NR start threshold (gradient norm)   ....   0.001
   Initial trust radius                 ....   0.400
   Minimum AH scaling param. (alpha)    ....   1.000
   Maximum AH scaling param. (alpha)    .... 1000.000
   Orbital update algorithm             .... Taylor
   White noise on init. David. guess    .... on
   Maximum white noise                  ....   0.010
   Quad. conv. algorithm                .... NR
 SOSCF                  CNVSOSCF        .... on
   Start iteration      SOSCFMaxIt      ....   150
   Startup grad/error   SOSCFStart      ....  0.003300
 Level Shifting         CNVShift        .... on
   Level shift para.    LevelShift      ....    0.2500
   Turn off err/grad.   ShiftErr        ....    0.0010
 Zerner damping         CNVZerner       .... off
 Static damping         CNVDamp         .... on
   Fraction old density DampFac         ....    0.7000
   Max. Damping (<1)    DampMax         ....    0.9800
   Min. Damping (>=0)   DampMin         ....    0.0000
   Turn off err/grad.   DampErr         ....    0.1000
 Fernandez-Rico         CNVRico         .... off

SCF Procedure:
 Maximum # iterations   MaxIter         ....   800
 SCF integral mode      SCFMode         .... Direct
   Integral package                     .... SHARK and LIBINT hybrid scheme
 Reset frequency        DirectResetFreq ....    20
 Integral Threshold     Thresh          ....  2.500e-11 Eh
 Primitive CutOff       TCut            ....  2.500e-12 Eh

Convergence Tolerance:
 Convergence Check Mode ConvCheckMode   .... Total+1el-Energy
 Convergence forced     ConvForced      .... 0
 Energy Change          TolE            ....  1.000e-08 Eh
 1-El. energy change                    ....  1.000e-05 Eh
 Orbital Gradient       TolG            ....  1.000e-05
 Orbital Rotation angle TolX            ....  1.000e-05
 DIIS Error             TolErr          ....  5.000e-07


Diagonalization of the overlap matrix:
Smallest eigenvalue                        ... 5.101e-06
Time for diagonalization                   ...    0.315 sec
Threshold for overlap eigenvalues          ... 1.000e-08
Number of eigenvalues below threshold      ... 0
Time for construction of square roots      ...    0.176 sec
Total time needed                          ...    0.497 sec

Time for model grid setup =    0.462 sec

------------------------------
INITIAL GUESS: MODEL POTENTIAL
------------------------------
Loading Hartree-Fock densities                     ... done
Calculating cut-offs                               ... done
Initializing the effective Hamiltonian             ... done
Setting up the integral package (SHARK)            ... done
Starting the Coulomb interaction                   ... done (   0.6 sec)
Reading the grid                                   ... done
Mapping shells                                     ... done
Starting the XC term evaluation                    ... done (   0.3 sec)
  promolecular density results
     # of electrons  =    197.986397765
     EX              =   -164.431372282
     EC              =     -6.699463796
     EX+EC           =   -171.130836078
Transforming the Hamiltonian                       ... done (   0.2 sec)
Diagonalizing the Hamiltonian                      ... done (   0.3 sec)
Back transforming the eigenvectors                 ... done (   0.1 sec)
Now organizing SCF variables                       ... done
                      ------------------
                      INITIAL GUESS DONE (   2.2 sec)
                      ------------------
-------------------
DFT GRID GENERATION
-------------------

General Integration Accuracy     IntAcc      ... 4.388
Radial Grid Type                 RadialGrid  ... OptM3 with GC (2021)
Angular Grid (max. ang.)         AngularGrid ... 4 (Lebedev-302)
Angular grid pruning method      GridPruning ... 4 (adaptive)
Weight generation scheme         WeightScheme... Becke
Basis function cutoff            BFCut       ... 1.0000e-11
Integration weight cutoff        WCut        ... 1.0000e-14
Angular grids for H and He will be reduced by one unit
Partially contracted basis set               ... off
Rotationally invariant grid construction     ... off

Total number of grid points                  ...   233161
Total number of batches                      ...     3669
Average number of points per batch           ...       63
Average number of grid points per atom       ...     4663
Time for grid setup =    1.770 sec

--------------------
COSX GRID GENERATION
--------------------

GRIDX 1
-------
General Integration Accuracy     IntAcc      ... 3.816
Radial Grid Type                 RadialGrid  ... OptM3 with GC (2021)
Angular Grid (max. ang.)         AngularGrid ... 1 (Lebedev-50)
Angular grid pruning method      GridPruning ... 4 (adaptive)
Weight generation scheme         WeightScheme... Becke
Basis function cutoff            BFCut       ... 1.0000e-11
Integration weight cutoff        WCut        ... 1.0000e-14
Angular grids for H and He will be reduced by one unit
Partially contracted basis set               ... on
Rotationally invariant grid construction     ... off

Total number of grid points                  ...    29620
Total number of batches                      ...      488
Average number of points per batch           ...       60
Average number of grid points per atom       ...      592
UseSFitting                                  ... on

GRIDX 2
-------
General Integration Accuracy     IntAcc      ... 4.020
Radial Grid Type                 RadialGrid  ... OptM3 with GC (2021)
Angular Grid (max. ang.)         AngularGrid ... 2 (Lebedev-110)
Angular grid pruning method      GridPruning ... 4 (adaptive)
Weight generation scheme         WeightScheme... Becke
Basis function cutoff            BFCut       ... 1.0000e-11
Integration weight cutoff        WCut        ... 1.0000e-14
Angular grids for H and He will be reduced by one unit
Partially contracted basis set               ... on
Rotationally invariant grid construction     ... off

Total number of grid points                  ...    63401
Total number of batches                      ...     1013
Average number of points per batch           ...       62
Average number of grid points per atom       ...     1268
UseSFitting                                  ... on

GRIDX 3
-------
General Integration Accuracy     IntAcc      ... 4.338
Radial Grid Type                 RadialGrid  ... OptM3 with GC (2021)
Angular Grid (max. ang.)         AngularGrid ... 3 (Lebedev-194)
Angular grid pruning method      GridPruning ... 4 (adaptive)
Weight generation scheme         WeightScheme... Becke
Basis function cutoff            BFCut       ... 1.0000e-11
Integration weight cutoff        WCut        ... 1.0000e-14
Angular grids for H and He will be reduced by one unit
Partially contracted basis set               ... on
Rotationally invariant grid construction     ... off

Total number of grid points                  ...   138055
Total number of batches                      ...     2183
Average number of points per batch           ...       63
Average number of grid points per atom       ...     2761
UseSFitting                                  ... on

Time for X-Grid setup             =    3.227 sec


--------------------
CPCM SOLVATION MODEL
--------------------
CPCM parameters:
  Epsilon                                         ...      47.2000
  Refrac                                          ...       1.4790
  Rsolv                                           ...       1.3000
  Surface type                                    ... GAUSSIAN VDW
  Epsilon function type                           ...         CPCM
Radii:
 Radius for C  used is    3.8550 Bohr (=   2.0400 Ang.)
 Radius for N  used is    3.5149 Bohr (=   1.8600 Ang.)
 Radius for O  used is    3.4469 Bohr (=   1.8240 Ang.)
 Radius for H  used is    2.4944 Bohr (=   1.3200 Ang.)
Calculating surface                               ...        done! (  0.0s)
GEPOL surface points                              ...         2468
GEPOL Volume                                      ...    2891.5714
GEPOL Surface-area                                ...    1376.2612
Calculating surface distance matrix               ...        done! (  0.1s)
Performing Cholesky decomposition & store         ...        done! (  0.4s)
Overall time for CPCM initialization              ...                 0.5s
--------------
SCF ITERATIONS
--------------
ITER       Energy         Delta-E        Max-DP      RMS-DP      [F,P]     Damp
               ***  Starting incremental Fock matrix formation  ***
  0  -1276.5389628758   0.000000000000 0.19242988  0.00074886  0.2601816 0.7000
  1  -1276.8095626765  -0.270599800708 0.22105901  0.00070333  0.1056298 0.7000
                               ***Turning on DIIS***
  2  -1276.9188334038  -0.109270727247 0.32614825  0.00129859  0.0370928 0.0000
  3  -1277.0972061268  -0.178372723054 0.23882928  0.00058739  0.0559792 0.0000
  4  -1277.1305301005  -0.033323973690 0.08338351  0.00023700  0.0135897 0.0000
  5  -1277.1325748232  -0.002044722722 0.01893815  0.00006224  0.0063126 0.0000
                      *** Initiating the SOSCF procedure ***
                           *** Shutting down DIIS ***
                      *** Re-Reading the Fockian *** 
                      *** Removing any level shift *** 
ITER      Energy       Delta-E        Grad      Rot      Max-DP    RMS-DP
  6  -1277.13274069  -0.0001658649  0.000283  0.000283  0.004577  0.000021
               *** Restarting incremental Fock matrix formation ***
  7  -1277.13272830   0.0000123854  0.000098  0.000516  0.002079  0.000021
  8  -1277.13272745   0.0000008515  0.000192  0.000377  0.000700  0.000006
  9  -1277.13273165  -0.0000041959  0.000043  0.000168  0.000388  0.000004
 10  -1277.13273153   0.0000001134  0.000062  0.000106  0.000165  0.000001
 11  -1277.13273171  -0.0000001789  0.000009  0.000023  0.000164  0.000001
 12  -1277.13273167   0.0000000382  0.000012  0.000017  0.000116  0.000000
                  ***Gradient check signals convergence***
              ***Rediagonalizing the Fockian in SOSCF/NRSCF***

               *****************************************************
               *                     SUCCESS                       *
               *           SCF CONVERGED AFTER  13 CYCLES          *
               *****************************************************

Old exchange energy                            =    -41.909826470 Eh
New exchange energy                            =    -41.909814254 Eh
Exchange energy change after final integration =      0.000012216 Eh
Total energy after final integration           =  -1277.132719465 Eh
Final COS-X integration done in                =    23.464 sec

----------------
TOTAL SCF ENERGY
----------------

Total Energy       :        -1277.13271946 Eh          -34752.54808 eV

Components:
Nuclear Repulsion  :         2776.76120585 Eh           75559.51378 eV
Electronic Energy  :        -4053.89392532 Eh         -110312.06186 eV
One Electron Energy:        -7265.20673252 Eh         -197696.32588 eV
Two Electron Energy:         3211.31280720 Eh           87384.26401 eV
Max COSX asymmetry :            0.00000285 Eh               0.00008 eV
CPCM Dielectric    :           -0.05620219 Eh              -1.52934 eV

Virial components:
Potential Energy   :        -2548.13831341 Eh          -69338.36860 eV
Kinetic Energy     :         1271.00559395 Eh           34585.82052 eV
Virial Ratio       :            2.00482069


DFT components:
N(Alpha)           :       99.000038631557 electrons
N(Beta)            :       99.000038631557 electrons
N(Total)           :      198.000077263115 electrons
E(X)               :     -125.500458501341 Eh       
E(C)               :       -6.686769264651 Eh       
E(XC)              :     -132.187227765992 Eh       
DFET-embed. en.    :        0.000000000000 Eh       
CPCM Solvation Model Properties:
Surface-charge          :           -0.03233048
Charge-correction       :           -0.00055913 Eh              -0.01521 eV
Free-energy (cav+disp)  :  This term is not implemented in the current solvation scheme

---------------
SCF CONVERGENCE
---------------

  Last Energy change         ...   -6.6552e-09  Tolerance :   1.0000e-08
  Last MAX-Density change    ...    1.7764e-15  Tolerance :   1.0000e-07
  Last RMS-Density change    ...    1.3916e-17  Tolerance :   5.0000e-09
  Last Orbital Gradient      ...    1.8261e-06  Tolerance :   1.0000e-05
  Last Orbital Rotation      ...    6.7164e-06  Tolerance :   1.0000e-05

             **** THE GBW FILE WAS UPDATED (IM_NMe2/IM_NMe2.gbw) ****
             **** DENSITY IM_NMe2/IM_NMe2.scfp WAS UPDATED ****
             **** ENERGY FILE WAS UPDATED (IM_NMe2/IM_NMe2.en.tmp) ****
             **** THE GBW FILE WAS UPDATED (IM_NMe2/IM_NMe2.gbw) ****
             **** DENSITY IM_NMe2/IM_NMe2.scfp WAS UPDATED ****
----------------
ORBITAL ENERGIES
----------------

  NO   OCC          E(Eh)            E(eV) 
   0   2.0000     -19.270517      -524.3774 
   1   2.0000     -19.245803      -523.7049 
   2   2.0000     -19.213885      -522.8364 
   3   2.0000     -19.171368      -521.6794 
   4   2.0000     -19.166520      -521.5475 
   5   2.0000     -14.547749      -395.8644 
   6   2.0000     -14.507664      -394.7736 
   7   2.0000     -14.374378      -391.1467 
   8   2.0000     -10.372347      -282.2459 
   9   2.0000     -10.307895      -280.4921 
  10   2.0000     -10.305500      -280.4269 
  11   2.0000     -10.296323      -280.1772 
  12   2.0000     -10.292603      -280.0760 
  13   2.0000     -10.275621      -279.6139 
  14   2.0000     -10.275112      -279.6000 
  15   2.0000     -10.269296      -279.4418 
  16   2.0000     -10.265271      -279.3322 
  17   2.0000     -10.264485      -279.3108 
  18   2.0000     -10.259518      -279.1757 
  19   2.0000     -10.257945      -279.1329 
  20   2.0000     -10.239445      -278.6295 
  21   2.0000     -10.231138      -278.4034 
  22   2.0000     -10.230100      -278.3752 
  23   2.0000     -10.229824      -278.3677 
  24   2.0000     -10.227713      -278.3102 
  25   2.0000     -10.226712      -278.2830 
  26   2.0000     -10.221776      -278.1487 
  27   2.0000      -1.185226       -32.2516 
  28   2.0000      -1.163568       -31.6623 
  29   2.0000      -1.109805       -30.1993 
  30   2.0000      -1.077088       -29.3090 
  31   2.0000      -1.065499       -28.9937 
  32   2.0000      -1.003101       -27.2958 
  33   2.0000      -0.954866       -25.9832 
  34   2.0000      -0.896513       -24.3953 
  35   2.0000      -0.882714       -24.0199 
  36   2.0000      -0.842381       -22.9223 
  37   2.0000      -0.835260       -22.7286 
  38   2.0000      -0.803126       -21.8542 
  39   2.0000      -0.789775       -21.4909 
  40   2.0000      -0.774998       -21.0888 
  41   2.0000      -0.750997       -20.4357 
  42   2.0000      -0.722485       -19.6598 
  43   2.0000      -0.719444       -19.5771 
  44   2.0000      -0.707258       -19.2455 
  45   2.0000      -0.701883       -19.0992 
  46   2.0000      -0.674686       -18.3591 
  47   2.0000      -0.657526       -17.8922 
  48   2.0000      -0.625333       -17.0162 
  49   2.0000      -0.615234       -16.7414 
  50   2.0000      -0.608084       -16.5468 
  51   2.0000      -0.574450       -15.6316 
  52   2.0000      -0.563121       -15.3233 
  53   2.0000      -0.551440       -15.0055 
  54   2.0000      -0.546157       -14.8617 
  55   2.0000      -0.543053       -14.7772 
  56   2.0000      -0.534639       -14.5483 
  57   2.0000      -0.525153       -14.2901 
  58   2.0000      -0.522307       -14.2127 
  59   2.0000      -0.513122       -13.9627 
  60   2.0000      -0.504762       -13.7353 
  61   2.0000      -0.501883       -13.6569 
  62   2.0000      -0.497593       -13.5402 
  63   2.0000      -0.495002       -13.4697 
  64   2.0000      -0.489563       -13.3217 
  65   2.0000      -0.485128       -13.2010 
  66   2.0000      -0.475709       -12.9447 
  67   2.0000      -0.468563       -12.7502 
  68   2.0000      -0.463697       -12.6178 
  69   2.0000      -0.454922       -12.3791 
  70   2.0000      -0.445286       -12.1168 
  71   2.0000      -0.443118       -12.0579 
  72   2.0000      -0.435185       -11.8420 
  73   2.0000      -0.428619       -11.6633 
  74   2.0000      -0.424159       -11.5420 
  75   2.0000      -0.418591       -11.3904 
  76   2.0000      -0.410027       -11.1574 
  77   2.0000      -0.405863       -11.0441 
  78   2.0000      -0.401323       -10.9205 
  79   2.0000      -0.391798       -10.6614 
  80   2.0000      -0.389190       -10.5904 
  81   2.0000      -0.383988       -10.4488 
  82   2.0000      -0.379152       -10.3173 
  83   2.0000      -0.377050       -10.2600 
  84   2.0000      -0.370470       -10.0810 
  85   2.0000      -0.362087        -9.8529 
  86   2.0000      -0.343426        -9.3451 
  87   2.0000      -0.339538        -9.2393 
  88   2.0000      -0.335351        -9.1254 
  89   2.0000      -0.333344        -9.0707 
  90   2.0000      -0.317536        -8.6406 
  91   2.0000      -0.311634        -8.4800 
  92   2.0000      -0.294041        -8.0013 
  93   2.0000      -0.279766        -7.6128 
  94   2.0000      -0.268273        -7.3001 
  95   2.0000      -0.255158        -6.9432 
  96   2.0000      -0.238128        -6.4798 
  97   2.0000      -0.222710        -6.0603 
  98   2.0000      -0.199564        -5.4304 
  99   0.0000      -0.080455        -2.1893 
 100   0.0000      -0.045991        -1.2515 
 101   0.0000      -0.018578        -0.5055 
 102   0.0000      -0.010439        -0.2841 
 103   0.0000       0.006343         0.1726 
 104   0.0000       0.015247         0.4149 
 105   0.0000       0.043085         1.1724 
 106   0.0000       0.054460         1.4819 
 107   0.0000       0.063257         1.7213 
 108   0.0000       0.065105         1.7716 
 109   0.0000       0.077964         2.1215 
 110   0.0000       0.081765         2.2249 
 111   0.0000       0.085412         2.3242 
 112   0.0000       0.093676         2.5490 
 113   0.0000       0.094706         2.5771 
 114   0.0000       0.097646         2.6571 
 115   0.0000       0.101006         2.7485 
 116   0.0000       0.102386         2.7861 
 117   0.0000       0.104943         2.8556 
 118   0.0000       0.114285         3.1099 
 119   0.0000       0.119400         3.2490 
 120   0.0000       0.121982         3.3193 
 121   0.0000       0.125527         3.4158 
 122   0.0000       0.128861         3.5065 
 123   0.0000       0.130728         3.5573 
 124   0.0000       0.135854         3.6968 
 125   0.0000       0.137821         3.7503 
 126   0.0000       0.142542         3.8788 
 127   0.0000       0.146752         3.9933 
 128   0.0000       0.148099         4.0300 
 129   0.0000       0.152530         4.1506 
 130   0.0000       0.155239         4.2243 
 131   0.0000       0.160490         4.3671 
 132   0.0000       0.162296         4.4163 
 133   0.0000       0.163884         4.4595 
 134   0.0000       0.173161         4.7120 
 135   0.0000       0.181609         4.9418 
 136   0.0000       0.190448         5.1823 
 137   0.0000       0.193163         5.2562 
 138   0.0000       0.196482         5.3465 
 139   0.0000       0.200758         5.4629 
 140   0.0000       0.208050         5.6613 
 141   0.0000       0.211243         5.7482 
 142   0.0000       0.215827         5.8730 
 143   0.0000       0.222515         6.0549 
 144   0.0000       0.222968         6.0673 
 145   0.0000       0.225582         6.1384 
 146   0.0000       0.227859         6.2004 
 147   0.0000       0.230179         6.2635 
 148   0.0000       0.235007         6.3949 
 149   0.0000       0.238993         6.5033 
 150   0.0000       0.243119         6.6156 
 151   0.0000       0.245139         6.6706 
 152   0.0000       0.247832         6.7439 
 153   0.0000       0.255307         6.9473 
 154   0.0000       0.255357         6.9486 
 155   0.0000       0.260878         7.0988 
 156   0.0000       0.263994         7.1836 
 157   0.0000       0.270077         7.3492 
 158   0.0000       0.272720         7.4211 
 159   0.0000       0.273572         7.4443 
 160   0.0000       0.288179         7.8418 
 161   0.0000       0.291345         7.9279 
 162   0.0000       0.295122         8.0307 
 163   0.0000       0.303394         8.2558 
 164   0.0000       0.308913         8.4060 
 165   0.0000       0.310439         8.4475 
 166   0.0000       0.312041         8.4911 
 167   0.0000       0.317743         8.6462 
 168   0.0000       0.320456         8.7200 
 169   0.0000       0.322905         8.7867 
 170   0.0000       0.328837         8.9481 
 171   0.0000       0.334778         9.1098 
 172   0.0000       0.337071         9.1722 
 173   0.0000       0.345679         9.4064 
 174   0.0000       0.347470         9.4551 
 175   0.0000       0.350023         9.5246 
 176   0.0000       0.352375         9.5886 
 177   0.0000       0.355940         9.6856 
 178   0.0000       0.360890         9.8203 
 179   0.0000       0.365771         9.9531 
 180   0.0000       0.371040        10.0965 
 181   0.0000       0.374314        10.1856 
 182   0.0000       0.376258        10.2385 
 183   0.0000       0.378425        10.2975 
 184   0.0000       0.385061        10.4780 
 185   0.0000       0.386775        10.5247 
 186   0.0000       0.396287        10.7835 
 187   0.0000       0.396539        10.7904 
 188   0.0000       0.401238        10.9182 
 189   0.0000       0.404739        11.0135 
 190   0.0000       0.406564        11.0632 
 191   0.0000       0.409919        11.1545 
 192   0.0000       0.414633        11.2827 
 193   0.0000       0.416498        11.3335 
 194   0.0000       0.417538        11.3618 
 195   0.0000       0.424033        11.5385 
 196   0.0000       0.428447        11.6586 
 197   0.0000       0.430154        11.7051 
 198   0.0000       0.432874        11.7791 
 199   0.0000       0.436439        11.8761 
 200   0.0000       0.438893        11.9429 
 201   0.0000       0.439196        11.9511 
 202   0.0000       0.445722        12.1287 
 203   0.0000       0.447937        12.1890 
 204   0.0000       0.453369        12.3368 
 205   0.0000       0.456889        12.4326 
 206   0.0000       0.459040        12.4911 
 207   0.0000       0.462994        12.5987 
 208   0.0000       0.466132        12.6841 
 209   0.0000       0.468781        12.7562 
 210   0.0000       0.472374        12.8540 
 211   0.0000       0.473180        12.8759 
 212   0.0000       0.478207        13.0127 
 213   0.0000       0.480507        13.0753 
 214   0.0000       0.482107        13.1188 
 215   0.0000       0.485805        13.2194 
 216   0.0000       0.488442        13.2912 
 217   0.0000       0.490605        13.3500 
 218   0.0000       0.494775        13.4635 
 219   0.0000       0.499781        13.5997 
 220   0.0000       0.504655        13.7324 
 221   0.0000       0.508691        13.8422 
 222   0.0000       0.512087        13.9346 
[...]
 52:    760.58   0.014352   72.53  0.005888  ( 0.003109 -0.059713 -0.048094)
 53:    762.38   0.001384    6.99  0.000567  ( 0.015734  0.014103  0.010960)
 54:    775.46   0.013148   66.45  0.005291  (-0.017458  0.068909 -0.015424)
 55:    789.62   0.005269   26.63  0.002082  (-0.002305  0.045267 -0.005290)
 56:    792.95   0.001016    5.14  0.000400  ( 0.010565 -0.016951  0.001011)
 57:    805.41   0.008377   42.33  0.003246  (-0.001747 -0.018033 -0.054013)
 58:    828.53   0.000635    3.21  0.000239  (-0.012992 -0.002440 -0.008020)
 59:    847.86   0.001010    5.10  0.000372  (-0.012245  0.003016 -0.014586)
 60:    868.98   0.000327    1.65  0.000117  ( 0.000815  0.009981 -0.004142)
 61:    873.18   0.001447    7.31  0.000517  ( 0.013575 -0.011845 -0.013876)
 62:    900.03   0.005826   29.44  0.002020  (-0.026470  0.022711  0.028350)
 63:    952.47   0.006786   34.29  0.002223  (-0.006990 -0.044182 -0.014915)
 64:    965.63   0.000888    4.49  0.000287  (-0.009481  0.008688  0.011023)
 65:    971.62   0.005705   28.83  0.001832  ( 0.025812  0.020718 -0.027146)
 66:    982.69   0.007192   36.35  0.002284  ( 0.019567 -0.013496 -0.041461)
 67:    989.03   0.000202    1.02  0.000064  ( 0.004668 -0.006465  0.000069)
 68:    998.56   0.014180   71.66  0.004431  (-0.042146  0.045797  0.023618)
 69:   1008.20   0.000304    1.54  0.000094  (-0.007253  0.006028  0.002274)
 70:   1044.93   0.000216    1.09  0.000065  ( 0.002200  0.006284  0.004501)
 71:   1054.65   0.005175   26.15  0.001531  (-0.034547  0.002674 -0.018185)
 72:   1063.42   0.007191   36.34  0.002110  ( 0.037493 -0.025498  0.007369)
 73:   1069.59   0.001630    8.24  0.000475  (-0.013903 -0.016599  0.002581)
 74:   1072.79   0.010618   53.66  0.003089  (-0.053720 -0.011501  0.008398)
 75:   1086.31   0.000454    2.30  0.000131  ( 0.005256 -0.008472  0.005578)
 76:   1087.07   0.006731   34.01  0.001932  (-0.029524 -0.013682 -0.029553)
 77:   1098.36   0.004756   24.04  0.001351  ( 0.019431  0.017974 -0.025510)
 78:   1118.83   0.046537  235.18  0.012980  ( 0.033842  0.010514 -0.108279)
 79:   1133.12   0.000837    4.23  0.000230  ( 0.014839  0.002917 -0.001333)
 80:   1134.76   0.022340  112.90  0.006144  ( 0.041690  0.008758  0.065794)
 81:   1155.62   0.005370   27.14  0.001450  (-0.006879  0.006760  0.036839)
 82:   1167.90   0.037158  187.78  0.009929  ( 0.056406 -0.068381 -0.045510)
 83:   1170.16   0.007318   36.98  0.001952  ( 0.031244 -0.022741 -0.021406)
 84:   1171.19   0.005326   26.92  0.001419  ( 0.018188 -0.029160 -0.015429)
 85:   1175.09   0.000227    1.15  0.000060  (-0.001721  0.006259  0.004273)
 86:   1175.35   0.002085   10.54  0.000554  (-0.022971 -0.004874 -0.001440)
 87:   1189.35   0.000539    2.72  0.000141  ( 0.001905 -0.002365 -0.011494)
 88:   1204.46   0.002504   12.66  0.000649  ( 0.012724  0.013597  0.017379)
 89:   1212.12   0.006945   35.10  0.001788  ( 0.038042 -0.014818  0.011016)
 90:   1218.14   0.016601   83.89  0.004253  ( 0.036857 -0.052958  0.009474)
 91:   1233.19   0.010369   52.40  0.002624  (-0.037930 -0.007988 -0.033486)
 92:   1236.30   0.019214   97.10  0.004850  (-0.035268  0.006793 -0.059664)
 93:   1262.28   0.031064  156.98  0.007680  ( 0.087124 -0.002000  0.009223)
 94:   1264.49   0.068226  344.78  0.016837  (-0.086852  0.043891 -0.085835)
 95:   1294.28   0.087214  440.74  0.021028  (-0.111929 -0.000516 -0.092194)
 96:   1306.15   0.059411  300.24  0.014194  ( 0.079429 -0.064999  0.060502)
 97:   1319.45   0.038074  192.41  0.009005  (-0.048080  0.003812 -0.081724)
 98:   1327.84   0.003707   18.73  0.000871  ( 0.004923  0.028217  0.007130)
 99:   1344.83   0.022212  112.25  0.005154  (-0.035374  0.053866 -0.031644)
100:   1355.17   0.006150   31.08  0.001416  ( 0.011090 -0.015561 -0.032419)
101:   1379.76   0.004797   24.24  0.001085  ( 0.013926  0.017342  0.024296)
102:   1382.14   0.016466   83.21  0.003718  (-0.055112  0.018188  0.018701)
103:   1391.17   0.026828  135.58  0.006018  ( 0.001041 -0.011300 -0.076742)
104:   1419.05   0.000103    0.52  0.000023  ( 0.003726  0.002571 -0.001505)
105:   1445.55   0.027183  137.37  0.005868  ( 0.027692 -0.039591 -0.059447)
106:   1452.26   0.008623   43.58  0.001853  ( 0.033131 -0.013887 -0.023715)
107:   1453.75   0.001652    8.35  0.000355  ( 0.007048  0.010478 -0.013968)
108:   1462.42   0.004283   21.64  0.000914  ( 0.020904 -0.014629 -0.016214)
109:   1464.59   0.005695   28.78  0.001214  (-0.025668  0.020574 -0.011462)
110:   1465.20   0.004130   20.87  0.000880  ( 0.023625  0.017797 -0.002197)
111:   1473.13   0.004401   22.24  0.000932  ( 0.027092 -0.001422  0.014009)
112:   1474.26   0.038219  193.14  0.008090  ( 0.065486 -0.053230 -0.031115)
113:   1475.80   0.005517   27.88  0.001167  ( 0.024769 -0.004142 -0.023150)
114:   1483.42   0.006823   34.48  0.001435  (-0.011662 -0.020992 -0.029303)
115:   1484.44   0.006600   33.35  0.001387  (-0.006147 -0.004149 -0.036503)
116:   1492.14   0.056648  286.28  0.011847  ( 0.061724 -0.036132 -0.082049)
117:   1497.39   0.059027  298.30  0.012302  ( 0.012649  0.016419  0.108958)
118:   1507.05   0.039952  201.90  0.008273  (-0.039819  0.046360  0.067365)
119:   1525.02   0.011100   56.09  0.002271  (-0.014725 -0.016088 -0.042376)
120:   1535.04   0.030362  153.44  0.006172  ( 0.040761  0.009819  0.066442)
121:   1542.74   0.015373   77.69  0.003110  (-0.027554 -0.005964  0.048114)
122:   1638.27   0.003483   17.60  0.000663  (-0.005887  0.013225  0.021304)
123:   1643.97   0.007374   37.26  0.001400  ( 0.035210  0.002366  0.012425)
124:   1661.19   0.013554   68.50  0.002546  ( 0.012937 -0.002489  0.048710)
125:   1693.57   0.009958   50.32  0.001835  (-0.033003 -0.009416 -0.025634)
126:   1789.15   0.085316  431.15  0.014881  (-0.038610  0.064212  0.096265)
127:   2976.70   0.027773  140.35  0.002912  ( 0.000106 -0.050934 -0.017811)
128:   3000.53   0.032032  161.88  0.003331  ( 0.054266 -0.019605  0.001488)
129:   3036.71   0.012874   65.06  0.001323  ( 0.035158  0.007375  0.005697)
130:   3060.62   0.021324  107.76  0.002174  ( 0.006444  0.003289 -0.046063)
131:   3065.38   0.004200   21.22  0.000428  ( 0.009495  0.010153 -0.015307)
132:   3077.22   0.006262   31.64  0.000635  (-0.022015  0.009909 -0.007220)
133:   3092.59   0.000607    3.07  0.000061  (-0.006560  0.002983  0.003046)
134:   3103.05   0.012763   64.50  0.001284  (-0.016487  0.024263  0.020567)
135:   3107.90   0.007689   38.86  0.000772  (-0.004237  0.027241  0.003464)
136:   3116.78   0.007675   38.79  0.000768  (-0.024361  0.005790 -0.011894)
137:   3127.58   0.007426   37.53  0.000741  ( 0.000338  0.026730 -0.005133)
138:   3161.89   0.003372   17.04  0.000333  (-0.006550 -0.015456  0.007145)
139:   3165.13   0.003764   19.02  0.000371  ( 0.004189 -0.000526  0.018797)
140:   3191.62   0.000728    3.68  0.000071  (-0.006939 -0.001158  0.004662)
141:   3195.64   0.001891    9.55  0.000185  ( 0.001282  0.003784  0.012987)
142:   3208.26   0.003584   18.11  0.000349  (-0.000057 -0.003247  0.018387)
143:   3221.43   0.000072    0.37  0.000007  ( 0.002237  0.000343  0.001371)
144:   3232.58   0.000754    3.81  0.000073  ( 0.008014  0.002720  0.001067)
145:   3238.35   0.001051    5.31  0.000101  (-0.006317 -0.005686 -0.005389)
146:   3238.49   0.000013    0.07  0.000001  (-0.000307 -0.000146  0.001083)
147:   3242.66   0.000659    3.33  0.000063  ( 0.002026  0.002735  0.007200)
148:   3249.65   0.000924    4.67  0.000089  ( 0.007391 -0.001596 -0.005614)
149:   3292.68   0.007383   37.31  0.000700  (-0.026005  0.004496 -0.001801)

* The epsilon (eps) is given for a Dirac delta lineshape.
** The dipole moment derivative (T) already includes vibrational overlap.

The first frequency considered to be a vibration is 6
The total number of vibrations considered is 144


--------------------------
THERMOCHEMISTRY AT 298.15K
--------------------------

Temperature         ... 298.15 K
Pressure            ... 1.00 atm
Total Mass          ... 373.41 AMU

Throughout the following assumptions are being made:
  (1) The electronic state is orbitally nondegenerate
  (2) There are no thermally accessible electronically excited states
  (3) Hindered rotations indicated by low frequency modes are not
      treated as such but are treated as vibrations and this may
      cause some error
  (4) All equations used are the standard statistical mechanics
      equations for an ideal gas
  (5) All vibrations are strictly harmonic

freq.      20.63  E(vib)   ...       0.56 
freq.      26.53  E(vib)   ...       0.56 
freq.      38.91  E(vib)   ...       0.54 
freq.      50.00  E(vib)   ...       0.52 
freq.      54.69  E(vib)   ...       0.52 
freq.      60.73  E(vib)   ...       0.51 
freq.      73.26  E(vib)   ...       0.49 
freq.      85.61  E(vib)   ...       0.48 
freq.      95.78  E(vib)   ...       0.47 
freq.     103.19  E(vib)   ...       0.46 
freq.     116.70  E(vib)   ...       0.44 
freq.     121.10  E(vib)   ...       0.44 
freq.     140.63  E(vib)   ...       0.41 
freq.     151.50  E(vib)   ...       0.40 
freq.     157.73  E(vib)   ...       0.40 
freq.     174.81  E(vib)   ...       0.38 
freq.     181.85  E(vib)   ...       0.37 
freq.     192.95  E(vib)   ...       0.36 
freq.     201.42  E(vib)   ...       0.35 
freq.     216.32  E(vib)   ...       0.34 
freq.     225.31  E(vib)   ...       0.33 
freq.     238.13  E(vib)   ...       0.32 
freq.     249.83  E(vib)   ...       0.31 
freq.     273.59  E(vib)   ...       0.29 
freq.     284.68  E(vib)   ...       0.28 
freq.     300.80  E(vib)   ...       0.26 
freq.     315.27  E(vib)   ...       0.25 
freq.     328.92  E(vib)   ...       0.24 
freq.     367.29  E(vib)   ...       0.21 
freq.     387.44  E(vib)   ...       0.20 
freq.     411.45  E(vib)   ...       0.19 
freq.     424.15  E(vib)   ...       0.18 
freq.     431.71  E(vib)   ...       0.18 
freq.     486.72  E(vib)   ...       0.15 
freq.     498.24  E(vib)   ...       0.14 
freq.     524.12  E(vib)   ...       0.13 
freq.     550.48  E(vib)   ...       0.12 
freq.     567.41  E(vib)   ...       0.11 
freq.     589.02  E(vib)   ...       0.10 
freq.     595.62  E(vib)   ...       0.10 
freq.     614.72  E(vib)   ...       0.10 
freq.     654.82  E(vib)   ...       0.08 
freq.     657.39  E(vib)   ...       0.08 
freq.     698.74  E(vib)   ...       0.07 
freq.     729.22  E(vib)   ...       0.06 
freq.     737.41  E(vib)   ...       0.06 
freq.     760.58  E(vib)   ...       0.06 
freq.     762.38  E(vib)   ...       0.06 
freq.     775.46  E(vib)   ...       0.05 
freq.     789.62  E(vib)   ...       0.05 
freq.     792.95  E(vib)   ...       0.05 
freq.     805.41  E(vib)   ...       0.05 
freq.     828.53  E(vib)   ...       0.04 
freq.     847.86  E(vib)   ...       0.04 
freq.     868.98  E(vib)   ...       0.04 
freq.     873.18  E(vib)   ...       0.04 
freq.     900.03  E(vib)   ...       0.03 
freq.     952.47  E(vib)   ...       0.03 
freq.     965.63  E(vib)   ...       0.03 
freq.     971.62  E(vib)   ...       0.03 
freq.     982.69  E(vib)   ...       0.02 
freq.     989.03  E(vib)   ...       0.02 
freq.     998.56  E(vib)   ...       0.02 
freq.    1008.20  E(vib)   ...       0.02 
freq.    1044.93  E(vib)   ...       0.02 
freq.    1054.65  E(vib)   ...       0.02 
freq.    1063.42  E(vib)   ...       0.02 
freq.    1069.59  E(vib)   ...       0.02 
freq.    1072.79  E(vib)   ...       0.02 
freq.    1086.31  E(vib)   ...       0.02 
freq.    1087.07  E(vib)   ...       0.02 
freq.    1098.36  E(vib)   ...       0.02 
freq.    1118.83  E(vib)   ...       0.01 
freq.    1133.12  E(vib)   ...       0.01 
freq.    1134.76  E(vib)   ...       0.01 
freq.    1155.62  E(vib)   ...       0.01 
freq.    1167.90  E(vib)   ...       0.01 
freq.    1170.16  E(vib)   ...       0.01 
freq.    1171.19  E(vib)   ...       0.01 
freq.    1175.09  E(vib)   ...       0.01 
freq.    1175.35  E(vib)   ...       0.01 
freq.    1189.35  E(vib)   ...       0.01 
freq.    1204.46  E(vib)   ...       0.01 
freq.    1212.12  E(vib)   ...       0.01 
freq.    1218.14  E(vib)   ...       0.01 
freq.    1233.19  E(vib)   ...       0.01 
freq.    1236.30  E(vib)   ...       0.01 
freq.    1262.28  E(vib)   ...       0.01 
freq.    1264.49  E(vib)   ...       0.01 
freq.    1294.28  E(vib)   ...       0.01 
freq.    1306.15  E(vib)   ...       0.01 
freq.    1319.45  E(vib)   ...       0.01 
freq.    1327.84  E(vib)   ...       0.01 
freq.    1344.83  E(vib)   ...       0.01 
freq.    1355.17  E(vib)   ...       0.01 
freq.    1379.76  E(vib)   ...       0.01 
freq.    1382.14  E(vib)   ...       0.01 
freq.    1391.17  E(vib)   ...       0.00 
freq.    1419.05  E(vib)   ...       0.00 
freq.    1445.55  E(vib)   ...       0.00 
freq.    1452.26  E(vib)   ...       0.00 
freq.    1453.75  E(vib)   ...       0.00 
freq.    1462.42  E(vib)   ...       0.00 
freq.    1464.59  E(vib)   ...       0.00 
freq.    1465.20  E(vib)   ...       0.00 
freq.    1473.13  E(vib)   ...       0.00 
freq.    1474.26  E(vib)   ...       0.00 
freq.    1475.80  E(vib)   ...       0.00 
freq.    1483.42  E(vib)   ...       0.00 
freq.    1484.44  E(vib)   ...       0.00 
freq.    1492.14  E(vib)   ...       0.00 
freq.    1497.39  E(vib)   ...       0.00 
freq.    1507.05  E(vib)   ...       0.00 
freq.    1525.02  E(vib)   ...       0.00 
freq.    1535.04  E(vib)   ...       0.00 
freq.    1542.74  E(vib)   ...       0.00 
freq.    1638.27  E(vib)   ...       0.00 
freq.    1643.97  E(vib)   ...       0.00 
freq.    1661.19  E(vib)   ...       0.00 
freq.    1693.57  E(vib)   ...       0.00 
freq.    1789.15  E(vib)   ...       0.00 
freq.    2976.70  E(vib)   ...       0.00 
freq.    3000.53  E(vib)   ...       0.00 
freq.    3036.71  E(vib)   ...       0.00 
freq.    3060.62  E(vib)   ...       0.00 
freq.    3065.38  E(vib)   ...       0.00 
freq.    3077.22  E(vib)   ...       0.00 
freq.    3092.59  E(vib)   ...       0.00 
freq.    3103.05  E(vib)   ...       0.00 
freq.    3107.90  E(vib)   ...       0.00 
freq.    3116.78  E(vib)   ...       0.00 
freq.    3127.58  E(vib)   ...       0.00 
freq.    3161.89  E(vib)   ...       0.00 
freq.    3165.13  E(vib)   ...       0.00 
freq.    3191.62  E(vib)   ...       0.00 
freq.    3195.64  E(vib)   ...       0.00 
freq.    3208.26  E(vib)   ...       0.00 
freq.    3221.43  E(vib)   ...       0.00 
freq.    3232.58  E(vib)   ...       0.00 
freq.    3238.35  E(vib)   ...       0.00 
freq.    3238.49  E(vib)   ...       0.00 
freq.    3242.66  E(vib)   ...       0.00 
freq.    3249.65  E(vib)   ...       0.00 
freq.    3292.68  E(vib)   ...       0.00 

------------
INNER ENERGY
------------

The inner energy is: U= E(el) + E(ZPE) + E(vib) + E(rot) + E(trans)
    E(el)   - is the total energy from the electronic structure calculation
              = E(kin-el) + E(nuc-el) + E(el-el) + E(nuc-nuc)
    E(ZPE)  - the the zero temperature vibrational energy from the frequency calculation
    E(vib)  - the the finite temperature correction to E(ZPE) due to population
              of excited vibrational states
    E(rot)  - is the rotational thermal energy
    E(trans)- is the translational thermal energy

Summary of contributions to the inner energy U:
Electronic energy                ...  -1277.20217775 Eh
Zero point energy                ...      0.40702449 Eh     255.41 kcal/mol
Thermal vibrational correction   ...      0.02336466 Eh      14.66 kcal/mol
Thermal rotational correction    ...      0.00141627 Eh       0.89 kcal/mol
Thermal translational correction ...      0.00141627 Eh       0.89 kcal/mol
-----------------------------------------------------------------------
Total thermal energy                  -1276.76895606 Eh


Summary of corrections to the electronic energy:
(perhaps to be used in another calculation)
Total thermal correction                  0.02619720 Eh      16.44 kcal/mol
Non-thermal (ZPE) correction              0.40702449 Eh     255.41 kcal/mol
-----------------------------------------------------------------------
Total correction                          0.43322169 Eh     271.85 kcal/mol


--------
ENTHALPY
--------

The enthalpy is H = U + kB*T
                kB is Boltzmann's constant
Total free energy                 ...  -1276.76895606 Eh 
Thermal Enthalpy correction       ...      0.00094421 Eh       0.59 kcal/mol
-----------------------------------------------------------------------
Total Enthalpy                    ...  -1276.76801185 Eh


Note: Only C1 symmetry has been detected, increase convergence thresholds 
      if your molecule has a higher symmetry. Symmetry factor of 1.0 is   
      used for the rotational entropy correction. 
 

Note: Rotational entropy computed according to Herzberg 
Infrared and Raman Spectra, Chapter V,1, Van Nostrand Reinhold, 1945 
Point Group:  C1, Symmetry Number:   1  
Rotational constants in cm-1:     0.007841     0.006122     0.005880 

Vibrational entropy computed according to the QRRHO of S. Grimme
Chem.Eur.J. 2012 18 9955


-------
ENTROPY
-------

The entropy contributions are T*S = T*(S(el)+S(vib)+S(rot)+S(trans))
     S(el)   - electronic entropy
     S(vib)  - vibrational entropy
     S(rot)  - rotational entropy
     S(trans)- translational entropy
The entropies will be listed as multiplied by the temperature to get
units of energy

Electronic entropy                ...      0.00000000 Eh      0.00 kcal/mol
Vibrational entropy               ...      0.04220233 Eh     26.48 kcal/mol
Rotational entropy                ...      0.01663007 Eh     10.44 kcal/mol
Translational entropy             ...      0.02073719 Eh     13.01 kcal/mol
-----------------------------------------------------------------------
Final entropy term                ...      0.07956959 Eh     49.93 kcal/mol

In case the symmetry of your molecule has not been determined correctly
or in case you have a reason to use a different symmetry number we print 
out the resulting rotational entropy values for sn=1,12 :
 --------------------------------------------------------
|  sn= 1 | S(rot)=       0.01663007 Eh     10.44 kcal/mol|
|  sn= 2 | S(rot)=       0.01597562 Eh     10.02 kcal/mol|
|  sn= 3 | S(rot)=       0.01559279 Eh      9.78 kcal/mol|
|  sn= 4 | S(rot)=       0.01532116 Eh      9.61 kcal/mol|
|  sn= 5 | S(rot)=       0.01511047 Eh      9.48 kcal/mol|
|  sn= 6 | S(rot)=       0.01493833 Eh      9.37 kcal/mol|
|  sn= 7 | S(rot)=       0.01479278 Eh      9.28 kcal/mol|
|  sn= 8 | S(rot)=       0.01466671 Eh      9.20 kcal/mol|
|  sn= 9 | S(rot)=       0.01455550 Eh      9.13 kcal/mol|
|  sn=10 | S(rot)=       0.01445602 Eh      9.07 kcal/mol|
|  sn=11 | S(rot)=       0.01436603 Eh      9.01 kcal/mol|
|  sn=12 | S(rot)=       0.01428387 Eh      8.96 kcal/mol|
 --------------------------------------------------------


-------------------
GIBBS FREE ENERGY
-------------------

The Gibbs free energy is G = H - T*S

Total enthalpy                    ...  -1276.76801185 Eh 
Total entropy correction          ...     -0.07956959 Eh    -49.93 kcal/mol
-----------------------------------------------------------------------
Final Gibbs free energy         ...  -1276.84758144 Eh

For completeness - the Gibbs free energy minus the electronic energy
G-E(el)                           ...      0.35459631 Eh    222.51 kcal/mol


Timings for individual modules:

Sum of individual times         ...     9899.143 sec (= 164.986 min)
GTO integral calculation        ...       76.392 sec (=   1.273 min)   0.8 %
SCF iterations                  ...     3945.036 sec (=  65.751 min)  39.9 %
SCF Gradient evaluation         ...     1190.903 sec (=  19.848 min)  12.0 %
Geometry relaxation             ...        5.180 sec (=   0.086 min)   0.1 %
Analytical frequency calculation...     4681.632 sec (=  78.027 min)  47.3 %
                             ****ORCA TERMINATED NORMALLY****
TOTAL RUN TIME: 0 days 2 hours 46 minutes 16 seconds 850 msec
