
                                 *****************
                                 * O   R   C   A *
                                 *****************

                                            #,                                       
                                            ###                                      
                                            ####                                     
                                            #####                                    
                                            ######                                   
                                           ########,                                 
                                     ,,################,,,,,                         
                               ,,#################################,,                 
                          ,,##########################################,,             
                       ,#########################################, ''#####,          
                    ,#############################################,,   '####,        
                  ,##################################################,,,,####,       
                ,###########''''           ''''###############################       
              ,#####''   ,,,,##########,,,,          '''####'''          '####       
            ,##' ,,,,###########################,,,                        '##       
           ' ,,###''''                  '''############,,,                           
         ,,##''                                '''############,,,,        ,,,,,,###''
      ,#''                                            '''#######################'''  
     '                                                          ''''####''''         
             ,#######,   #######,   ,#######,      ##                                
            ,#'     '#,  ##    ##  ,#'     '#,    #''#        ######   ,####,        
            ##       ##  ##   ,#'  ##            #'  '#       #        #'  '#        
            ##       ##  #######   ##           ,######,      #####,   #    #        
            '#,     ,#'  ##    ##  '#,     ,#' ,#      #,         ##   #,  ,#        
             '#######'   ##     ##  '#######'  #'      '#     #####' # '####'        



                  #######################################################
                  #                        -***-                        #
                  #          Department of theory and spectroscopy      #
                  #    Directorship and core code : Frank Neese         #
                  #        Max Planck Institute fuer Kohlenforschung    #
                  #                Kaiser Wilhelm Platz 1               #
                  #                 D-45470 Muelheim/Ruhr               #
                  #                      Germany                        #
                  #                                                     #
                  #                  All rights reserved                #
                  #                        -***-                        #
                  #######################################################


                         Program Version 5.0.4 -  RELEASE  -


 With contributions from (in alphabetic order):
   Daniel Aravena         : Magnetic Suceptibility
   Michael Atanasov       : Ab Initio Ligand Field Theory (pilot matlab implementation)
   Alexander A. Auer      : GIAO ZORA, VPT2 properties, NMR spectrum
   Ute Becker             : Parallelization
   Giovanni Bistoni       : ED, misc. LED, open-shell LED, HFLD
   Martin Brehm           : Molecular dynamics
   Dmytro Bykov           : SCF Hessian
   Vijay G. Chilkuri      : MRCI spin determinant printing, contributions to CSF-ICE
   Dipayan Datta          : RHF DLPNO-CCSD density
   Achintya Kumar Dutta   : EOM-CC, STEOM-CC
   Dmitry Ganyushin       : Spin-Orbit,Spin-Spin,Magnetic field MRCI
   Miquel Garcia          : C-PCM and meta-GGA Hessian, CC/C-PCM, Gaussian charge scheme
   Yang Guo               : DLPNO-NEVPT2, F12-NEVPT2, CIM, IAO-localization
   Andreas Hansen         : Spin unrestricted coupled pair/coupled cluster methods
   Benjamin Helmich-Paris : MC-RPA, TRAH-SCF, COSX integrals
   Lee Huntington         : MR-EOM, pCC
   Robert Izsak           : Overlap fitted RIJCOSX, COSX-SCS-MP3, EOM
   Marcus Kettner         : VPT2
   Christian Kollmar      : KDIIS, OOCD, Brueckner-CCSD(T), CCSD density, CASPT2, CASPT2-K
   Simone Kossmann        : Meta GGA functionals, TD-DFT gradient, OOMP2, MP2 Hessian
   Martin Krupicka        : Initial AUTO-CI
   Lucas Lang             : DCDCAS
   Marvin Lechner         : AUTO-CI (C++ implementation), FIC-MRCC
   Dagmar Lenk            : GEPOL surface, SMD
   Dimitrios Liakos       : Extrapolation schemes; Compound Job, initial MDCI parallelization
   Dimitrios Manganas     : Further ROCIS development; embedding schemes
   Dimitrios Pantazis     : SARC Basis sets
   Anastasios Papadopoulos: AUTO-CI, single reference methods and gradients
   Taras Petrenko         : DFT Hessian,TD-DFT gradient, ASA, ECA, R-Raman, ABS, FL, XAS/XES, NRVS
   Peter Pinski           : DLPNO-MP2, DLPNO-MP2 Gradient
   Christoph Reimann      : Effective Core Potentials
   Marius Retegan         : Local ZFS, SOC
   Christoph Riplinger    : Optimizer, TS searches, QM/MM, DLPNO-CCSD(T), (RO)-DLPNO pert. Triples
   Tobias Risthaus        : Range-separated hybrids, TD-DFT gradient, RPA, STAB
   Michael Roemelt        : Original ROCIS implementation
   Masaaki Saitow         : Open-shell DLPNO-CCSD energy and density
   Barbara Sandhoefer     : DKH picture change effects
   Avijit Sen             : IP-ROCIS
   Kantharuban Sivalingam : CASSCF convergence, NEVPT2, FIC-MRCI
   Bernardo de Souza      : ESD, SOC TD-DFT
   Georgi Stoychev        : AutoAux, RI-MP2 NMR, DLPNO-MP2 response
   Willem Van den Heuvel  : Paramagnetic NMR
   Boris Wezisla          : Elementary symmetry handling
   Frank Wennmohs         : Technical directorship


 We gratefully acknowledge several colleagues who have allowed us to
 interface, adapt or use parts of their codes:
   Stefan Grimme, W. Hujo, H. Kruse, P. Pracht,  : VdW corrections, initial TS optimization,
                  C. Bannwarth, S. Ehlert          DFT functionals, gCP, sTDA/sTD-DF
   Ed Valeev, F. Pavosevic, A. Kumar             : LibInt (2-el integral package), F12 methods
   Garnet Chan, S. Sharma, J. Yang, R. Olivares  : DMRG
   Ulf Ekstrom                                   : XCFun DFT Library
   Mihaly Kallay                                 : mrcc  (arbitrary order and MRCC methods)
   Jiri Pittner, Ondrej Demel                    : Mk-CCSD
   Frank Weinhold                                : gennbo (NPA and NBO analysis)
   Christopher J. Cramer and Donald G. Truhlar   : smd solvation model
   Lars Goerigk                                  : TD-DFT with DH, B97 family of functionals
   V. Asgeirsson, H. Jonsson                     : NEB implementation
   FAccTs GmbH                                   : IRC, NEB, NEB-TS, DLPNO-Multilevel, CI-OPT
                                                   MM, QMMM, 2- and 3-layer-ONIOM, Crystal-QMMM,
                                                   LR-CPCM, SF, NACMEs, symmetry and pop. for TD-DFT,
                                                   nearIR, NL-DFT gradient (VV10), updates on ESD,
                                                   ML-optimized integration grids
   S Lehtola, MJT Oliveira, MAL Marques          : LibXC Library
   Liviu Ungur et al                             : ANISO software


 Your calculation uses the libint2 library for the computation of 2-el integrals
 For citations please refer to: http://libint.valeyev.net

 Your ORCA version has been built with support for libXC version: 5.1.0
 For citations please refer to: https://tddft.org/programs/libxc/

 This ORCA versions uses:
   CBLAS   interface :  Fast vector & matrix operations
   LAPACKE interface :  Fast linear algebra routines
   SCALAPACK package :  Parallel linear algebra routines
   Shared memory     :  Shared parallel matrices
   BLAS/LAPACK       :  OpenBLAS 0.3.15  USE64BITINT DYNAMIC_ARCH NO_AFFINITY Haswell SINGLE_THREADED
        Core in use  :  Haswell
   Copyright (c) 2011-2014, The OpenBLAS Project


Your calculation utilizes the atom-pairwise dispersion correction
with the Becke-Johnson damping scheme (D3BJ)
Cite in your paper:
S.Grimme, S.Ehrlich, L.Goerigk, J Comput Chem, (2011), 32, 1456–1465 
S.Grimme, J.Antony, S.Ehrlich and H.Krieg, J.Chem.Phys., 132, (2010), 154104 
   

================================================================================

----- Orbital basis set information -----
Your calculation utilizes the basis: def2-TZVP
   F. Weigend and R. Ahlrichs, Phys. Chem. Chem. Phys. 7, 3297 (2005).

----- AuxJ basis set information -----
Your calculation utilizes the auxiliary basis: def2/J
   F. Weigend, Phys. Chem. Chem. Phys. 8, 1057 (2006).

================================================================================
                                        WARNINGS
                       Please study these warnings very carefully!
================================================================================


WARNING: Geometry Optimization
  ===> : Switching off AutoStart
         For restart on a previous wavefunction, please use MOREAD

INFO   : the flag for use of the SHARK integral package has been found!

================================================================================
                                       INPUT FILE
================================================================================
NAME = IM_NO2/IM_NO2.inp
|  1> %pal nprocs 24 end
|  2> ! PBE0 D3BJ def2-TZVP TightSCF OPT FREQ TightOpt
|  3> ! CPCM(dmso)
|  4> %scf
|  5> MaxIter 800
|  6> end
|  7> 
|  8> %geom
|  9> MaxIter 800
| 10> MaxStep 0.15
| 11> end
| 12> 
| 13> *xyz 0 1
| 14> C      -3.80443600     -2.48471400     -1.06948000
| 15> C      -2.94239300     -2.43126800     -2.16366000
| 16> C      -1.64822100     -1.98704400     -1.97828000
| 17> N      -1.21930900     -1.60644400     -0.75842500
| 18> C      -2.03322600     -1.65736600      0.31401300
| 19> C      -3.33861900     -2.09264600      0.18330300
| 20> C       0.16885100     -1.15407700     -0.60158900
| 21> C       0.95852600     -2.25300000      0.09876800
| 22> O       0.46527700     -3.09799100      0.80162300
| 23> O       2.24472400     -2.12707300     -0.16029000
| 24> C       3.13580100     -2.96059900      0.57993300
| 25> H      -4.83398600     -2.82753700     -1.19357100
| 26> H      -0.92393800     -1.91692900     -2.79121100
| 27> H      -1.61921500     -1.33380000      1.26782800
| 28> H      -3.97881400     -2.11723100      1.06575700
| 29> H       0.58351900     -0.99645100     -1.60491400
| 30> H       3.08711200     -2.68694300      1.64345900
| 31> H       4.13599800     -2.76196300      0.18128000
| 32> H      -3.26363900     -2.72781800     -3.16284100
| 33> C       1.67425300      0.66555500      0.30428800
| 34> C       0.26620900      0.17452200      0.19161800
| 35> C      -0.71612700      1.23218500     -0.27075200
| 36> C      -1.15404300      1.37862200     -1.58603600
| 37> C      -2.08671300      2.35461100     -1.93914800
| 38> C      -2.58573800      3.20880200     -0.95999900
| 39> C      -2.16129300      3.09208300      0.36382700
| 40> C      -1.22814900      2.10899800      0.71131000
| 41> O      -0.76493500      1.92817900      1.96396400
| 42> C      -1.24785300      2.74579300      3.00429400
| 43> N       2.32191600      1.17023200     -0.81628800
| 44> O       3.41948100      1.71308500     -0.76252200
| 45> H       0.00987000     -0.04854500      1.23495000
| 46> H      -0.74967900      0.72534000     -2.36000300
| 47> H      -2.41518700      2.44581100     -2.97670100
| 48> H      -3.31576600      3.97957200     -1.22001500
| 49> H      -2.56042600      3.76743100      1.12095100
| 50> H      -1.00499400      3.80676600      2.82863600
| 51> H      -0.74756100      2.40851400      3.92022100
| 52> H      -2.33871100      2.64167800      3.12692200
| 53> O       1.71752500      1.04284200     -1.89428800
| 54> H       2.87092200     -4.01860800      0.45173300
| 55> N       2.38628700      0.36449500      1.45997600
| 56> O       3.52922200      0.76685400      1.64936900
| 57> O       1.81716500     -0.36003100      2.29938200
| 58> *
| 59> 
| 60>                          ****END OF INPUT****
================================================================================

                       *****************************
                       * Geometry Optimization Run *
                       *****************************

Geometry optimization settings:
Update method            Update   .... BFGS
Choice of coordinates    CoordSys .... Z-matrix Internals
Initial Hessian          InHess   .... Almoef's Model

Convergence Tolerances:
Energy Change            TolE     ....  1.0000e-06 Eh
Max. Gradient            TolMAXG  ....  1.0000e-04 Eh/bohr
RMS Gradient             TolRMSG  ....  3.0000e-05 Eh/bohr
Max. Displacement        TolMAXD  ....  1.0000e-03 bohr
RMS Displacement         TolRMSD  ....  6.0000e-04 bohr
Strict Convergence                ....  False
------------------------------------------------------------------------------
                        ORCA OPTIMIZATION COORDINATE SETUP
------------------------------------------------------------------------------

The optimization will be done in new redundant internal coordinates
Making redundant internal coordinates   ...  (new redundants) done
Evaluating the initial hessian          ...  (Almloef) done
Evaluating the coordinates              ...  done
Calculating the B-matrix                .... done
Calculating the G-matrix                .... done
Diagonalizing the G-matrix              .... done
Small eigenvalue found = 2.831e-03
Small eigenvalue found = 6.719e-03
Small eigenvalue found = 8.139e-03
Small eigenvalue found = 9.199e-03
Small eigenvalue found = 1.417e-02
Small eigenvalue found = 1.672e-02
Small eigenvalue found = 2.322e-02
Small eigenvalue found = 2.933e-02
The first mode is                       ....   92
The number of degrees of freedom        ....  126

    -----------------------------------------------------------------
                    Redundant Internal Coordinates


    -----------------------------------------------------------------
         Definition                    Initial Value    Approx d2E/dq
    -----------------------------------------------------------------
      1. B(C   1,C   0)                  1.3940         0.615708   
      2. B(C   2,C   1)                  1.3808         0.646297   
      3. B(N   3,C   2)                  1.3479         0.653166   
      4. B(C   4,N   3)                  1.3473         0.654673   
      5. B(C   5,C   4)                  1.3822         0.642849   
      6. B(C   5,C   0)                  1.3929         0.618177   
      7. B(C   6,N   3)                  1.4684         0.419547   
      8. B(C   7,C   6)                  1.5237         0.382295   
      9. B(O   8,C   7)                  1.2047         1.105363   
     10. B(O   9,C   7)                  1.3181         0.728880   
     11. B(C  10,O   9)                  1.4271         0.488235   
     12. B(H  11,C   0)                  1.0922         0.357202   
     13. B(H  12,C   2)                  1.0910         0.358733   
     14. B(H  13,C   4)                  1.0890         0.361461   
     15. B(H  14,C   5)                  1.0905         0.359446   
     16. B(H  15,C   6)                  1.0970         0.350930   
     17. B(H  16,C  10)                  1.0992         0.348072   
     18. B(H  17,C  10)                  1.0949         0.353695   
     19. B(H  18,C   1)                  1.0906         0.359250   
     20. B(C  20,C  19)                  1.4955         0.424118   
     21. B(C  20,C   6)                  1.5504         0.346564   
     22. B(C  21,C  20)                  1.5157         0.393689   
     23. B(C  22,C  21)                  1.3940         0.615723   
     24. B(C  23,C  22)                  1.3954         0.612544   
     25. B(C  24,C  23)                  1.3919         0.620438   
     26. B(C  25,C  24)                  1.3951         0.613209   
     27. B(C  26,C  25)                  1.3993         0.603876   
     28. B(C  26,C  21)                  1.4126         0.575037   
     29. B(O  27,C  26)                  1.3477         0.653578   
     30. B(C  28,O  27)                  1.4085         0.522750   
     31. B(N  29,C  19)                  1.3892         0.561259   
     32. B(O  30,N  29)                  1.2257         0.916674   
     33. B(H  31,C  20)                  1.0973         0.350605   
     34. B(H  32,C  22)                  1.0906         0.359365   
     35. B(H  33,C  23)                  1.0921         0.357305   
     36. B(H  34,C  24)                  1.0930         0.356161   
     37. B(H  35,C  25)                  1.0902         0.359773   
     38. B(H  36,C  28)                  1.1025         0.343942   
     39. B(H  37,C  28)                  1.0968         0.351215   
     40. B(H  38,C  28)                  1.1027         0.343742   
     41. B(O  39,N  29)                  1.2424         0.861928   
     42. B(H  40,C  10)                  1.0982         0.349452   
     43. B(N  41,C  19)                  1.3904         0.558752   
     44. B(O  42,N  41)                  1.2264         0.914159   
     45. B(O  43,N  41)                  1.2464         0.849500   
     46. A(C   1,C   0,H  11)          120.3833         0.352013   
     47. A(C   5,C   0,H  11)          120.3830         0.352251   
     48. A(C   1,C   0,C   5)          119.2335         0.433294   
     49. A(C   0,C   1,H  18)          121.7713         0.352353   
     50. A(C   0,C   1,C   2)          119.1148         0.436778   
     51. A(C   2,C   1,H  18)          119.1137         0.355259   
     52. A(N   3,C   2,H  12)          116.4187         0.353615   
     53. A(C   1,C   2,H  12)          122.8776         0.355173   
     54. A(C   1,C   2,N   3)          120.7029         0.438558   
     55. A(C   2,N   3,C   6)          118.9772         0.403383   
     56. A(C   2,N   3,C   4)          121.1628         0.436694   
     57. A(C   4,N   3,C   6)          119.8497         0.403547   
     58. A(C   5,C   4,H  13)          122.3738         0.355307   
     59. A(N   3,C   4,C   5)          120.4747         0.438317   
     60. A(N   3,C   4,H  13)          117.1484         0.354207   
     61. A(C   0,C   5,C   4)          119.3090         0.436672   
     62. A(C   0,C   5,H  14)          121.6781         0.352625   
     63. A(C   4,C   5,H  14)          119.0127         0.354970   
     64. A(C   7,C   6,C  20)          110.5073         0.360143   
     65. A(N   3,C   6,C  20)          112.2095         0.363631   
     66. A(H  15,C   6,C  20)          108.7262         0.319008   
     67. A(N   3,C   6,H  15)          107.6930         0.327199   
     68. A(N   3,C   6,C   7)          108.4722         0.369799   
     69. A(C   7,C   6,H  15)          109.1540         0.324174   
     70. A(C   6,C   7,O   9)          110.2724         0.407191   
     71. A(C   6,C   7,O   8)          124.1829         0.438640   
     72. A(O   8,C   7,O   9)          125.5365         0.490296   
     73. A(C   7,O   9,C  10)          116.8429         0.422537   
     74. A(O   9,C  10,H  40)          110.5818         0.335280   
     75. A(H  16,C  10,H  17)          110.3388         0.288481   
     76. A(O   9,C  10,H  17)          105.9960         0.335954   
     77. A(O   9,C  10,H  16)          109.1940         0.335060   
     78. A(H  17,C  10,H  40)          110.6478         0.288660   
     79. A(H  16,C  10,H  40)          110.0053         0.287937   
     80. A(C  20,C  19,N  29)          119.8331         0.396047   
     81. A(N  29,C  19,N  41)          120.6889         0.413128   
     82. A(C  20,C  19,N  41)          118.2744         0.395736   
     83. A(C  21,C  20,H  31)          106.2903         0.325693   
     84. A(C  19,C  20,H  31)          102.4198         0.329715   
     85. A(C   6,C  20,H  31)          107.3122         0.318960   
     86. A(C  19,C  20,C  21)          113.8332         0.374717   
     87. A(C   6,C  20,C  21)          113.6529         0.361951   
     88. A(C   6,C  20,C  19)          112.2742         0.366590   
     89. A(C  22,C  21,C  26)          118.4829         0.427705   
     90. A(C  20,C  21,C  26)          117.1273         0.395097   
     91. A(C  20,C  21,C  22)          124.3834         0.399870   
     92. A(C  23,C  22,H  32)          119.1584         0.352066   
     93. A(C  21,C  22,H  32)          119.3552         0.352374   
     94. A(C  21,C  22,C  23)          121.4812         0.432584   
     95. A(C  24,C  23,H  33)          120.6127         0.352486   
     96. A(C  22,C  23,H  33)          119.9901         0.351723   
     97. A(C  22,C  23,C  24)          119.3966         0.433177   
     98. A(C  25,C  24,H  34)          119.2057         0.351597   
     99. A(C  23,C  24,H  34)          120.3232         0.352295   
    100. A(C  23,C  24,C  25)          120.4711         0.433262   
    101. A(C  26,C  25,H  35)          120.4568         0.351286   
    102. A(C  24,C  25,H  35)          119.7205         0.352198   
    103. A(C  24,C  25,C  26)          119.8226         0.431160   
    104. A(C  25,C  26,O  27)          123.6608         0.433277   
    105. A(C  21,C  26,O  27)          115.9963         0.429485   
    106. A(C  21,C  26,C  25)          120.3428         0.426219   
    107. A(C  26,O  27,C  28)          119.3907         0.419475   
    108. A(H  36,C  28,H  38)          109.0570         0.286662   
    109. A(O  27,C  28,H  38)          111.5007         0.338187   
    110. A(H  36,C  28,H  37)          109.1780         0.287627   
    111. A(O  27,C  28,H  37)          106.3736         0.339403   
    112. A(O  27,C  28,H  36)          111.4325         0.338219   
    113. A(H  37,C  28,H  38)          109.2293         0.287601   
    114. A(C  19,N  29,O  30)          122.8888         0.448516   
    115. A(O  30,N  29,O  39)          121.2719         0.481850   
    116. A(C  19,N  29,O  39)          115.8390         0.443540   
    117. A(O  42,N  41,O  43)          120.8143         0.480317   
    118. A(C  19,N  41,O  43)          116.8603         0.442018   
    119. A(C  19,N  41,O  42)          122.3149         0.447929   
    120. D(C   2,C   1,C   0,H  11)    179.6630         0.026211   
    121. D(H  18,C   1,C   0,C   5)   -179.9730         0.026211   
    122. D(C   2,C   1,C   0,C   5)     -0.1759         0.026211   
    123. D(H  18,C   1,C   0,H  11)     -0.1341         0.026211   
    124. D(N   3,C   2,C   1,H  18)    179.6765         0.029060   
    125. D(H  12,C   2,C   1,C   0)   -179.7641         0.029060   
    126. D(H  12,C   2,C   1,H  18)      0.0385         0.029060   
    127. D(N   3,C   2,C   1,C   0)     -0.1261         0.029060   
    128. D(C   4,N   3,C   2,H  12)   -179.8233         0.034846   
    129. D(C   6,N   3,C   2,H  12)     -0.9937         0.034846   
    130. D(C   4,N   3,C   2,C   1)      0.5162         0.034846   
    131. D(C   6,N   3,C   2,C   1)    179.3458         0.034846   
    132. D(C   5,C   4,N   3,C   6)   -179.4123         0.035022   
    133. D(C   5,C   4,N   3,C   2)     -0.5928         0.035022   
    134. D(H  13,C   4,N   3,C   2)   -179.9715         0.035022   
    135. D(H  13,C   4,N   3,C   6)      1.2090         0.035022   
    136. D(H  14,C   5,C   4,H  13)     -0.2016         0.028730   
    137. D(C   0,C   5,C   4,H  13)    179.6240         0.028730   
    138. D(H  14,C   5,C   0,H  11)      0.0831         0.026434   
    139. D(C   0,C   5,C   4,N   3)      0.2785         0.028730   
    140. D(H  14,C   5,C   0,C   1)    179.9220         0.026434   
    141. D(H  14,C   5,C   4,N   3)   -179.5471         0.028730   
    142. D(C   4,C   5,C   0,H  11)   -179.7377         0.026434   
    143. D(C   4,C   5,C   0,C   1)      0.1012         0.026434   
    144. D(C  20,C   6,N   3,C   4)    -49.1655         0.015009   
    145. D(C  20,C   6,N   3,C   2)    131.9892         0.015009   
    146. D(H  15,C   6,N   3,C   4)   -168.7850         0.015009   
    147. D(C   7,C   6,N   3,C   2)   -105.6434         0.015009   
    148. D(H  15,C   6,N   3,C   2)     12.3697         0.015009   
    149. D(C   7,C   6,N   3,C   4)     73.2019         0.015009   
    150. D(O   8,C   7,C   6,N   3)    -23.6292         0.010898   
    151. D(O   9,C   7,C   6,C  20)    -79.2437         0.010898   
    152. D(O   9,C   7,C   6,H  15)     40.2791         0.010898   
    153. D(O   9,C   7,C   6,N   3)    157.3591         0.010898   
    154. D(O   8,C   7,C   6,C  20)     99.7679         0.010898   
    155. D(O   8,C   7,C   6,H  15)   -140.7093         0.010898   
    156. D(C  10,O   9,C   7,O   8)     -7.9547         0.040106   
    157. D(C  10,O   9,C   7,C   6)    171.0406         0.040106   
    158. D(H  40,C  10,O   9,C   7)     56.3206         0.018820   
    159. D(H  17,C  10,O   9,C   7)    176.2865         0.018820   
    160. D(H  16,C  10,O   9,C   7)    -64.8551         0.018820   
    161. D(H  31,C  20,C  19,N  41)     18.2991         0.013294   
    162. D(C  21,C  20,C  19,N  41)    132.5847         0.013294   
    163. D(C  21,C  20,C  19,N  29)    -59.8601         0.013294   
    164. D(C   6,C  20,C  19,N  41)    -96.5030         0.013294   
    165. D(C   6,C  20,C  19,N  29)     71.0522         0.013294   
    166. D(H  31,C  20,C   6,H  15)   -170.4419         0.009692   
    167. D(H  31,C  20,C   6,C   7)    -50.6611         0.009692   
    168. D(H  31,C  20,C   6,N   3)     70.5439         0.009692   
    169. D(C  21,C  20,C   6,H  15)     72.3463         0.009692   
    170. D(C  21,C  20,C   6,C   7)   -167.8730         0.009692   
    171. D(C  21,C  20,C   6,N   3)    -46.6679         0.009692   
    172. D(C  19,C  20,C   6,H  15)    -58.6574         0.009692   
    173. D(H  31,C  20,C  19,N  29)   -174.1457         0.013294   
    174. D(C  19,C  20,C   6,N   3)   -177.6716         0.009692   
    175. D(C  19,C  20,C   6,C   7)     61.1234         0.009692   
    176. D(C  26,C  21,C  20,H  31)     28.9613         0.011520   
    177. D(C  26,C  21,C  20,C  19)    -83.0043         0.011520   
    178. D(C  26,C  21,C  20,C   6)    146.7657         0.011520   
    179. D(C  22,C  21,C  20,H  31)   -150.1015         0.011520   
    180. D(C  22,C  21,C  20,C  19)     97.9329         0.011520   
    181. D(C  22,C  21,C  20,C   6)    -32.2971         0.011520   
    182. D(C  23,C  22,C  21,C  20)    178.3942         0.026212   
    183. D(H  32,C  22,C  21,C  26)    178.5117         0.026212   
    184. D(H  32,C  22,C  21,C  20)     -2.4374         0.026212   
    185. D(C  23,C  22,C  21,C  26)     -0.6568         0.026212   
    186. D(H  33,C  23,C  22,H  32)      1.0183         0.025926   
    187. D(H  33,C  23,C  22,C  21)   -179.8117         0.025926   
    188. D(C  24,C  23,C  22,H  32)   -178.7082         0.025926   
    189. D(C  24,C  23,C  22,C  21)      0.4619         0.025926   
    190. D(H  34,C  24,C  23,H  33)      0.1900         0.026639   
    191. D(H  34,C  24,C  23,C  22)    179.9147         0.026639   
    192. D(C  25,C  24,C  23,H  33)   -179.8211         0.026639   
    193. D(C  25,C  24,C  23,C  22)     -0.0964         0.026639   
    194. D(H  35,C  25,C  24,H  34)      0.0084         0.025986   
    195. D(H  35,C  25,C  24,C  23)   -179.9807         0.025986   
    196. D(C  26,C  25,C  24,H  34)    179.9351         0.025986   
    197. D(C  26,C  25,C  24,C  23)     -0.0539         0.025986   
    198. D(O  27,C  26,C  25,H  35)     -0.1069         0.025157   
    199. D(O  27,C  26,C  25,C  24)    179.9669         0.025157   
    200. D(C  21,C  26,C  25,H  35)    179.7760         0.025157   
    201. D(C  21,C  26,C  25,C  24)     -0.1502         0.025157   
    202. D(O  27,C  26,C  21,C  22)   -179.6113         0.022700   
    203. D(O  27,C  26,C  21,C  20)      1.2687         0.022700   
    204. D(C  25,C  26,C  21,C  22)      0.4971         0.022700   
    205. D(C  25,C  26,C  21,C  20)   -178.6229         0.022700   
    206. D(C  28,O  27,C  26,C  25)      1.1437         0.031598   
    207. D(C  28,O  27,C  26,C  21)   -178.7439         0.031598   
    208. D(H  38,C  28,O  27,C  26)     60.1203         0.021675   
    209. D(H  37,C  28,O  27,C  26)    179.1122         0.021675   
    210. D(H  36,C  28,O  27,C  26)    -61.9956         0.021675   
    211. D(O  39,N  29,C  19,N  41)    159.6487         0.025164   
    212. D(O  39,N  29,C  19,C  20)     -7.6015         0.025164   
    213. D(O  30,N  29,C  19,N  41)    -20.5244         0.025164   
    214. D(O  30,N  29,C  19,C  20)    172.2254         0.025164   
    215. D(O  43,N  41,C  19,N  29)   -163.8041         0.024927   
    216. D(O  43,N  41,C  19,C  20)      3.6404         0.024927   
    217. D(O  42,N  41,C  19,N  29)     15.0197         0.024927   
    218. D(O  42,N  41,C  19,C  20)   -177.5358         0.024927   
    -----------------------------------------------------------------

Number of atoms                         .... 44
Number of degrees of freedom            .... 218

         *************************************************************
         *                GEOMETRY OPTIMIZATION CYCLE   1            *
         *************************************************************
---------------------------------
CARTESIAN COORDINATES (ANGSTROEM)
---------------------------------
  C     -3.804436   -2.484714   -1.069480
  C     -2.942393   -2.431268   -2.163660
  C     -1.648221   -1.987044   -1.978280
  N     -1.219309   -1.606444   -0.758425
  C     -2.033226   -1.657366    0.314013
  C     -3.338619   -2.092646    0.183303
  C      0.168851   -1.154077   -0.601589
  C      0.958526   -2.253000    0.098768
  O      0.465277   -3.097991    0.801623
  O      2.244724   -2.127073   -0.160290
  C      3.135801   -2.960599    0.579933
  H     -4.833986   -2.827537   -1.193571
  H     -0.923938   -1.916929   -2.791211
  H     -1.619215   -1.333800    1.267828
  H     -3.978814   -2.117231    1.065757
  H      0.583519   -0.996451   -1.604914
  H      3.087112   -2.686943    1.643459
  H      4.135998   -2.761963    0.181280
  H     -3.263639   -2.727818   -3.162841
  C      1.674253    0.665555    0.304288
  C      0.266209    0.174522    0.191618
  C     -0.716127    1.232185   -0.270752
  C     -1.154043    1.378622   -1.586036
  C     -2.086713    2.354611   -1.939148
  C     -2.585738    3.208802   -0.959999
  C     -2.161293    3.092083    0.363827
  C     -1.228149    2.108998    0.711310
  O     -0.764935    1.928179    1.963964
  C     -1.247853    2.745793    3.004294
  N      2.321916    1.170232   -0.816288
  O      3.419481    1.713085   -0.762522
  H      0.009870   -0.048545    1.234950
  H     -0.749679    0.725340   -2.360003
  H     -2.415187    2.445811   -2.976701
  H     -3.315766    3.979572   -1.220015
  H     -2.560426    3.767431    1.120951
  H     -1.004994    3.806766    2.828636
  H     -0.747561    2.408514    3.920221
  H     -2.338711    2.641678    3.126922
  O      1.717525    1.042842   -1.894288
  H      2.870922   -4.018608    0.451733
  N      2.386287    0.364495    1.459976
  O      3.529222    0.766854    1.649369
  O      1.817165   -0.360031    2.299382

----------------------------
CARTESIAN COORDINATES (A.U.)
----------------------------
  NO LB      ZA    FRAG     MASS         X           Y           Z
   0 C     6.0000    0    12.011   -7.189342   -4.695429   -2.021024
   1 C     6.0000    0    12.011   -5.560317   -4.594431   -4.088725
   2 C     6.0000    0    12.011   -3.114686   -3.754969   -3.738407
   3 N     7.0000    0    14.007   -2.304160   -3.035739   -1.433216
   4 C     6.0000    0    12.011   -3.842240   -3.131968    0.593399
   5 C     6.0000    0    12.011   -6.309076   -3.954528    0.346392
   6 C     6.0000    0    12.011    0.319082   -2.180889   -1.136838
   7 C     6.0000    0    12.011    1.811352   -4.257553    0.186644
   8 O     8.0000    0    15.999    0.879246   -5.854355    1.514848
   9 O     8.0000    0    15.999    4.241914   -4.019585   -0.302904
  10 C     6.0000    0    12.011    5.925805   -5.594721    1.095915
  11 H     1.0000    0     1.008   -9.134910   -5.343271   -2.255522
  12 H     1.0000    0     1.008   -1.745990   -3.622471   -5.274624
  13 H     1.0000    0     1.008   -3.059873   -2.520517    2.395848
  14 H     1.0000    0     1.008   -7.518869   -4.000987    2.013989
  15 H     1.0000    0     1.008    1.102691   -1.883019   -3.032848
  16 H     1.0000    0     1.008    5.833796   -5.077586    3.105687
  17 H     1.0000    0     1.008    7.815904   -5.219354    0.342570
  18 H     1.0000    0     1.008   -6.167384   -5.154829   -5.976903
  19 C     6.0000    0    12.011    3.163880    1.257717    0.575021
  20 C     6.0000    0    12.011    0.503062    0.329799    0.362106
  21 C     6.0000    0    12.011   -1.353284    2.328492   -0.511647
  22 C     6.0000    0    12.011   -2.180825    2.605218   -2.997174
  23 C     6.0000    0    12.011   -3.943316    4.449570   -3.664459
  24 C     6.0000    0    12.011   -4.886337    6.063757   -1.814135
  25 C     6.0000    0    12.011   -4.084252    5.843190    0.687533
  26 C     6.0000    0    12.011   -2.320865    3.985429    1.344181
  27 O     8.0000    0    15.999   -1.445518    3.643730    3.711354
  28 C     6.0000    0    12.011   -2.358100    5.188797    5.677293
  29 N     7.0000    0    14.007    4.387785    2.211418   -1.542561
  30 O     8.0000    0    15.999    6.461883    3.237261   -1.440958
  31 H     1.0000    0     1.008    0.018652   -0.091737    2.333717
  32 H     1.0000    0     1.008   -1.416688    1.370694   -4.459759
  33 H     1.0000    0     1.008   -4.564042    4.621913   -5.625150
  34 H     1.0000    0     1.008   -6.265890    7.520301   -2.305494
  35 H     1.0000    0     1.008   -4.838504    7.119413    2.118290
  36 H     1.0000    0     1.008   -1.899163    7.193745    5.345347
  37 H     1.0000    0     1.008   -1.412686    4.551432    7.408144
  38 H     1.0000    0     1.008   -4.419523    4.992048    5.909026
  39 O     8.0000    0    15.999    3.245652    1.970686   -3.579686
  40 H     1.0000    0     1.008    5.425256   -7.594069    0.853652
  41 N     7.0000    0    14.007    4.509429    0.688796    2.758955
  42 O     8.0000    0    15.999    6.669263    1.449144    3.116856
  43 O     8.0000    0    15.999    3.433944   -0.680360    4.345202

--------------------------------
INTERNAL COORDINATES (ANGSTROEM)
--------------------------------
 C      0   0   0     0.000000000000     0.00000000     0.00000000
 C      1   0   0     1.393988694777     0.00000000     0.00000000
 C      2   1   0     1.380790307092   119.11477007     0.00000000
 N      3   2   1     1.347912491510   120.70285377   359.87387534
 C      4   3   2     1.347285120833   121.16277185     0.51624115
 C      5   4   3     1.382246239622   120.47465376   359.40721232
 C      4   3   2     1.468407851785   118.97716503   179.34582359
 C      7   4   3     1.523718574082   108.47218107   254.35661348
 O      8   7   4     1.204703082551   124.18289892   336.37079168
 O      8   7   4     1.318056884925   110.27243779   157.35912403
 C     10   8   7     1.427134857795   116.84288376   171.04055844
 H      1   2   3     1.092199335337   120.38332337   179.66299960
 H      3   2   1     1.091035649314   122.87756846   180.23592838
 H      5   4   3     1.088973424240   117.14844199   180.02849101
 H      6   5   4     1.090494897909   119.01271665   180.45294038
 H      7   4   3     1.097021677874   107.69303782    12.36974854
 H     11  10   8     1.099247823620   109.19395272   295.14492837
 H     11  10   8     1.094885616726   105.99600080   176.28647662
 H      2   1   3     1.090643647475   121.77127192   180.20287245
 C      7   4   3     2.529408811592   145.33643450   129.74942042
 C     20   7   4     1.495458405281    34.55676273     3.79185531
 C     21  20   7     1.515724597467   113.83323157   229.08772622
 C     22  21  20     1.393982144319   124.38339409    97.93291556
 C     23  22  21     1.395390963696   121.48122421   178.39419341
 C     24  23  22     1.391905520970   119.39656045     0.46186936
 C     25  24  23     1.395095753438   120.47106347   359.90364361
 C     26  25  24     1.399270623307   119.82262897   359.94608431
 O     27  26  25     1.347740614611   123.66079815   179.96686558
 C     28  27  26     1.408541428791   119.39073715     1.14373112
 N     20   7   4     1.389192861943   104.47340992   241.71815995
 O     30  20   7     1.225654556386   122.88884408   205.87222390
 H     21  20   7     1.097274000254   102.41975307   114.80211643
 H     23  22  21     1.090556066009   119.35522234   357.56264621
 H     24  23  22     1.092121255395   119.99011921   180.18834740
 H     25  24  23     1.092993867293   120.32322777   179.91473152
 H     26  25  24     1.090247139033   119.72048303   180.01934677
 H     29  28  27     1.102497135404   111.43254782   298.00435960
 H     29  28  27     1.096800564567   106.37356093   179.11217894
 H     29  28  27     1.102655311407   111.50065558    60.12029307
 O     30  20   7     1.242417278124   115.83902364    26.04533136
 H     11  10   8     1.098170828570   110.58181211    56.32062755
 N     20   7   4     1.390411555655   116.53183431   105.82659315
 O     42  20   7     1.226402416646   122.31485974   143.42060548
 O     42  20   7     1.246370814965   116.86026318   324.59686030

---------------------------
INTERNAL COORDINATES (A.U.)
---------------------------
 C      0   0   0     0.000000000000     0.00000000     0.00000000
 C      1   0   0     2.634256866910     0.00000000     0.00000000
 C      2   1   0     2.609315528777   119.11477007     0.00000000
 N      3   2   1     2.547185461446   120.70285377   359.87387534
 C      4   3   2     2.545999902681   121.16277185     0.51624115
 C      5   4   3     2.612066842528   120.47465376   359.40721232
 C      4   3   2     2.774888692774   118.97716503   179.34582359
 C      7   4   3     2.879410810184   108.47218107   254.35661348
 O      8   7   4     2.276558898711   124.18289892   336.37079168
 O      8   7   4     2.490766541437   110.27243779   157.35912403
 C     10   8   7     2.696894037405   116.84288376   171.04055844
 H      1   2   3     2.063957627437   120.38332337   179.66299960
 H      3   2   1     2.061758579549   122.87756846   180.23592838
 H      5   4   3     2.057861538933   117.14844199   180.02849101
 H      6   5   4     2.060736707487   119.01271665   180.45294038
 H      7   4   3     2.073070534156   107.69303782    12.36974854
 H     11  10   8     2.077277339951   109.19395272   295.14492837
 H     11  10   8     2.069033963582   105.99600080   176.28647662
 H      2   1   3     2.061017803428   121.77127192   180.20287245
 C      7   4   3     4.779889934635   145.33643450   129.74942042
 C     20   7   4     2.826006830651    34.55676273     3.79185531
 C     21  20   7     2.864304383660   113.83323157   229.08772622
 C     22  21  20     2.634244488340   124.38339409    97.93291556
 C     23  22  21     2.636906771134   121.48122421   178.39419341
 C     24  23  22     2.630320238926   119.39656045     0.46186936
 C     25  24  23     2.636348904595   120.47106347   359.90364361
 C     26  25  24     2.644238265292   119.82262897   359.94608431
 O     27  26  25     2.546860661178   123.66079815   179.96686558
 C     28  27  26     2.661757548697   119.39073715     1.14373112
 N     20   7   4     2.625194056271   104.47340992   241.71815995
 O     30  20   7     2.316151446362   122.88884408   205.87222390
 H     21  20   7     2.073547354353   102.41975307   114.80211643
 H     23  22  21     2.060852298444   119.35522234   357.56264621
 H     24  23  22     2.063810077730   119.99011921   180.18834740
 H     25  24  23     2.065459075239   120.32322777   179.91473152
 H     26  25  24     2.060268511063   119.72048303   180.01934677
 H     29  28  27     2.083417649346   111.43254782   298.00435960
 H     29  28  27     2.072652690561   106.37356093   179.11217894
 H     29  28  27     2.083716558672   111.50065558    60.12029307
 O     30  20   7     2.347828399706   115.83902364    26.04533136
 H     11  10   8     2.075242114259   110.58181211    56.32062755
 N     20   7   4     2.627497053628   116.53183431   105.82659315
 O     42  20   7     2.317564697440   122.31485974   143.42060548
 O     42  20   7     2.355299501596   116.86026318   324.59686030

---------------------
BASIS SET INFORMATION
---------------------
There are 4 groups of distinct atoms

 Group   1 Type C   : 11s6p2d1f contracted to 5s3p2d1f pattern {62111/411/11/1}
 Group   2 Type N   : 11s6p2d1f contracted to 5s3p2d1f pattern {62111/411/11/1}
 Group   3 Type O   : 11s6p2d1f contracted to 5s3p2d1f pattern {62111/411/11/1}
 Group   4 Type H   : 5s1p contracted to 3s1p pattern {311/1}

Atom   0C    basis set group =>   1
Atom   1C    basis set group =>   1
Atom   2C    basis set group =>   1
Atom   3N    basis set group =>   2
Atom   4C    basis set group =>   1
Atom   5C    basis set group =>   1
Atom   6C    basis set group =>   1
Atom   7C    basis set group =>   1
Atom   8O    basis set group =>   3
Atom   9O    basis set group =>   3
Atom  10C    basis set group =>   1
Atom  11H    basis set group =>   4
Atom  12H    basis set group =>   4
Atom  13H    basis set group =>   4
Atom  14H    basis set group =>   4
Atom  15H    basis set group =>   4
Atom  16H    basis set group =>   4
Atom  17H    basis set group =>   4
Atom  18H    basis set group =>   4
Atom  19C    basis set group =>   1
Atom  20C    basis set group =>   1
Atom  21C    basis set group =>   1
Atom  22C    basis set group =>   1
Atom  23C    basis set group =>   1
Atom  24C    basis set group =>   1
Atom  25C    basis set group =>   1
Atom  26C    basis set group =>   1
Atom  27O    basis set group =>   3
Atom  28C    basis set group =>   1
Atom  29N    basis set group =>   2
Atom  30O    basis set group =>   3
Atom  31H    basis set group =>   4
Atom  32H    basis set group =>   4
Atom  33H    basis set group =>   4
Atom  34H    basis set group =>   4
Atom  35H    basis set group =>   4
Atom  36H    basis set group =>   4
Atom  37H    basis set group =>   4
Atom  38H    basis set group =>   4
Atom  39O    basis set group =>   3
Atom  40H    basis set group =>   4
Atom  41N    basis set group =>   2
Atom  42O    basis set group =>   3
Atom  43O    basis set group =>   3
---------------------------------
AUXILIARY/J BASIS SET INFORMATION
---------------------------------
There are 4 groups of distinct atoms

 Group   1 Type C   : 12s5p4d2f1g contracted to 6s4p3d1f1g pattern {711111/2111/211/2/1}
 Group   2 Type N   : 12s5p4d2f1g contracted to 6s4p3d1f1g pattern {711111/2111/211/2/1}
 Group   3 Type O   : 12s5p4d2f1g contracted to 6s4p3d1f1g pattern {711111/2111/211/2/1}
 Group   4 Type H   : 5s2p1d contracted to 3s1p1d pattern {311/2/1}

Atom   0C    basis set group =>   1
Atom   1C    basis set group =>   1
Atom   2C    basis set group =>   1
Atom   3N    basis set group =>   2
Atom   4C    basis set group =>   1
Atom   5C    basis set group =>   1
Atom   6C    basis set group =>   1
Atom   7C    basis set group =>   1
Atom   8O    basis set group =>   3
Atom   9O    basis set group =>   3
Atom  10C    basis set group =>   1
Atom  11H    basis set group =>   4
Atom  12H    basis set group =>   4
Atom  13H    basis set group =>   4
Atom  14H    basis set group =>   4
Atom  15H    basis set group =>   4
Atom  16H    basis set group =>   4
Atom  17H    basis set group =>   4
Atom  18H    basis set group =>   4
Atom  19C    basis set group =>   1
Atom  20C    basis set group =>   1
Atom  21C    basis set group =>   1
Atom  22C    basis set group =>   1
Atom  23C    basis set group =>   1
Atom  24C    basis set group =>   1
Atom  25C    basis set group =>   1
Atom  26C    basis set group =>   1
Atom  27O    basis set group =>   3
Atom  28C    basis set group =>   1
Atom  29N    basis set group =>   2
Atom  30O    basis set group =>   3
Atom  31H    basis set group =>   4
Atom  32H    basis set group =>   4
Atom  33H    basis set group =>   4
Atom  34H    basis set group =>   4
Atom  35H    basis set group =>   4
Atom  36H    basis set group =>   4
Atom  37H    basis set group =>   4
Atom  38H    basis set group =>   4
Atom  39O    basis set group =>   3
Atom  40H    basis set group =>   4
Atom  41N    basis set group =>   2
Atom  42O    basis set group =>   3
Atom  43O    basis set group =>   3


           ************************************************************
           *        Program running with 24 parallel MPI-processes    *
           *              working on a common directory               *
           ************************************************************
------------------------------------------------------------------------------
                           ORCA GTO INTEGRAL CALCULATION
                           -- RI-GTO INTEGRALS CHOSEN --
------------------------------------------------------------------------------
------------------------------------------------------------------------------
                   ___                                                        
                  /   \      - P O W E R E D   B Y -                         
                 /     \                                                     
                 |  |  |   _    _      __       _____    __    __             
                 |  |  |  | |  | |    /  \     |  _  \  |  |  /  |          
                  \  \/   | |  | |   /    \    | | | |  |  | /  /          
                 / \  \   | |__| |  /  /\  \   | |_| |  |  |/  /          
                |  |  |   |  __  | /  /__\  \  |    /   |      \           
                |  |  |   | |  | | |   __   |  |    \   |  |\   \          
                \     /   | |  | | |  |  |  |  | |\  \  |  | \   \       
                 \___/    |_|  |_| |__|  |__|  |_| \__\ |__|  \__/        
                                                                              
                      - O R C A' S   B I G   F R I E N D -                    
                                      &                                       
                       - I N T E G R A L  F E E D E R -                       
                                                                              
 v1 FN, 2020, v2 2021                                                         
------------------------------------------------------------------------------


Reading SHARK input file IM_NO2/IM_NO2.SHARKINP.tmp ... ok
----------------------
SHARK INTEGRAL PACKAGE
----------------------

Number of atoms                             ...     44
Number of basis functions                   ...    939
Number of shells                            ...    365
Maximum angular momentum                    ...      3
Integral batch strategy                     ... SHARK/LIBINT Hybrid
RI-J (if used) integral strategy            ... SPLIT-RIJ (Revised 2003 algorithm where possible)
Printlevel                                  ...      1
Contraction scheme used                     ... SEGMENTED contraction
Coulomb Range Separation                    ... NOT USED
Exchange Range Separation                   ... NOT USED
Finite Nucleus Model                        ... NOT USED
Auxiliary Coulomb fitting basis             ... AVAILABLE
   # of basis functions in Aux-J            ...   1510
   # of shells in Aux-J                     ...    490
   Maximum angular momentum in Aux-J        ...      4
Auxiliary J/K fitting basis                 ... NOT available
Auxiliary Correlation fitting basis         ... NOT available
Auxiliary 'external' fitting basis          ... NOT available
Integral threshold                          ...     2.500000e-11
Primitive cut-off                           ...     2.500000e-12
Primitive pair pre-selection threshold      ...     2.500000e-12

Calculating pre-screening integrals         ... done (  0.1 sec) Dimension = 365
Organizing shell pair data                  ... done (  0.6 sec)
Shell pair information
Total number of shell pairs                 ...     66795
Shell pairs after pre-screening             ...     47414
Total number of primitive shell pairs       ...    207048
Primitive shell pairs kept                  ...     95167
          la=0 lb=0:  11793 shell pairs
          la=1 lb=0:  13571 shell pairs
          la=1 lb=1:   3916 shell pairs
          la=2 lb=0:   6816 shell pairs
          la=2 lb=1:   4036 shell pairs
          la=2 lb=2:   1050 shell pairs
          la=3 lb=0:   3152 shell pairs
          la=3 lb=1:   1905 shell pairs
          la=3 lb=2:    943 shell pairs
          la=3 lb=3:    232 shell pairs

Calculating one electron integrals          ... done (  0.1 sec)
Calculating RI/J V-Matrix + Cholesky decomp.... done (  0.2 sec)
Calculating Nuclear repulsion               ... done (  0.0 sec) ENN=   2720.247064349194 Eh

SHARK setup successfully completed in   1.9 seconds

Maximum memory used throughout the entire GTOINT-calculation: 71.9 MB


           ************************************************************
           *        Program running with 24 parallel MPI-processes    *
           *              working on a common directory               *
           ************************************************************
-------------------------------------------------------------------------------
                                 ORCA SCF
-------------------------------------------------------------------------------

------------
SCF SETTINGS
------------
Hamiltonian:
 Density Functional     Method          .... DFT(GTOs)
 Exchange Functional    Exchange        .... PBE
   PBE kappa parameter   XKappa         ....  0.804000
   PBE mue parameter    XMuePBE         ....  0.219520
 Correlation Functional Correlation     .... PBE
   PBE beta parameter  CBetaPBE         ....  0.066725
 LDA part of GGA corr.  LDAOpt          .... PW91-LDA
 Gradients option       PostSCFGGA      .... off
 Hybrid DFT is turned on
   Fraction HF Exchange ScalHFX         ....  0.250000
   Scaling of DF-GGA-X  ScalDFX         ....  0.750000
   Scaling of DF-GGA-C  ScalDFC         ....  1.000000
   Scaling of DF-LDA-C  ScalLDAC        ....  1.000000
   Perturbative correction              ....  0.000000
   Density functional embedding theory  .... OFF
   NL short-range parameter             ....  6.900000
 RI-approximation to the Coulomb term is turned on
   Number of AuxJ basis functions       .... 1510
   RIJ-COSX (HFX calculated with COS-X)).... on


General Settings:
 Integral files         IntName         .... IM_NO2/IM_NO2
 Hartree-Fock type      HFTyp           .... RHF
 Total Charge           Charge          ....    0
 Multiplicity           Mult            ....    1
 Number of Electrons    NEL             ....  196
 Basis Dimension        Dim             ....  939
 Nuclear Repulsion      ENuc            ....   2720.2470643492 Eh

Convergence Acceleration:
 DIIS                   CNVDIIS         .... on
   Start iteration      DIISMaxIt       ....    12
   Startup error        DIISStart       ....  0.200000
   # of expansion vecs  DIISMaxEq       ....     5
   Bias factor          DIISBfac        ....   1.050
   Max. coefficient     DIISMaxC        ....  10.000
 Trust-Rad. Augm. Hess. CNVTRAH         .... auto
   Auto Start mean grad. ratio tolernc. ....  1.125000
   Auto Start start iteration           ....    20
   Auto Start num. interpolation iter.  ....    10
   Max. Number of Micro iterations      ....    16
   Max. Number of Macro iterations      .... Maxiter - #DIIS iter
   Number of Davidson start vectors     ....     2
   Converg. threshold I  (grad. norm)   ....   1.000e-05
   Converg. threshold II (energy diff.) ....   1.000e-08
   Grad. Scal. Fac. for Micro threshold ....   0.100
   Minimum threshold for Micro iter.    ....   0.010
   NR start threshold (gradient norm)   ....   0.001
   Initial trust radius                 ....   0.400
   Minimum AH scaling param. (alpha)    ....   1.000
   Maximum AH scaling param. (alpha)    .... 1000.000
   Orbital update algorithm             .... Taylor
   White noise on init. David. guess    .... on
   Maximum white noise                  ....   0.010
   Quad. conv. algorithm                .... NR
 SOSCF                  CNVSOSCF        .... on
   Start iteration      SOSCFMaxIt      ....   150
   Startup grad/error   SOSCFStart      ....  0.003300
 Level Shifting         CNVShift        .... on
   Level shift para.    LevelShift      ....    0.2500
   Turn off err/grad.   ShiftErr        ....    0.0010
 Zerner damping         CNVZerner       .... off
 Static damping         CNVDamp         .... on
   Fraction old density DampFac         ....    0.7000
   Max. Damping (<1)    DampMax         ....    0.9800
   Min. Damping (>=0)   DampMin         ....    0.0000
   Turn off err/grad.   DampErr         ....    0.1000
 Fernandez-Rico         CNVRico         .... off

SCF Procedure:
 Maximum # iterations   MaxIter         ....   800
 SCF integral mode      SCFMode         .... Direct
   Integral package                     .... SHARK and LIBINT hybrid scheme
 Reset frequency        DirectResetFreq ....    20
 Integral Threshold     Thresh          ....  2.500e-11 Eh
 Primitive CutOff       TCut            ....  2.500e-12 Eh

Convergence Tolerance:
 Convergence Check Mode ConvCheckMode   .... Total+1el-Energy
 Convergence forced     ConvForced      .... 0
 Energy Change          TolE            ....  1.000e-08 Eh
 1-El. energy change                    ....  1.000e-05 Eh
 Orbital Gradient       TolG            ....  1.000e-05
 Orbital Rotation angle TolX            ....  1.000e-05
 DIIS Error             TolErr          ....  5.000e-07


Diagonalization of the overlap matrix:
Smallest eigenvalue                        ... 5.855e-06
Time for diagonalization                   ...    0.290 sec
Threshold for overlap eigenvalues          ... 1.000e-08
Number of eigenvalues below threshold      ... 0
Time for construction of square roots      ...    0.155 sec
Total time needed                          ...    0.451 sec

Time for model grid setup =    0.400 sec

------------------------------
INITIAL GUESS: MODEL POTENTIAL
------------------------------
Loading Hartree-Fock densities                     ... done
Calculating cut-offs                               ... done
Initializing the effective Hamiltonian             ... done
Setting up the integral package (SHARK)            ... done
Starting the Coulomb interaction                   ... done (   0.5 sec)
Reading the grid                                   ... done
Mapping shells                                     ... done
Starting the XC term evaluation                    ... done (   0.2 sec)
  promolecular density results
     # of electrons  =    195.991243286
     EX              =   -168.738037076
     EC              =     -6.670848928
     EX+EC           =   -175.408886005
Transforming the Hamiltonian                       ... done (   0.2 sec)
Diagonalizing the Hamiltonian                      ... done (   0.3 sec)
Back transforming the eigenvectors                 ... done (   0.1 sec)
Now organizing SCF variables                       ... done
                      ------------------
                      INITIAL GUESS DONE (   1.8 sec)
                      ------------------
-------------------
DFT GRID GENERATION
-------------------

General Integration Accuracy     IntAcc      ... 4.388
Radial Grid Type                 RadialGrid  ... OptM3 with GC (2021)
Angular Grid (max. ang.)         AngularGrid ... 4 (Lebedev-302)
Angular grid pruning method      GridPruning ... 4 (adaptive)
Weight generation scheme         WeightScheme... Becke
Basis function cutoff            BFCut       ... 1.0000e-11
Integration weight cutoff        WCut        ... 1.0000e-14
Angular grids for H and He will be reduced by one unit
Partially contracted basis set               ... off
Rotationally invariant grid construction     ... off

Total number of grid points                  ...   215111
Total number of batches                      ...     3383
Average number of points per batch           ...       63
Average number of grid points per atom       ...     4889
Time for grid setup =    2.055 sec

--------------------
COSX GRID GENERATION
--------------------

GRIDX 1
-------
General Integration Accuracy     IntAcc      ... 3.816
Radial Grid Type                 RadialGrid  ... OptM3 with GC (2021)
Angular Grid (max. ang.)         AngularGrid ... 1 (Lebedev-50)
Angular grid pruning method      GridPruning ... 4 (adaptive)
Weight generation scheme         WeightScheme... Becke
Basis function cutoff            BFCut       ... 1.0000e-11
Integration weight cutoff        WCut        ... 1.0000e-14
Angular grids for H and He will be reduced by one unit
Partially contracted basis set               ... on
Rotationally invariant grid construction     ... off

Total number of grid points                  ...    27276
Total number of batches                      ...      447
Average number of points per batch           ...       61
Average number of grid points per atom       ...      620
UseSFitting                                  ... on

GRIDX 2
-------
General Integration Accuracy     IntAcc      ... 4.020
Radial Grid Type                 RadialGrid  ... OptM3 with GC (2021)
Angular Grid (max. ang.)         AngularGrid ... 2 (Lebedev-110)
Angular grid pruning method      GridPruning ... 4 (adaptive)
Weight generation scheme         WeightScheme... Becke
Basis function cutoff            BFCut       ... 1.0000e-11
Integration weight cutoff        WCut        ... 1.0000e-14
Angular grids for H and He will be reduced by one unit
Partially contracted basis set               ... on
Rotationally invariant grid construction     ... off

Total number of grid points                  ...    59542
Total number of batches                      ...      949
Average number of points per batch           ...       62
Average number of grid points per atom       ...     1353
UseSFitting                                  ... on

GRIDX 3
-------
General Integration Accuracy     IntAcc      ... 4.338
Radial Grid Type                 RadialGrid  ... OptM3 with GC (2021)
Angular Grid (max. ang.)         AngularGrid ... 3 (Lebedev-194)
Angular grid pruning method      GridPruning ... 4 (adaptive)
Weight generation scheme         WeightScheme... Becke
Basis function cutoff            BFCut       ... 1.0000e-11
Integration weight cutoff        WCut        ... 1.0000e-14
Angular grids for H and He will be reduced by one unit
Partially contracted basis set               ... on
Rotationally invariant grid construction     ... off

Total number of grid points                  ...   130140
Total number of batches                      ...     2057
Average number of points per batch           ...       63
Average number of grid points per atom       ...     2958
UseSFitting                                  ... on

Time for X-Grid setup             =    2.807 sec


--------------------
CPCM SOLVATION MODEL
--------------------
CPCM parameters:
  Epsilon                                         ...      47.2000
  Refrac                                          ...       1.4790
  Rsolv                                           ...       1.3000
  Surface type                                    ... GAUSSIAN VDW
  Epsilon function type                           ...         CPCM
Radii:
 Radius for C  used is    3.8550 Bohr (=   2.0400 Ang.)
 Radius for N  used is    3.5149 Bohr (=   1.8600 Ang.)
 Radius for O  used is    3.4469 Bohr (=   1.8240 Ang.)
 Radius for H  used is    2.4944 Bohr (=   1.3200 Ang.)
Calculating surface                               ...        done! (  0.0s)
GEPOL surface points                              ...         2205
GEPOL Volume                                      ...    2755.3919
GEPOL Surface-area                                ...    1351.3533
Calculating surface distance matrix               ...        done! (  0.1s)
Performing Cholesky decomposition & store         ...        done! (  0.3s)
Overall time for CPCM initialization              ...                 0.4s
--------------
SCF ITERATIONS
--------------
ITER       Energy         Delta-E        Max-DP      RMS-DP      [F,P]     Damp
               ***  Starting incremental Fock matrix formation  ***
  0  -1347.0766485539   0.000000000000 0.22961885  0.00075286  0.2594792 0.7000
  1  -1347.3619762976  -0.285327743745 0.21932573  0.00060751  0.1029200 0.7000
                               ***Turning on DIIS***
  2  -1347.4672076222  -0.105231324626 0.28347078  0.00106700  0.0306728 0.0000
  3  -1347.6554134526  -0.188205830388 0.21511068  0.00048530  0.0490765 0.0000
  4  -1347.6833353641  -0.027921911470 0.04732738  0.00019052  0.0175145 0.0000
                      *** Initiating the SOSCF procedure ***
                           *** Shutting down DIIS ***
                      *** Re-Reading the Fockian *** 
                      *** Removing any level shift *** 
ITER      Energy       Delta-E        Grad      Rot      Max-DP    RMS-DP
  5  -1347.68618466  -0.0028492946  0.000555  0.000555  0.026085  0.000059
               *** Restarting incremental Fock matrix formation ***
  6  -1347.68629338  -0.0001087219  0.000397  0.001455  0.003221  0.000028
  7  -1347.68627589   0.0000174931  0.000784  0.000835  0.003695  0.000013
  8  -1347.68630943  -0.0000335465  0.000088  0.000311  0.000862  0.000005
  9  -1347.68630874   0.0000006956  0.000162  0.000232  0.000419  0.000003
 10  -1347.68630992  -0.0000011850  0.000037  0.000106  0.000395  0.000002
 11  -1347.68630984   0.0000000803  0.000047  0.000063  0.000127  0.000001
 12  -1347.68630995  -0.0000001057  0.000005  0.000015  0.000197  0.000001
 13  -1347.68630998  -0.0000000293  0.000006  0.000010  0.000181  0.000001
                  ***Gradient check signals convergence***
              ***Rediagonalizing the Fockian in SOSCF/NRSCF***

               *****************************************************
               *                     SUCCESS                       *
               *           SCF CONVERGED AFTER  14 CYCLES          *
               *****************************************************

Old exchange energy                            =    -42.871899069 Eh
New exchange energy                            =    -42.871915659 Eh
Exchange energy change after final integration =     -0.000016590 Eh
Total energy after final integration           =  -1347.686326553 Eh
Final COS-X integration done in                =    19.960 sec

----------------
TOTAL SCF ENERGY
----------------

Total Energy       :        -1347.68632655 Eh          -36672.40933 eV

Components:
Nuclear Repulsion  :         2720.24706435 Eh           74021.68581 eV
Electronic Energy  :        -4067.93339090 Eh         -110694.09515 eV
One Electron Energy:        -7251.98319446 Eh         -197336.49511 eV
Two Electron Energy:         3184.04980356 Eh           86642.39997 eV
Max COSX asymmetry :            0.00000150 Eh               0.00004 eV
CPCM Dielectric    :           -0.07672082 Eh              -2.08768 eV

Virial components:
Potential Energy   :        -2689.27703349 Eh          -73178.94843 eV
Kinetic Energy     :         1341.59070693 Eh           36506.53909 eV
Virial Ratio       :            2.00454358


DFT components:
N(Alpha)           :       97.999798454178 electrons
N(Beta)            :       97.999798454178 electrons
N(Total)           :      195.999596908356 electrons
E(X)               :     -128.512003156674 Eh       
E(C)               :       -6.661897335015 Eh       
E(XC)              :     -135.173900491689 Eh       
DFET-embed. en.    :        0.000000000000 Eh       
CPCM Solvation Model Properties:
Surface-charge          :           -0.02708275
Charge-correction       :           -0.00027271 Eh              -0.00742 eV
Free-energy (cav+disp)  :  This term is not implemented in the current solvation scheme

---------------
SCF CONVERGENCE
---------------

  Last Energy change         ...    1.5186e-08  Tolerance :   1.0000e-08
  Last MAX-Density change    ...    2.4425e-15  Tolerance :   1.0000e-07
  Last RMS-Density change    ...    1.4127e-17  Tolerance :   5.0000e-09
  Last Orbital Gradient      ...    1.3438e-06  Tolerance :   1.0000e-05
  Last Orbital Rotation      ...    4.5375e-06  Tolerance :   1.0000e-05

             **** THE GBW FILE WAS UPDATED (IM_NO2/IM_NO2.gbw) ****
             **** DENSITY IM_NO2/IM_NO2.scfp WAS UPDATED ****
             **** ENERGY FILE WAS UPDATED (IM_NO2/IM_NO2.en.tmp) ****
             **** THE GBW FILE WAS UPDATED (IM_NO2/IM_NO2.gbw) ****
             **** DENSITY IM_NO2/IM_NO2.scfp WAS UPDATED ****
----------------
ORBITAL ENERGIES
----------------

  NO   OCC          E(Eh)            E(eV) 
   0   2.0000     -19.275297      -524.5075 
   1   2.0000     -19.247788      -523.7589 
   2   2.0000     -19.216240      -522.9005 
   3   2.0000     -19.211014      -522.7583 
   4   2.0000     -19.210929      -522.7559 
   5   2.0000     -19.209342      -522.7128 
   6   2.0000     -19.209278      -522.7110 
   7   2.0000     -14.603485      -397.3810 
   8   2.0000     -14.603284      -397.3756 
   9   2.0000     -14.519280      -395.0897 
  10   2.0000     -10.375397      -282.3289 
  11   2.0000     -10.319364      -280.8042 
  12   2.0000     -10.318881      -280.7910 
  13   2.0000     -10.312107      -280.6067 
  14   2.0000     -10.294707      -280.1332 
  15   2.0000     -10.292994      -280.0866 
  16   2.0000     -10.285196      -279.8744 
  17   2.0000     -10.276398      -279.6350 
  18   2.0000     -10.274315      -279.5783 
  19   2.0000     -10.274057      -279.5713 
  20   2.0000     -10.271625      -279.5051 
  21   2.0000     -10.269648      -279.4513 
  22   2.0000     -10.245094      -278.7832 
  23   2.0000     -10.233766      -278.4749 
  24   2.0000     -10.232836      -278.4496 
  25   2.0000     -10.228863      -278.3415 
  26   2.0000     -10.224497      -278.2227 
  27   2.0000      -1.251115       -34.0446 
  28   2.0000      -1.235293       -33.6140 
  29   2.0000      -1.167443       -31.7677 
  30   2.0000      -1.112061       -30.2607 
  31   2.0000      -1.088253       -29.6129 
  32   2.0000      -1.070802       -29.1380 
  33   2.0000      -1.061565       -28.8866 
  34   2.0000      -1.052813       -28.6485 
  35   2.0000      -0.914900       -24.8957 
  36   2.0000      -0.891016       -24.2458 
  37   2.0000      -0.881308       -23.9816 
  38   2.0000      -0.847102       -23.0508 
  39   2.0000      -0.832299       -22.6480 
  40   2.0000      -0.798770       -21.7356 
  41   2.0000      -0.778017       -21.1709 
  42   2.0000      -0.756781       -20.5931 
  43   2.0000      -0.745556       -20.2876 
  44   2.0000      -0.729143       -19.8410 
  45   2.0000      -0.717212       -19.5163 
  46   2.0000      -0.709596       -19.3091 
  47   2.0000      -0.681333       -18.5400 
  48   2.0000      -0.629415       -17.1273 
  49   2.0000      -0.623238       -16.9592 
  50   2.0000      -0.610388       -16.6095 
  51   2.0000      -0.584474       -15.9044 
  52   2.0000      -0.583181       -15.8692 
  53   2.0000      -0.575603       -15.6630 
  54   2.0000      -0.566517       -15.4157 
  55   2.0000      -0.559900       -15.2356 
  56   2.0000      -0.554637       -15.0924 
  57   2.0000      -0.549275       -14.9465 
  58   2.0000      -0.534044       -14.5321 
  59   2.0000      -0.533518       -14.5178 
  60   2.0000      -0.526260       -14.3202 
  61   2.0000      -0.515268       -14.0212 
  62   2.0000      -0.513270       -13.9668 
  63   2.0000      -0.510814       -13.9000 
  64   2.0000      -0.509251       -13.8574 
  65   2.0000      -0.500266       -13.6129 
  66   2.0000      -0.497980       -13.5507 
  67   2.0000      -0.493399       -13.4261 
  68   2.0000      -0.488016       -13.2796 
  69   2.0000      -0.479074       -13.0363 
  70   2.0000      -0.465518       -12.6674 
  71   2.0000      -0.459624       -12.5070 
  72   2.0000      -0.446489       -12.1496 
  73   2.0000      -0.434310       -11.8182 
  74   2.0000      -0.429845       -11.6967 
  75   2.0000      -0.422708       -11.5025 
  76   2.0000      -0.418696       -11.3933 
  77   2.0000      -0.415942       -11.3184 
  78   2.0000      -0.401946       -10.9375 
  79   2.0000      -0.394622       -10.7382 
  80   2.0000      -0.385918       -10.5014 
  81   2.0000      -0.383464       -10.4346 
  82   2.0000      -0.366000        -9.9594 
  83   2.0000      -0.353017        -9.6061 
  84   2.0000      -0.344834        -9.3834 
  85   2.0000      -0.342730        -9.3262 
  86   2.0000      -0.341561        -9.2943 
  87   2.0000      -0.339295        -9.2327 
  88   2.0000      -0.328048        -8.9266 
  89   2.0000      -0.318664        -8.6713 
  90   2.0000      -0.315016        -8.5720 
  91   2.0000      -0.309581        -8.4241 
  92   2.0000      -0.306445        -8.3388 
  93   2.0000      -0.304394        -8.2830 
  94   2.0000      -0.274020        -7.4565 
  95   2.0000      -0.268638        -7.3100 
  96   2.0000      -0.246113        -6.6971 
  97   2.0000      -0.237520        -6.4633 
  98   0.0000      -0.090604        -2.4655 
  99   0.0000      -0.066483        -1.8091 
 100   0.0000      -0.055593        -1.5128 
 101   0.0000      -0.018461        -0.5023 
 102   0.0000      -0.006604        -0.1797 
 103   0.0000       0.002772         0.0754 
 104   0.0000       0.017432         0.4743 
 105   0.0000       0.042960         1.1690 
 106   0.0000       0.054052         1.4708 
 107   0.0000       0.063678         1.7328 
 108   0.0000       0.067741         1.8433 
 109   0.0000       0.079248         2.1565 
 110   0.0000       0.083627         2.2756 
 111   0.0000       0.086738         2.3603 
 112   0.0000       0.089820         2.4441 
 113   0.0000       0.098194         2.6720 
 114   0.0000       0.099326         2.7028 
 115   0.0000       0.108774         2.9599 
 116   0.0000       0.108940         2.9644 
 117   0.0000       0.110185         2.9983 
 118   0.0000       0.123247         3.3537 
 119   0.0000       0.128103         3.4858 
 120   0.0000       0.134084         3.6486 
 121   0.0000       0.136443         3.7128 
 122   0.0000       0.138312         3.7637 
 123   0.0000       0.139841         3.8053 
 124   0.0000       0.143966         3.9175 
 125   0.0000       0.150734         4.1017 
 126   0.0000       0.151201         4.1144 
 127   0.0000       0.156312         4.2535 
 128   0.0000       0.158190         4.3046 
 129   0.0000       0.172894         4.7047 
 130   0.0000       0.176460         4.8017 
 131   0.0000       0.184000         5.0069 
 132   0.0000       0.189445         5.1551 
 133   0.0000       0.196356         5.3431 
 134   0.0000       0.199982         5.4418 
 135   0.0000       0.201854         5.4927 
 136   0.0000       0.204646         5.5687 
 137   0.0000       0.208549         5.6749 
 138   0.0000       0.213944         5.8217 
 139   0.0000       0.217257         5.9119 
 140   0.0000       0.218857         5.9554 
 141   0.0000       0.224805         6.1173 
 142   0.0000       0.228589         6.2202 
 143   0.0000       0.230629         6.2757 
 144   0.0000       0.236355         6.4316 
 145   0.0000       0.240988         6.5576 
 146   0.0000       0.245644         6.6843 
 147   0.0000       0.246354         6.7036 
 148   0.0000       0.250859         6.8262 
 149   0.0000       0.253534         6.8990 
 150   0.0000       0.257025         6.9940 
 151   0.0000       0.264469         7.1966 
 152   0.0000       0.269643         7.3374 
 153   0.0000       0.277705         7.5568 
 154   0.0000       0.279360         7.6018 
 155   0.0000       0.286050         7.7838 
 156   0.0000       0.288739         7.8570 
 157   0.0000       0.296662         8.0726 
 158   0.0000       0.304026         8.2730 
 159   0.0000       0.308033         8.3820 
 160   0.0000       0.312328         8.4989 
 161   0.0000       0.315099         8.5743 
 162   0.0000       0.318860         8.6766 
 163   0.0000       0.320606         8.7241 
 164   0.0000       0.322670         8.7803 
 165   0.0000       0.330800         9.0015 
 166   0.0000       0.335084         9.1181 
 167   0.0000       0.341574         9.2947 
 168   0.0000       0.343061         9.3352 
 169   0.0000       0.347636         9.4597 
 170   0.0000       0.353482         9.6187 
 171   0.0000       0.357631         9.7316 
 172   0.0000       0.358936         9.7671 
 173   0.0000       0.365647         9.9498 
 174   0.0000       0.370041        10.0693 
 175   0.0000       0.371988        10.1223 
 176   0.0000       0.374366        10.1870 
 177   0.0000       0.379534        10.3277 
 178   0.0000       0.385246        10.4831 
 179   0.0000       0.387493        10.5442 
 180   0.0000       0.391444        10.6517 
 181   0.0000       0.395506        10.7623 
 182   0.0000       0.400557        10.8997 
 183   0.0000       0.402385        10.9495 
 184   0.0000       0.407070        11.0769 
 185   0.0000       0.410479        11.1697 
 186   0.0000       0.415718        11.3123 
 187   0.0000       0.418067        11.3762 
 188   0.0000       0.420128        11.4323 
 189   0.0000       0.425146        11.5688 
 190   0.0000       0.427750        11.6397 
 191   0.0000       0.432417        11.7667 
 192   0.0000       0.437432        11.9031 
 193   0.0000       0.439496        11.9593 
 194   0.0000       0.442120        12.0307 
 195   0.0000       0.443643        12.0721 
 196   0.0000       0.450240        12.2517 
 197   0.0000       0.454036        12.3549 
 198   0.0000       0.455817        12.4034 
 199   0.0000       0.459134        12.4937 
 200   0.0000       0.463076        12.6009 
 201   0.0000       0.468082        12.7372 
 202   0.0000       0.470850        12.8125 
 203   0.0000       0.473309        12.8794 
 204   0.0000       0.474726        12.9179 
 205   0.0000       0.479869        13.0579 
 206   0.0000       0.485963        13.2237 
 207   0.0000       0.486440        13.2367 
 208   0.0000       0.488544        13.2940 
 209   0.0000       0.494269        13.4498 
 210   0.0000       0.499393        13.5892 
 211   0.0000       0.503344        13.6967 
 212   0.0000       0.508181        13.8283 
 213   0.0000       0.510350        13.8873 
 214   0.0000       0.514041        13.9878 
 215   0.0000       0.520995        14.1770 
 216   0.0000       0.527050        14.3418 
 217   0.0000       0.531446        14.4614 
 218   0.0000       0.536753        14.6058 
 219   0.0000       0.540061        14.6958 
 220   0.0000       0.544784        14.8243 
 221   0.0000       0.550312        14.9748 
 222   0.0000       0.551533        15.0080 
 223   0.0000       0.555577        15.1180 
 224   0.0000       0.561217        15.2715 
 225   0.0000       0.564797        15.3689 
 226   0.0000       0.572893        15.5892 
 227   0.0000       0.579214        15.7612 
 228   0.0000       0.580693        15.8015 
 229   0.0000       0.585186        15.9237 
 230   0.0000       0.589974        16.0540 
 231   0.0000       0.602081        16.3835 
 232   0.0000       0.611847        16.6492 
 233   0.0000       0.619417        16.8552 
 234   0.0000       0.628972        17.1152 
 235   0.0000       0.635396        17.2900 
 236   0.0000       0.636461        17.3190 
 237   0.0000       0.642558        17.4849 
 238   0.0000       0.647588        17.6218 
 239   0.0000       0.653327        17.7779 
 240   0.0000       0.658144        17.9090 
 241   0.0000       0.661309        17.9951 
 242   0.0000       0.671005        18.2590 
 243   0.0000       0.673107        18.3162 
 244   0.0000       0.678823        18.4717 
 245   0.0000       0.684045        18.6138 
 246   0.0000       0.692428        18.8419 
 247   0.0000       0.693462        18.8701 
 248   0.0000       0.697847        18.9894 
 249   0.0000       0.705851        19.2072 
 250   0.0000       0.709991        19.3198 
 251   0.0000       0.714216        19.4348 
 252   0.0000       0.722125        19.6500 
 253   0.0000       0.727414        19.7939 
 254   0.0000       0.730391        19.8750 
 255   0.0000       0.739632        20.1264 
 256   0.0000       0.743284        20.2258 
 257   0.0000       0.747171        20.3315 
 258   0.0000       0.754511        20.5313 
 259   0.0000       0.756160        20.5762 
 260   0.0000       0.760358        20.6904 
 261   0.0000       0.768134        20.9020 
 262   0.0000       0.769900        20.9500 
 263   0.0000       0.777507        21.1571 
 264   0.0000       0.786906        21.4128 
 265   0.0000       0.792035        21.5524 
 266   0.0000       0.797942        21.7131 
 267   0.0000       0.801877        21.8202 
 268   0.0000       0.808562        22.0021 
 269   0.0000       0.814509        22.1639 
 270   0.0000       0.818058        22.2605 
 271   0.0000       0.826445        22.4887 
 272   0.0000       0.827432        22.5156 
 273   0.0000       0.834653        22.7121 
 274   0.0000       0.837836        22.7987 
 275   0.0000       0.843602        22.9556 
 276   0.0000       0.853349        23.2208 
 277   0.0000       0.859155        23.3788 
 278   0.0000       0.872385        23.7388 
 279   0.0000       0.880539        23.9607 
 280   0.0000       0.887748        24.1568 
 281   0.0000       0.893591        24.3158 
 282   0.0000       0.897355        24.4183 
 283   0.0000       0.904607        24.6156 
 284   0.0000       0.912812        24.8389 
 285   0.0000       0.924217        25.1492 
 286   0.0000       0.928748        25.2725 
 287   0.0000       0.931391        25.3444 
 288   0.0000       0.934250        25.4222 
 289   0.0000       0.938815        25.5465 
 290   0.0000       0.940173        25.5834 
 291   0.0000       0.955983        26.0136 
 292   0.0000       0.965004        26.2591 
 293   0.0000       0.975755        26.5516 
 294   0.0000       0.984081        26.7782 
 295   0.0000       0.989684        26.9307 
 296   0.0000       0.991399        26.9773 
 297   0.0000       0.994889        27.0723 
 298   0.0000       1.002950        27.2917 
 299   0.0000       1.015208        27.6252 
 300   0.0000       1.024498        27.8780 
 301   0.0000       1.026097        27.9215 
 302   0.0000       1.031922        28.0800 
 303   0.0000       1.039369        28.2827 
 304   0.0000       1.045751        28.4563 
 305   0.0000       1.056729        28.7551 
 306   0.0000       1.060522        28.8583 
 307   0.0000       1.065276        28.9876 
 308   0.0000       1.076761        29.3002 
 309   0.0000       1.083405        29.4809 
 310   0.0000       1.086860        29.5750 
 311   0.0000       1.097711        29.8702 
 312   0.0000       1.105513        30.0825 
 313   0.0000       1.113296        30.2943 
 314   0.0000       1.122840        30.5540 
 315   0.0000       1.131927        30.8013 
 316   0.0000       1.139649        31.0114 
 317   0.0000       1.142968        31.1017 
[...]
 24:    235.44   0.002532   12.79  0.003356  (-0.050629 -0.020797 -0.018974)
 25:    249.00   0.000481    2.43  0.000603  ( 0.000936  0.020603  0.013345)
 26:    259.27   0.001747    8.83  0.002103  (-0.024069  0.000557  0.039032)
 27:    279.82   0.003253   16.44  0.003628  ( 0.059153  0.002393  0.011092)
 28:    288.72   0.000617    3.12  0.000667  (-0.021264  0.007473  0.012614)
 29:    308.33   0.000499    2.52  0.000505  (-0.017733  0.010226 -0.009291)
 30:    334.69   0.000153    0.77  0.000142  (-0.011448 -0.003262 -0.000780)
 31:    360.68   0.000715    3.62  0.000619  (-0.021680 -0.007691 -0.009476)
 32:    367.72   0.003561   17.99  0.003022  (-0.047934  0.025037 -0.009865)
 33:    405.68   0.000065    0.33  0.000050  (-0.004419  0.005497  0.000797)
 34:    431.72   0.000546    2.76  0.000394  (-0.000602  0.004368 -0.019366)
 35:    468.69   0.000130    0.66  0.000087  (-0.003630 -0.008100 -0.002806)
 36:    473.07   0.000807    4.08  0.000532  (-0.018604 -0.010735  0.008433)
 37:    497.31   0.000310    1.56  0.000194  ( 0.000569  0.012871  0.005316)
 38:    503.94   0.000909    4.59  0.000563  (-0.021589  0.009316  0.003188)
 39:    542.36   0.006277   31.72  0.003612  ( 0.002800 -0.059941 -0.003336)
 40:    561.30   0.000896    4.53  0.000498  (-0.021979  0.002142  0.003243)
 41:    584.39   0.002834   14.32  0.001514  ( 0.022169  0.005061  0.031567)
 42:    620.63   0.004609   23.29  0.002318  (-0.047677  0.005066 -0.004350)
 43:    634.75   0.002370   11.98  0.001165  ( 0.023412  0.024806  0.001388)
 44:    658.00   0.000101    0.51  0.000048  (-0.005065 -0.004706  0.000576)
 45:    695.94   0.013475   68.10  0.006043  ( 0.021466 -0.073831  0.011431)
 46:    710.57   0.007196   36.36  0.003160  ( 0.049431  0.025187  0.009076)
 47:    733.59   0.018948   95.75  0.008060  ( 0.012147  0.085542 -0.024398)
 48:    757.94   0.008449   42.70  0.003479  (-0.057938 -0.005790  0.009407)
 49:    769.16   0.005189   26.22  0.002105  (-0.022744 -0.039698 -0.003461)
 50:    775.33   0.013709   69.28  0.005518  (-0.054624 -0.036909  0.034230)
 51:    785.94   0.001762    8.90  0.000700  ( 0.012185 -0.006284  0.022619)
 52:    797.69   0.001033    5.22  0.000404  (-0.012355 -0.014330 -0.006778)
 53:    801.18   0.012005   60.67  0.004676  ( 0.037610 -0.054971  0.015486)
 54:    810.40   0.005250   26.53  0.002022  ( 0.022864  0.036266  0.013550)
 55:    816.78   0.007228   36.53  0.002762  (-0.023434 -0.004005 -0.046867)
 56:    864.87   0.003723   18.82  0.001343  (-0.026533 -0.021422  0.013436)
 57:    878.24   0.000182    0.92  0.000065  ( 0.004754 -0.002938  0.005797)
 58:    881.39   0.001481    7.48  0.000524  (-0.003429  0.014605 -0.017300)
 59:    890.75   0.000887    4.48  0.000311  ( 0.005119 -0.014630 -0.008388)
 60:    921.05   0.000368    1.86  0.000125  (-0.001958  0.005299 -0.009638)
 61:    959.82   0.002276   11.50  0.000740  ( 0.022323 -0.005439  0.014564)
 62:    963.36   0.000800    4.04  0.000259  (-0.005032 -0.010929  0.010689)
 63:    988.85   0.000073    0.37  0.000023  ( 0.002393 -0.003408  0.002399)
 64:    989.88   0.000602    3.04  0.000190  (-0.011409  0.003367 -0.006945)
 65:   1014.84   0.000028    0.14  0.000008  ( 0.002829  0.000472  0.000510)
 66:   1042.84   0.010130   51.19  0.003031  (-0.024127  0.042404 -0.025517)
 67:   1052.09   0.000145    0.73  0.000043  ( 0.002913 -0.005512  0.002067)
 68:   1056.13   0.001675    8.46  0.000495  (-0.004211 -0.006754  0.020772)
 69:   1063.62   0.000769    3.89  0.000226  (-0.010047  0.001957 -0.010993)
 70:   1076.62   0.013056   65.98  0.003784  ( 0.027825 -0.049087 -0.024509)
 71:   1085.32   0.003402   17.19  0.000978  (-0.006604 -0.012919  0.027704)
 72:   1086.18   0.005799   29.30  0.001666  (-0.009977 -0.015115 -0.036579)
 73:   1127.09   0.004243   21.44  0.001175  ( 0.018298 -0.006994 -0.028124)
 74:   1147.14   0.006347   32.08  0.001727  ( 0.003041 -0.012849 -0.039400)
 75:   1171.00   0.000650    3.29  0.000173  (-0.002599  0.004899  0.011939)
 76:   1171.62   0.000298    1.51  0.000079  ( 0.006077  0.002774 -0.005895)
 77:   1175.15   0.001945    9.83  0.000516  ( 0.001960  0.022049  0.005145)
 78:   1176.27   0.000298    1.51  0.000079  ( 0.005784  0.003171 -0.005967)
 79:   1182.79   0.028064  141.82  0.007404  ( 0.011780  0.030685 -0.079524)
 80:   1197.96   0.004901   24.77  0.001277  (-0.015499  0.008075 -0.031167)
 81:   1203.71   0.054654  276.20  0.014169  ( 0.048032 -0.016505  0.107654)
 82:   1213.62   0.070002  353.76  0.018000  ( 0.003674 -0.009826  0.133754)
 83:   1219.07   0.032101  162.23  0.008217  (-0.039817  0.015020 -0.080040)
 84:   1223.97   0.023587  119.20  0.006014  ( 0.037784  0.035952 -0.057391)
 85:   1235.22   0.005606   28.33  0.001416  (-0.030001 -0.000825 -0.022704)
 86:   1245.04   0.241931  1222.62  0.060639  (-0.052528 -0.084729  0.225169)
 87:   1272.20   0.048742  246.32  0.011956  ( 0.103971 -0.033791  0.002078)
 88:   1294.05   0.030127  152.25  0.007265  (-0.048450  0.066995 -0.020721)
 89:   1305.35   0.201077  1016.16  0.048071  (-0.078283  0.039728 -0.200908)
 90:   1320.46   0.005493   27.76  0.001298  ( 0.002048  0.000194 -0.035970)
 91:   1340.73   0.018466   93.32  0.004298  (-0.044623 -0.014591  0.045760)
 92:   1355.12   0.028555  144.30  0.006576  ( 0.059145 -0.054334 -0.011196)
 93:   1380.04   0.009581   48.42  0.002166  ( 0.012346  0.022901 -0.038595)
 94:   1388.45   0.011462   57.93  0.002576  ( 0.016594 -0.000582 -0.047964)
 95:   1393.10   0.011020   55.69  0.002469  ( 0.046690  0.015087 -0.007812)
 96:   1418.55   0.005105   25.80  0.001123  (-0.027178  0.015687 -0.011758)
 97:   1430.77   0.007683   38.83  0.001676  (-0.004975 -0.035560 -0.019659)
 98:   1463.68   0.012417   62.75  0.002647  (-0.008952  0.019615 -0.046717)
 99:   1465.34   0.004820   24.36  0.001026  (-0.005299 -0.004800 -0.031231)
100:   1466.28   0.002628   13.28  0.000559  (-0.000293  0.020762  0.011317)
101:   1469.67   0.010125   51.17  0.002150  (-0.026626  0.030756 -0.022248)
102:   1470.92   0.007763   39.23  0.001647  ( 0.040071 -0.006389  0.000689)
103:   1474.79   0.002905   14.68  0.000615  ( 0.018307  0.015873 -0.005264)
104:   1483.44   0.004286   21.66  0.000902  (-0.008072  0.002391 -0.028822)
105:   1498.53   0.018342   92.69  0.003820  (-0.018402 -0.006735 -0.058614)
106:   1527.57   0.018149   91.72  0.003708  ( 0.022545 -0.007525 -0.056060)
107:   1535.97   0.026028  131.54  0.005288  (-0.002180  0.006089 -0.072432)
108:   1537.00   0.007830   39.57  0.001590  (-0.023054 -0.007680 -0.031612)
109:   1550.73   0.256075  1294.10  0.051532  ( 0.204472  0.091752  0.036115)
110:   1647.39   0.006347   32.08  0.001202  (-0.001784  0.022736  0.026120)
111:   1647.98   0.000847    4.28  0.000160  (-0.002641  0.000825 -0.012359)
112:   1664.22   0.012372   62.52  0.002320  ( 0.018597 -0.002258  0.044373)
113:   1697.00   0.017085   86.34  0.003142  ( 0.052048  0.018419  0.009671)
114:   1800.61   0.094928  479.73  0.016452  ( 0.072053  0.087356 -0.060243)
115:   3038.15   0.012616   63.76  0.001296  (-0.010509  0.020731  0.027490)
116:   3077.33   0.004944   24.98  0.000501  (-0.015870  0.013798 -0.007687)
117:   3109.85   0.007474   37.77  0.000750  ( 0.020513  0.017359 -0.005280)
118:   3120.70   0.003997   20.20  0.000400  ( 0.010945  0.006524  0.015406)
119:   3147.94   0.001788    9.04  0.000177  ( 0.000499  0.008136 -0.010528)
120:   3165.06   0.002592   13.10  0.000256  (-0.000336 -0.010838 -0.011744)
121:   3167.21   0.003812   19.27  0.000376  ( 0.009452 -0.006137  0.015767)
122:   3193.91   0.000355    1.79  0.000035  ( 0.004345 -0.003923 -0.000656)
123:   3198.85   0.001447    7.31  0.000141  ( 0.010443  0.004158 -0.003843)
124:   3207.91   0.003247   16.41  0.000316  (-0.008844  0.012883 -0.008467)
125:   3221.55   0.002547   12.87  0.000247  ( 0.002449  0.008155  0.013201)
126:   3223.87   0.000027    0.14  0.000003  (-0.001401 -0.000333  0.000762)
127:   3232.37   0.000268    1.35  0.000026  ( 0.002391 -0.003336 -0.003002)
128:   3239.68   0.001058    5.35  0.000102  ( 0.008727  0.001571 -0.004828)
129:   3243.63   0.001109    5.61  0.000107  ( 0.008966  0.001380 -0.004942)
130:   3250.49   0.002021   10.22  0.000194  (-0.001600  0.002688  0.013575)
131:   3271.49   0.002720   13.75  0.000259  (-0.003400 -0.003882 -0.015259)

* The epsilon (eps) is given for a Dirac delta lineshape.
** The dipole moment derivative (T) already includes vibrational overlap.

The first frequency considered to be a vibration is 6
The total number of vibrations considered is 126


--------------------------
THERMOCHEMISTRY AT 298.15K
--------------------------

Temperature         ... 298.15 K
Pressure            ... 1.00 atm
Total Mass          ... 375.34 AMU

Throughout the following assumptions are being made:
  (1) The electronic state is orbitally nondegenerate
  (2) There are no thermally accessible electronically excited states
  (3) Hindered rotations indicated by low frequency modes are not
      treated as such but are treated as vibrations and this may
      cause some error
  (4) All equations used are the standard statistical mechanics
      equations for an ideal gas
  (5) All vibrations are strictly harmonic

freq.       8.96  E(vib)   ...       0.58 
freq.      23.58  E(vib)   ...       0.56 
freq.      24.91  E(vib)   ...       0.56 
freq.      40.56  E(vib)   ...       0.54 
freq.      51.88  E(vib)   ...       0.52 
freq.      54.64  E(vib)   ...       0.52 
freq.      65.05  E(vib)   ...       0.50 
freq.      70.99  E(vib)   ...       0.50 
freq.      77.55  E(vib)   ...       0.49 
freq.      91.54  E(vib)   ...       0.47 
freq.     102.92  E(vib)   ...       0.46 
freq.     113.25  E(vib)   ...       0.45 
freq.     138.28  E(vib)   ...       0.42 
freq.     147.26  E(vib)   ...       0.41 
freq.     164.85  E(vib)   ...       0.39 
freq.     183.17  E(vib)   ...       0.37 
freq.     194.03  E(vib)   ...       0.36 
freq.     228.47  E(vib)   ...       0.32 
freq.     235.44  E(vib)   ...       0.32 
freq.     249.00  E(vib)   ...       0.31 
freq.     259.27  E(vib)   ...       0.30 
freq.     279.82  E(vib)   ...       0.28 
freq.     288.72  E(vib)   ...       0.27 
freq.     308.33  E(vib)   ...       0.26 
freq.     334.69  E(vib)   ...       0.24 
freq.     360.68  E(vib)   ...       0.22 
freq.     367.72  E(vib)   ...       0.21 
freq.     405.68  E(vib)   ...       0.19 
freq.     431.72  E(vib)   ...       0.18 
freq.     468.69  E(vib)   ...       0.16 
freq.     473.07  E(vib)   ...       0.15 
freq.     497.31  E(vib)   ...       0.14 
freq.     503.94  E(vib)   ...       0.14 
freq.     542.36  E(vib)   ...       0.12 
freq.     561.30  E(vib)   ...       0.11 
freq.     584.39  E(vib)   ...       0.11 
freq.     620.63  E(vib)   ...       0.09 
freq.     634.75  E(vib)   ...       0.09 
freq.     658.00  E(vib)   ...       0.08 
freq.     695.94  E(vib)   ...       0.07 
freq.     710.57  E(vib)   ...       0.07 
freq.     733.59  E(vib)   ...       0.06 
freq.     757.94  E(vib)   ...       0.06 
freq.     769.16  E(vib)   ...       0.06 
freq.     775.33  E(vib)   ...       0.05 
freq.     785.94  E(vib)   ...       0.05 
freq.     797.69  E(vib)   ...       0.05 
freq.     801.18  E(vib)   ...       0.05 
freq.     810.40  E(vib)   ...       0.05 
freq.     816.78  E(vib)   ...       0.05 
freq.     864.87  E(vib)   ...       0.04 
freq.     878.24  E(vib)   ...       0.04 
freq.     881.39  E(vib)   ...       0.04 
freq.     890.75  E(vib)   ...       0.04 
freq.     921.05  E(vib)   ...       0.03 
freq.     959.82  E(vib)   ...       0.03 
freq.     963.36  E(vib)   ...       0.03 
freq.     988.85  E(vib)   ...       0.02 
freq.     989.88  E(vib)   ...       0.02 
freq.    1014.84  E(vib)   ...       0.02 
freq.    1042.84  E(vib)   ...       0.02 
freq.    1052.09  E(vib)   ...       0.02 
freq.    1056.13  E(vib)   ...       0.02 
freq.    1063.62  E(vib)   ...       0.02 
freq.    1076.62  E(vib)   ...       0.02 
freq.    1085.32  E(vib)   ...       0.02 
freq.    1086.18  E(vib)   ...       0.02 
freq.    1127.09  E(vib)   ...       0.01 
freq.    1147.14  E(vib)   ...       0.01 
freq.    1171.00  E(vib)   ...       0.01 
freq.    1171.62  E(vib)   ...       0.01 
freq.    1175.15  E(vib)   ...       0.01 
freq.    1176.27  E(vib)   ...       0.01 
freq.    1182.79  E(vib)   ...       0.01 
freq.    1197.96  E(vib)   ...       0.01 
freq.    1203.71  E(vib)   ...       0.01 
freq.    1213.62  E(vib)   ...       0.01 
freq.    1219.07  E(vib)   ...       0.01 
freq.    1223.97  E(vib)   ...       0.01 
freq.    1235.22  E(vib)   ...       0.01 
freq.    1245.04  E(vib)   ...       0.01 
freq.    1272.20  E(vib)   ...       0.01 
freq.    1294.05  E(vib)   ...       0.01 
freq.    1305.35  E(vib)   ...       0.01 
freq.    1320.46  E(vib)   ...       0.01 
freq.    1340.73  E(vib)   ...       0.01 
freq.    1355.12  E(vib)   ...       0.01 
freq.    1380.04  E(vib)   ...       0.01 
freq.    1388.45  E(vib)   ...       0.00 
freq.    1393.10  E(vib)   ...       0.00 
freq.    1418.55  E(vib)   ...       0.00 
freq.    1430.77  E(vib)   ...       0.00 
freq.    1463.68  E(vib)   ...       0.00 
freq.    1465.34  E(vib)   ...       0.00 
freq.    1466.28  E(vib)   ...       0.00 
freq.    1469.67  E(vib)   ...       0.00 
freq.    1470.92  E(vib)   ...       0.00 
freq.    1474.79  E(vib)   ...       0.00 
freq.    1483.44  E(vib)   ...       0.00 
freq.    1498.53  E(vib)   ...       0.00 
freq.    1527.57  E(vib)   ...       0.00 
freq.    1535.97  E(vib)   ...       0.00 
freq.    1537.00  E(vib)   ...       0.00 
freq.    1550.73  E(vib)   ...       0.00 
freq.    1647.39  E(vib)   ...       0.00 
freq.    1647.98  E(vib)   ...       0.00 
freq.    1664.22  E(vib)   ...       0.00 
freq.    1697.00  E(vib)   ...       0.00 
freq.    1800.61  E(vib)   ...       0.00 
freq.    3038.15  E(vib)   ...       0.00 
freq.    3077.33  E(vib)   ...       0.00 
freq.    3109.85  E(vib)   ...       0.00 
freq.    3120.70  E(vib)   ...       0.00 
freq.    3147.94  E(vib)   ...       0.00 
freq.    3165.06  E(vib)   ...       0.00 
freq.    3167.21  E(vib)   ...       0.00 
freq.    3193.91  E(vib)   ...       0.00 
freq.    3198.85  E(vib)   ...       0.00 
freq.    3207.91  E(vib)   ...       0.00 
freq.    3221.55  E(vib)   ...       0.00 
freq.    3223.87  E(vib)   ...       0.00 
freq.    3232.37  E(vib)   ...       0.00 
freq.    3239.68  E(vib)   ...       0.00 
freq.    3243.63  E(vib)   ...       0.00 
freq.    3250.49  E(vib)   ...       0.00 
freq.    3271.49  E(vib)   ...       0.00 

------------
INNER ENERGY
------------

The inner energy is: U= E(el) + E(ZPE) + E(vib) + E(rot) + E(trans)
    E(el)   - is the total energy from the electronic structure calculation
              = E(kin-el) + E(nuc-el) + E(el-el) + E(nuc-nuc)
    E(ZPE)  - the the zero temperature vibrational energy from the frequency calculation
    E(vib)  - the the finite temperature correction to E(ZPE) due to population
              of excited vibrational states
    E(rot)  - is the rotational thermal energy
    E(trans)- is the translational thermal energy

Summary of contributions to the inner energy U:
Electronic energy                ...  -1347.74589667 Eh
Zero point energy                ...      0.33766394 Eh     211.89 kcal/mol
Thermal vibrational correction   ...      0.02177916 Eh      13.67 kcal/mol
Thermal rotational correction    ...      0.00141627 Eh       0.89 kcal/mol
Thermal translational correction ...      0.00141627 Eh       0.89 kcal/mol
-----------------------------------------------------------------------
Total thermal energy                  -1347.38362103 Eh


Summary of corrections to the electronic energy:
(perhaps to be used in another calculation)
Total thermal correction                  0.02461170 Eh      15.44 kcal/mol
Non-thermal (ZPE) correction              0.33766394 Eh     211.89 kcal/mol
-----------------------------------------------------------------------
Total correction                          0.36227564 Eh     227.33 kcal/mol


--------
ENTHALPY
--------

The enthalpy is H = U + kB*T
                kB is Boltzmann's constant
Total free energy                 ...  -1347.38362103 Eh 
Thermal Enthalpy correction       ...      0.00094421 Eh       0.59 kcal/mol
-----------------------------------------------------------------------
Total Enthalpy                    ...  -1347.38267682 Eh


Note: Only C1 symmetry has been detected, increase convergence thresholds 
      if your molecule has a higher symmetry. Symmetry factor of 1.0 is   
      used for the rotational entropy correction. 
 

Note: Rotational entropy computed according to Herzberg 
Infrared and Raman Spectra, Chapter V,1, Van Nostrand Reinhold, 1945 
Point Group:  C1, Symmetry Number:   1  
Rotational constants in cm-1:     0.007805     0.006896     0.004948 

Vibrational entropy computed according to the QRRHO of S. Grimme
Chem.Eur.J. 2012 18 9955


-------
ENTROPY
-------

The entropy contributions are T*S = T*(S(el)+S(vib)+S(rot)+S(trans))
     S(el)   - electronic entropy
     S(vib)  - vibrational entropy
     S(rot)  - rotational entropy
     S(trans)- translational entropy
The entropies will be listed as multiplied by the temperature to get
units of energy

Electronic entropy                ...      0.00000000 Eh      0.00 kcal/mol
Vibrational entropy               ...      0.04007820 Eh     25.15 kcal/mol
Rotational entropy                ...      0.01665755 Eh     10.45 kcal/mol
Translational entropy             ...      0.02074448 Eh     13.02 kcal/mol
-----------------------------------------------------------------------
Final entropy term                ...      0.07748023 Eh     48.62 kcal/mol

In case the symmetry of your molecule has not been determined correctly
or in case you have a reason to use a different symmetry number we print 
out the resulting rotational entropy values for sn=1,12 :
 --------------------------------------------------------
|  sn= 1 | S(rot)=       0.01665755 Eh     10.45 kcal/mol|
|  sn= 2 | S(rot)=       0.01600310 Eh     10.04 kcal/mol|
|  sn= 3 | S(rot)=       0.01562027 Eh      9.80 kcal/mol|
|  sn= 4 | S(rot)=       0.01534864 Eh      9.63 kcal/mol|
|  sn= 5 | S(rot)=       0.01513795 Eh      9.50 kcal/mol|
|  sn= 6 | S(rot)=       0.01496581 Eh      9.39 kcal/mol|
|  sn= 7 | S(rot)=       0.01482026 Eh      9.30 kcal/mol|
|  sn= 8 | S(rot)=       0.01469419 Eh      9.22 kcal/mol|
|  sn= 9 | S(rot)=       0.01458298 Eh      9.15 kcal/mol|
|  sn=10 | S(rot)=       0.01448350 Eh      9.09 kcal/mol|
|  sn=11 | S(rot)=       0.01439351 Eh      9.03 kcal/mol|
|  sn=12 | S(rot)=       0.01431135 Eh      8.98 kcal/mol|
 --------------------------------------------------------


-------------------
GIBBS FREE ENERGY
-------------------

The Gibbs free energy is G = H - T*S

Total enthalpy                    ...  -1347.38267682 Eh 
Total entropy correction          ...     -0.07748023 Eh    -48.62 kcal/mol
-----------------------------------------------------------------------
Final Gibbs free energy         ...  -1347.46015705 Eh

For completeness - the Gibbs free energy minus the electronic energy
G-E(el)                           ...      0.28573962 Eh    179.30 kcal/mol


Timings for individual modules:

Sum of individual times         ...     7834.812 sec (= 130.580 min)
GTO integral calculation        ...       68.280 sec (=   1.138 min)   0.9 %
SCF iterations                  ...     3179.541 sec (=  52.992 min)  40.6 %
SCF Gradient evaluation         ...      887.012 sec (=  14.784 min)  11.3 %
Geometry relaxation             ...        3.742 sec (=   0.062 min)   0.0 %
Analytical frequency calculation...     3696.237 sec (=  61.604 min)  47.2 %
                             ****ORCA TERMINATED NORMALLY****
TOTAL RUN TIME: 0 days 2 hours 11 minutes 39 seconds 286 msec
