
                                 *****************
                                 * O   R   C   A *
                                 *****************

                                            #,                                       
                                            ###                                      
                                            ####                                     
                                            #####                                    
                                            ######                                   
                                           ########,                                 
                                     ,,################,,,,,                         
                               ,,#################################,,                 
                          ,,##########################################,,             
                       ,#########################################, ''#####,          
                    ,#############################################,,   '####,        
                  ,##################################################,,,,####,       
                ,###########''''           ''''###############################       
              ,#####''   ,,,,##########,,,,          '''####'''          '####       
            ,##' ,,,,###########################,,,                        '##       
           ' ,,###''''                  '''############,,,                           
         ,,##''                                '''############,,,,        ,,,,,,###''
      ,#''                                            '''#######################'''  
     '                                                          ''''####''''         
             ,#######,   #######,   ,#######,      ##                                
            ,#'     '#,  ##    ##  ,#'     '#,    #''#        ######   ,####,        
            ##       ##  ##   ,#'  ##            #'  '#       #        #'  '#        
            ##       ##  #######   ##           ,######,      #####,   #    #        
            '#,     ,#'  ##    ##  '#,     ,#' ,#      #,         ##   #,  ,#        
             '#######'   ##     ##  '#######'  #'      '#     #####' # '####'        



                  #######################################################
                  #                        -***-                        #
                  #          Department of theory and spectroscopy      #
                  #    Directorship and core code : Frank Neese         #
                  #        Max Planck Institute fuer Kohlenforschung    #
                  #                Kaiser Wilhelm Platz 1               #
                  #                 D-45470 Muelheim/Ruhr               #
                  #                      Germany                        #
                  #                                                     #
                  #                  All rights reserved                #
                  #                        -***-                        #
                  #######################################################


                         Program Version 5.0.4 -  RELEASE  -


 With contributions from (in alphabetic order):
   Daniel Aravena         : Magnetic Suceptibility
   Michael Atanasov       : Ab Initio Ligand Field Theory (pilot matlab implementation)
   Alexander A. Auer      : GIAO ZORA, VPT2 properties, NMR spectrum
   Ute Becker             : Parallelization
   Giovanni Bistoni       : ED, misc. LED, open-shell LED, HFLD
   Martin Brehm           : Molecular dynamics
   Dmytro Bykov           : SCF Hessian
   Vijay G. Chilkuri      : MRCI spin determinant printing, contributions to CSF-ICE
   Dipayan Datta          : RHF DLPNO-CCSD density
   Achintya Kumar Dutta   : EOM-CC, STEOM-CC
   Dmitry Ganyushin       : Spin-Orbit,Spin-Spin,Magnetic field MRCI
   Miquel Garcia          : C-PCM and meta-GGA Hessian, CC/C-PCM, Gaussian charge scheme
   Yang Guo               : DLPNO-NEVPT2, F12-NEVPT2, CIM, IAO-localization
   Andreas Hansen         : Spin unrestricted coupled pair/coupled cluster methods
   Benjamin Helmich-Paris : MC-RPA, TRAH-SCF, COSX integrals
   Lee Huntington         : MR-EOM, pCC
   Robert Izsak           : Overlap fitted RIJCOSX, COSX-SCS-MP3, EOM
   Marcus Kettner         : VPT2
   Christian Kollmar      : KDIIS, OOCD, Brueckner-CCSD(T), CCSD density, CASPT2, CASPT2-K
   Simone Kossmann        : Meta GGA functionals, TD-DFT gradient, OOMP2, MP2 Hessian
   Martin Krupicka        : Initial AUTO-CI
   Lucas Lang             : DCDCAS
   Marvin Lechner         : AUTO-CI (C++ implementation), FIC-MRCC
   Dagmar Lenk            : GEPOL surface, SMD
   Dimitrios Liakos       : Extrapolation schemes; Compound Job, initial MDCI parallelization
   Dimitrios Manganas     : Further ROCIS development; embedding schemes
   Dimitrios Pantazis     : SARC Basis sets
   Anastasios Papadopoulos: AUTO-CI, single reference methods and gradients
   Taras Petrenko         : DFT Hessian,TD-DFT gradient, ASA, ECA, R-Raman, ABS, FL, XAS/XES, NRVS
   Peter Pinski           : DLPNO-MP2, DLPNO-MP2 Gradient
   Christoph Reimann      : Effective Core Potentials
   Marius Retegan         : Local ZFS, SOC
   Christoph Riplinger    : Optimizer, TS searches, QM/MM, DLPNO-CCSD(T), (RO)-DLPNO pert. Triples
   Tobias Risthaus        : Range-separated hybrids, TD-DFT gradient, RPA, STAB
   Michael Roemelt        : Original ROCIS implementation
   Masaaki Saitow         : Open-shell DLPNO-CCSD energy and density
   Barbara Sandhoefer     : DKH picture change effects
   Avijit Sen             : IP-ROCIS
   Kantharuban Sivalingam : CASSCF convergence, NEVPT2, FIC-MRCI
   Bernardo de Souza      : ESD, SOC TD-DFT
   Georgi Stoychev        : AutoAux, RI-MP2 NMR, DLPNO-MP2 response
   Willem Van den Heuvel  : Paramagnetic NMR
   Boris Wezisla          : Elementary symmetry handling
   Frank Wennmohs         : Technical directorship


 We gratefully acknowledge several colleagues who have allowed us to
 interface, adapt or use parts of their codes:
   Stefan Grimme, W. Hujo, H. Kruse, P. Pracht,  : VdW corrections, initial TS optimization,
                  C. Bannwarth, S. Ehlert          DFT functionals, gCP, sTDA/sTD-DF
   Ed Valeev, F. Pavosevic, A. Kumar             : LibInt (2-el integral package), F12 methods
   Garnet Chan, S. Sharma, J. Yang, R. Olivares  : DMRG
   Ulf Ekstrom                                   : XCFun DFT Library
   Mihaly Kallay                                 : mrcc  (arbitrary order and MRCC methods)
   Jiri Pittner, Ondrej Demel                    : Mk-CCSD
   Frank Weinhold                                : gennbo (NPA and NBO analysis)
   Christopher J. Cramer and Donald G. Truhlar   : smd solvation model
   Lars Goerigk                                  : TD-DFT with DH, B97 family of functionals
   V. Asgeirsson, H. Jonsson                     : NEB implementation
   FAccTs GmbH                                   : IRC, NEB, NEB-TS, DLPNO-Multilevel, CI-OPT
                                                   MM, QMMM, 2- and 3-layer-ONIOM, Crystal-QMMM,
                                                   LR-CPCM, SF, NACMEs, symmetry and pop. for TD-DFT,
                                                   nearIR, NL-DFT gradient (VV10), updates on ESD,
                                                   ML-optimized integration grids
   S Lehtola, MJT Oliveira, MAL Marques          : LibXC Library
   Liviu Ungur et al                             : ANISO software


 Your calculation uses the libint2 library for the computation of 2-el integrals
 For citations please refer to: http://libint.valeyev.net

 Your ORCA version has been built with support for libXC version: 5.1.0
 For citations please refer to: https://tddft.org/programs/libxc/

 This ORCA versions uses:
   CBLAS   interface :  Fast vector & matrix operations
   LAPACKE interface :  Fast linear algebra routines
   SCALAPACK package :  Parallel linear algebra routines
   Shared memory     :  Shared parallel matrices
   BLAS/LAPACK       :  OpenBLAS 0.3.15  USE64BITINT DYNAMIC_ARCH NO_AFFINITY Haswell SINGLE_THREADED
        Core in use  :  Haswell
   Copyright (c) 2011-2014, The OpenBLAS Project


Your calculation utilizes the atom-pairwise dispersion correction
with the Becke-Johnson damping scheme (D3BJ)
Cite in your paper:
S.Grimme, S.Ehrlich, L.Goerigk, J Comput Chem, (2011), 32, 1456–1465 
S.Grimme, J.Antony, S.Ehrlich and H.Krieg, J.Chem.Phys., 132, (2010), 154104 
   

================================================================================

----- Orbital basis set information -----
Your calculation utilizes the basis: def2-TZVP
   F. Weigend and R. Ahlrichs, Phys. Chem. Chem. Phys. 7, 3297 (2005).

----- AuxJ basis set information -----
Your calculation utilizes the auxiliary basis: def2/J
   F. Weigend, Phys. Chem. Chem. Phys. 8, 1057 (2006).

================================================================================
                                        WARNINGS
                       Please study these warnings very carefully!
================================================================================


WARNING: Geometry Optimization
  ===> : Switching off AutoStart
         For restart on a previous wavefunction, please use MOREAD

INFO   : the flag for use of the SHARK integral package has been found!

================================================================================
                                       INPUT FILE
================================================================================
NAME = IM_N3/IM_N3.inp
|  1> %pal nprocs 24 end
|  2> ! PBE0 D3BJ def2-TZVP TightSCF OPT FREQ TightOpt
|  3> ! CPCM(dmso)
|  4> %scf
|  5> MaxIter 800
|  6> end
|  7> 
|  8> %geom
|  9> MaxIter 800
| 10> MaxStep 0.15
| 11> end
| 12> 
| 13> *xyz 0 1
| 14> C       1.71645000      3.38080300      2.79514200
| 15> C       2.64158600      2.35353700      2.59992600
| 16> C       2.42075000      1.43615500      1.59286000
| 17> N       1.32972500      1.53096400      0.80612700
| 18> C       0.41865200      2.51286000      0.97456300
| 19> C       0.59823500      3.45821500      1.97093000
| 20> C       1.07592100      0.49790600     -0.19919800
| 21> C       0.85654000      1.15024400     -1.55818500
| 22> O       1.02387200      2.32345800     -1.78228900
| 23> O       0.63783000      0.23372600     -2.48046900
| 24> C       0.41372300      0.70176000     -3.80434900
| 25> H       1.87202300      4.11740000      3.58657500
| 26> H       3.09602700      0.60404000      1.38760400
| 27> H      -0.40836500      2.52661300      0.25797900
| 28> H      -0.14442600      4.24801100      2.08974900
| 29> H       2.00831700     -0.07580800     -0.30599600
| 30> H       0.26774000     -0.19167600     -4.42125600
| 31> H       1.27681400      1.27843800     -4.16544800
| 32> H       3.53277400      2.25773100      3.22108400
| 33> C      -1.23907800      0.05285100      0.88178100
| 34> C       0.03352700     -0.51812900      0.34919300
| 35> C      -0.14483800     -1.70859300     -0.57541900
| 36> C      -1.33185600     -1.95767500     -1.25846300
| 37> C      -1.47180400     -3.07575700     -2.08201300
| 38> C      -0.40581200     -3.96005600     -2.22365500
| 39> C       0.79314000     -3.73811600     -1.54417600
| 40> C       0.92407800     -2.61536600     -0.72147400
| 41> O       2.04503500     -2.31830600     -0.02549000
| 42> C       3.14607600     -3.19571800     -0.08474800
| 43> N      -2.02621900      0.87294500      0.18262100
| 44> O      -3.14377200      1.22807300      0.63138400
| 45> H       0.53770500     -0.92288800      1.24200200
| 46> H      -2.16165400     -1.25715500     -1.14852700
| 47> H      -2.41177000     -3.25197900     -2.60978300
| 48> H      -0.50033500     -4.83978900     -2.86538900
| 49> H       1.61773100     -4.44236000     -1.65856500
| 50> H       2.87914300     -4.19925700      0.28533200
| 51> H       3.92103100     -2.76615400      0.56160100
| 52> H       3.53746300     -3.28226600     -1.11169100
| 53> O      -1.59910900      1.33922300     -0.92762500
| 54> H      -0.48536200      1.33358300     -3.83443700
| 55> N      -1.65385200     -0.49111300      2.09360700
| 56> N      -2.71516100     -0.25858600      2.64665500
| 57> N      -3.63319000     -0.17666900      3.31435600
| 58> *
| 59> 
| 60>                          ****END OF INPUT****
================================================================================

                       *****************************
                       * Geometry Optimization Run *
                       *****************************

Geometry optimization settings:
Update method            Update   .... BFGS
Choice of coordinates    CoordSys .... Z-matrix Internals
Initial Hessian          InHess   .... Almoef's Model

Convergence Tolerances:
Energy Change            TolE     ....  1.0000e-06 Eh
Max. Gradient            TolMAXG  ....  1.0000e-04 Eh/bohr
RMS Gradient             TolRMSG  ....  3.0000e-05 Eh/bohr
Max. Displacement        TolMAXD  ....  1.0000e-03 bohr
RMS Displacement         TolRMSD  ....  6.0000e-04 bohr
Strict Convergence                ....  False
------------------------------------------------------------------------------
                        ORCA OPTIMIZATION COORDINATE SETUP
------------------------------------------------------------------------------

The optimization will be done in new redundant internal coordinates
Making redundant internal coordinates   ...  (new redundants) done
Evaluating the initial hessian          ...  (Almloef) done
Evaluating the coordinates              ...  done
Calculating the B-matrix                .... done
Calculating the G-matrix                .... done
Diagonalizing the G-matrix              .... done
Small eigenvalue found = 3.350e-03
Small eigenvalue found = 5.171e-03
Small eigenvalue found = 7.219e-03
Small eigenvalue found = 8.638e-03
Small eigenvalue found = 1.131e-02
Small eigenvalue found = 1.565e-02
Small eigenvalue found = 1.826e-02
The first mode is                       ....   90
The number of degrees of freedom        ....  126

    -----------------------------------------------------------------
                    Redundant Internal Coordinates


    -----------------------------------------------------------------
         Definition                    Initial Value    Approx d2E/dq
    -----------------------------------------------------------------
      1. B(C   1,C   0)                  1.3962         0.610817   
      2. B(C   2,C   1)                  1.3801         0.648055   
      3. B(N   3,C   2)                  1.3484         0.651917   
      4. B(C   4,N   3)                  1.3500         0.648137   
      5. B(C   5,C   4)                  1.3852         0.635984   
      6. B(C   5,C   0)                  1.3913         0.621814   
      7. B(C   6,N   3)                  1.4637         0.426927   
      8. B(C   7,C   6)                  1.5233         0.382849   
      9. B(O   8,C   7)                  1.2061         1.099744   
     10. B(O   9,C   7)                  1.3185         0.727690   
     11. B(C  10,O   9)                  1.4219         0.497626   
     12. B(H  11,C   0)                  1.0923         0.357055   
     13. B(H  12,C   2)                  1.0911         0.358620   
     14. B(H  13,C   4)                  1.0944         0.354369   
     15. B(H  14,C   5)                  1.0906         0.359287   
     16. B(H  15,C   6)                  1.1000         0.347160   
     17. B(H  16,C  10)                  1.0955         0.352901   
     18. B(H  17,C  10)                  1.0990         0.348345   
     19. B(H  18,C   1)                  1.0905         0.359414   
     20. B(C  20,C  19)                  1.4930         0.427890   
     21. B(C  20,C   6)                  1.5555         0.340142   
     22. B(C  21,C  20)                  1.5179         0.390600   
     23. B(C  22,C  21)                  1.3920         0.620273   
     24. B(C  23,C  22)                  1.3957         0.611891   
     25. B(C  24,C  23)                  1.3923         0.619632   
     26. B(C  25,C  24)                  1.3959         0.611482   
     27. B(C  26,C  25)                  1.3981         0.606584   
     28. B(C  26,C  21)                  1.4093         0.582013   
     29. B(O  27,C  26)                  1.3525         0.642314   
     30. B(C  28,O  27)                  1.4091         0.521616   
     31. B(N  29,C  19)                  1.3345         0.686080   
     32. B(O  30,N  29)                  1.2556         0.821304   
     33. B(H  31,C  20)                  1.1023         0.344152   
     34. B(H  32,C  22)                  1.0915         0.358117   
     35. B(H  33,C  23)                  1.0923         0.357063   
     36. B(H  34,C  24)                  1.0930         0.356130   
     37. B(H  35,C  25)                  1.0904         0.359558   
     38. B(H  36,C  28)                  1.1024         0.344055   
     39. B(H  37,C  28)                  1.0967         0.351288   
     40. B(H  38,C  28)                  1.1024         0.344064   
     41. B(O  39,N  29)                  1.2777         0.757182   
     42. B(H  40,C  10)                  1.0993         0.348006   
     43. B(N  41,C  19)                  1.3916         0.556387   
     44. B(N  42,N  41)                  1.2191         0.938869   
     45. B(N  43,N  42)                  1.1381         1.264370   
     46. A(C   1,C   0,H  11)          120.2056         0.351514   
     47. A(C   1,C   0,C   5)          119.3849         0.433130   
     48. A(C   5,C   0,H  11)          120.4093         0.352576   
     49. A(C   0,C   1,H  18)          121.7698         0.351906   
     50. A(C   0,C   1,C   2)          119.0194         0.436365   
     51. A(C   2,C   1,H  18)          119.2108         0.355451   
     52. A(C   1,C   2,H  12)          123.0376         0.355317   
     53. A(N   3,C   2,H  12)          116.3983         0.353481   
     54. A(C   1,C   2,N   3)          120.5633         0.438622   
     55. A(C   2,N   3,C   6)          119.4338         0.404489   
     56. A(C   2,N   3,C   4)          121.6264         0.435755   
     57. A(C   4,N   3,C   6)          118.8174         0.404074   
     58. A(N   3,C   4,H  13)          115.9406         0.352422   
     59. A(C   5,C   4,H  13)          124.0833         0.353472   
     60. A(N   3,C   4,C   5)          119.9098         0.436679   
     61. A(C   0,C   5,C   4)          119.4950         0.436289   
     62. A(C   0,C   5,H  14)          121.5370         0.352948   
     63. A(C   4,C   5,H  14)          118.9679         0.354298   
     64. A(C   7,C   6,C  20)          119.8491         0.359086   
     65. A(N   3,C   6,C  20)          109.5769         0.363552   
     66. A(H  15,C   6,C  20)          105.1642         0.317478   
     67. A(N   3,C   6,H  15)          106.7282         0.327558   
     68. A(N   3,C   6,C   7)          109.6018         0.371002   
     69. A(C   7,C   6,H  15)          104.9997         0.323677   
     70. A(C   6,C   7,O   9)          110.5024         0.407178   
     71. A(C   6,C   7,O   8)          124.2181         0.438351   
     72. A(O   8,C   7,O   9)          124.6954         0.489685   
     73. A(C   7,O   9,C  10)          116.6536         0.423854   
     74. A(O   9,C  10,H  40)          110.0941         0.336113   
     75. A(H  16,C  10,H  17)          110.3381         0.288415   
     76. A(O   9,C  10,H  17)          110.7836         0.336167   
     77. A(O   9,C  10,H  16)          106.0726         0.336895   
     78. A(H  17,C  10,H  40)          109.3730         0.287786   
     79. A(H  16,C  10,H  40)          110.1415         0.288371   
     80. A(C  20,C  19,N  29)          123.4265         0.410970   
     81. A(N  29,C  19,N  41)          121.3753         0.427875   
     82. A(C  20,C  19,N  41)          114.5320         0.396057   
     83. A(C  21,C  20,H  31)          105.0186         0.324280   
     84. A(C  19,C  20,H  31)          103.9665         0.329186   
     85. A(C   6,C  20,H  31)          102.6430         0.317028   
     86. A(C  19,C  20,C  21)          114.6496         0.374780   
     87. A(C   6,C  20,C  21)          112.1036         0.360314   
     88. A(C   6,C  20,C  19)          116.5609         0.365972   
     89. A(C  22,C  21,C  26)          118.7377         0.429197   
     90. A(C  20,C  21,C  26)          118.5962         0.395387   
     91. A(C  20,C  21,C  22)          122.6470         0.399834   
     92. A(C  23,C  22,H  32)          119.8244         0.351795   
     93. A(C  21,C  22,H  32)          118.9488         0.352606   
     94. A(C  21,C  22,C  23)          121.2253         0.433074   
     95. A(C  24,C  23,H  33)          120.4807         0.352368   
     96. A(C  22,C  23,H  33)          120.0420         0.351620   
     97. A(C  22,C  23,C  24)          119.4773         0.432993   
     98. A(C  25,C  24,H  34)          119.2126         0.351425   
     99. A(C  23,C  24,H  34)          120.3136         0.352212   
    100. A(C  23,C  24,C  25)          120.4732         0.432941   
    101. A(C  26,C  25,H  35)          120.6358         0.351516   
    102. A(C  24,C  25,H  35)          119.7217         0.351994   
    103. A(C  24,C  25,C  26)          119.6425         0.431288   
    104. A(C  25,C  26,O  27)          123.8375         0.432273   
    105. A(C  21,C  26,O  27)          115.7205         0.429075   
    106. A(C  21,C  26,C  25)          120.4420         0.427483   
    107. A(C  26,O  27,C  28)          119.2883         0.418016   
    108. A(H  36,C  28,H  38)          109.1002         0.286719   
    109. A(O  27,C  28,H  38)          111.4363         0.338117   
    110. A(H  36,C  28,H  37)          109.2565         0.287651   
    111. A(O  27,C  28,H  37)          106.4659         0.339291   
    112. A(O  27,C  28,H  36)          111.3156         0.338115   
    113. A(H  37,C  28,H  38)          109.2009         0.287652   
    114. A(C  19,N  29,O  30)          120.7675         0.455994   
    115. A(O  30,N  29,O  39)          120.3247         0.461127   
    116. A(C  19,N  29,O  39)          118.8380         0.449303   
    117. A(C  19,N  41,N  42)          125.4479         0.449755   
    118. A(N  41,N  42,N  43)          169.1298         0.519766   
    119. D(C   2,C   1,C   0,C   5)     -0.1511         0.025772   
    120. D(H  18,C   1,C   0,C   5)    179.8169         0.025772   
    121. D(H  18,C   1,C   0,H  11)     -0.0366         0.025772   
    122. D(C   2,C   1,C   0,H  11)    179.9954         0.025772   
    123. D(H  12,C   2,C   1,C   0)   -179.5275         0.029229   
    124. D(H  12,C   2,C   1,H  18)      0.5037         0.029229   
    125. D(N   3,C   2,C   1,H  18)   -179.8138         0.029229   
    126. D(N   3,C   2,C   1,C   0)      0.1550         0.029229   
    127. D(C   4,N   3,C   2,H  12)    179.4415         0.034702   
    128. D(C   6,N   3,C   2,H  12)      3.5127         0.034702   
    129. D(C   4,N   3,C   2,C   1)     -0.2614         0.034702   
    130. D(C   6,N   3,C   2,C   1)   -176.1902         0.034702   
    131. D(C   5,C   4,N   3,C   6)    176.3104         0.034266   
    132. D(C   5,C   4,N   3,C   2)      0.3573         0.034266   
    133. D(H  13,C   4,N   3,C   2)    177.5174         0.034266   
    134. D(H  13,C   4,N   3,C   6)     -6.5295         0.034266   
    135. D(H  14,C   5,C   4,H  13)      2.7415         0.028079   
    136. D(C   0,C   5,C   4,H  13)   -177.2638         0.028079   
    137. D(H  14,C   5,C   0,H  11)      0.0947         0.026765   
    138. D(C   0,C   5,C   4,N   3)     -0.3475         0.028079   
    139. D(H  14,C   5,C   0,C   1)   -179.7585         0.026765   
    140. D(H  14,C   5,C   4,N   3)    179.6578         0.028079   
    141. D(C   4,C   5,C   0,H  11)   -179.8998         0.026765   
    142. D(C   4,C   5,C   0,C   1)      0.2469         0.026765   
    143. D(C  20,C   6,N   3,C   4)    -77.2160         0.015540   
    144. D(C  20,C   6,N   3,C   2)     98.8276         0.015540   
    145. D(H  15,C   6,N   3,C   4)    169.4064         0.015540   
    146. D(C   7,C   6,N   3,C   2)   -127.7479         0.015540   
    147. D(H  15,C   6,N   3,C   2)    -14.5500         0.015540   
    148. D(C   7,C   6,N   3,C   4)     56.2085         0.015540   
    149. D(O   8,C   7,C   6,N   3)      7.8648         0.010927   
    150. D(O   9,C   7,C   6,C  20)    -52.6456         0.010927   
    151. D(O   9,C   7,C   6,H  15)     65.1289         0.010927   
    152. D(O   9,C   7,C   6,N   3)    179.4429         0.010927   
    153. D(O   8,C   7,C   6,C  20)    135.7763         0.010927   
    154. D(O   8,C   7,C   6,H  15)   -106.4492         0.010927   
    155. D(C  10,O   9,C   7,O   8)     -8.5498         0.039962   
    156. D(C  10,O   9,C   7,C   6)    179.9207         0.039962   
    157. D(H  40,C  10,O   9,C   7)    -61.6293         0.019571   
    158. D(H  17,C  10,O   9,C   7)     59.4784         0.019571   
    159. D(H  16,C  10,O   9,C   7)    179.2288         0.019571   
    160. D(H  31,C  20,C  19,N  41)    -22.9870         0.013525   
    161. D(C  21,C  20,C  19,N  41)     91.0877         0.013525   
    162. D(C  21,C  20,C  19,N  29)    -79.6541         0.013525   
    163. D(C   6,C  20,C  19,N  41)   -135.1032         0.013525   
    164. D(C   6,C  20,C  19,N  29)     54.1551         0.013525   
    165. D(H  31,C  20,C   6,H  15)     53.6784         0.009367   
    166. D(H  31,C  20,C   6,C   7)    171.3685         0.009367   
    167. D(H  31,C  20,C   6,N   3)    -60.7085         0.009367   
    168. D(C  21,C  20,C   6,H  15)    -58.5153         0.009367   
    169. D(C  21,C  20,C   6,C   7)     59.1748         0.009367   
    170. D(C  21,C  20,C   6,N   3)   -172.9022         0.009367   
    171. D(C  19,C  20,C   6,H  15)    166.5505         0.009367   
    172. D(H  31,C  20,C  19,N  29)    166.2713         0.013525   
    173. D(C  19,C  20,C   6,N   3)     52.1636         0.009367   
    174. D(C  19,C  20,C   6,C   7)    -75.7594         0.009367   
    175. D(C  26,C  21,C  20,H  31)    -42.6976         0.011349   
    176. D(C  26,C  21,C  20,C  19)   -156.1547         0.011349   
    177. D(C  26,C  21,C  20,C   6)     68.0074         0.011349   
    178. D(C  22,C  21,C  20,H  31)    135.6928         0.011349   
    179. D(C  22,C  21,C  20,C  19)     22.2357         0.011349   
    180. D(C  22,C  21,C  20,C   6)   -113.6022         0.011349   
    181. D(C  23,C  22,C  21,C  20)   -178.7773         0.026624   
    182. D(H  32,C  22,C  21,C  26)   -179.9460         0.026624   
    183. D(H  32,C  22,C  21,C  20)      1.6658         0.026624   
    184. D(C  23,C  22,C  21,C  26)     -0.3891         0.026624   
    185. D(H  33,C  23,C  22,H  32)     -0.3889         0.025868   
    186. D(H  33,C  23,C  22,C  21)   -179.9419         0.025868   
    187. D(C  24,C  23,C  22,H  32)    179.5945         0.025868   
    188. D(C  24,C  23,C  22,C  21)      0.0414         0.025868   
    189. D(H  34,C  24,C  23,H  33)      0.0069         0.026566   
    190. D(H  34,C  24,C  23,C  22)   -179.9764         0.026566   
    191. D(C  25,C  24,C  23,H  33)   -179.6952         0.026566   
    192. D(C  25,C  24,C  23,C  22)      0.3215         0.026566   
    193. D(H  35,C  25,C  24,H  34)     -0.1319         0.025831   
    194. D(H  35,C  25,C  24,C  23)    179.5735         0.025831   
    195. D(C  26,C  25,C  24,H  34)    179.9692         0.025831   
    196. D(C  26,C  25,C  24,C  23)     -0.3255         0.025831   
    197. D(O  27,C  26,C  25,H  35)      0.1145         0.025396   
    198. D(O  27,C  26,C  25,C  24)   -179.9875         0.025396   
    199. D(C  21,C  26,C  25,H  35)   -179.9285         0.025396   
    200. D(C  21,C  26,C  25,C  24)     -0.0305         0.025396   
    201. D(O  27,C  26,C  21,C  22)   -179.6572         0.023280   
    202. D(O  27,C  26,C  21,C  20)     -1.2029         0.023280   
    203. D(C  25,C  26,C  21,C  22)      0.3824         0.023280   
    204. D(C  25,C  26,C  21,C  20)    178.8367         0.023280   
    205. D(C  28,O  27,C  26,C  25)     -1.9489         0.030432   
    206. D(C  28,O  27,C  26,C  21)    178.0923         0.030432   
    207. D(H  38,C  28,O  27,C  26)     61.9986         0.021577   
    208. D(H  37,C  28,O  27,C  26)   -179.0231         0.021577   
    209. D(H  36,C  28,O  27,C  26)    -60.0444         0.021577   
    210. D(O  39,N  29,C  19,N  41)   -179.6443         0.038798   
    211. D(O  39,N  29,C  19,C  20)     -9.5152         0.038798   
    212. D(O  30,N  29,C  19,N  41)      3.3824         0.038798   
    213. D(O  30,N  29,C  19,C  20)    173.5115         0.038798   
    214. D(N  42,N  41,C  19,N  29)     -2.2947         0.022414   
    215. D(N  42,N  41,C  19,C  20)   -173.2463         0.022414   
    216. D(N  43,N  42,N  41,C  19)   -179.6963         0.074444   
    -----------------------------------------------------------------

Number of atoms                         .... 44
Number of degrees of freedom            .... 216

         *************************************************************
         *                GEOMETRY OPTIMIZATION CYCLE   1            *
         *************************************************************
---------------------------------
CARTESIAN COORDINATES (ANGSTROEM)
---------------------------------
  C      1.716450    3.380803    2.795142
  C      2.641586    2.353537    2.599926
  C      2.420750    1.436155    1.592860
  N      1.329725    1.530964    0.806127
  C      0.418652    2.512860    0.974563
  C      0.598235    3.458215    1.970930
  C      1.075921    0.497906   -0.199198
  C      0.856540    1.150244   -1.558185
  O      1.023872    2.323458   -1.782289
  O      0.637830    0.233726   -2.480469
  C      0.413723    0.701760   -3.804349
  H      1.872023    4.117400    3.586575
  H      3.096027    0.604040    1.387604
  H     -0.408365    2.526613    0.257979
  H     -0.144426    4.248011    2.089749
  H      2.008317   -0.075808   -0.305996
  H      0.267740   -0.191676   -4.421256
  H      1.276814    1.278438   -4.165448
  H      3.532774    2.257731    3.221084
  C     -1.239078    0.052851    0.881781
  C      0.033527   -0.518129    0.349193
  C     -0.144838   -1.708593   -0.575419
  C     -1.331856   -1.957675   -1.258463
  C     -1.471804   -3.075757   -2.082013
  C     -0.405812   -3.960056   -2.223655
  C      0.793140   -3.738116   -1.544176
  C      0.924078   -2.615366   -0.721474
  O      2.045035   -2.318306   -0.025490
  C      3.146076   -3.195718   -0.084748
  N     -2.026219    0.872945    0.182621
  O     -3.143772    1.228073    0.631384
  H      0.537705   -0.922888    1.242002
  H     -2.161654   -1.257155   -1.148527
  H     -2.411770   -3.251979   -2.609783
  H     -0.500335   -4.839789   -2.865389
  H      1.617731   -4.442360   -1.658565
  H      2.879143   -4.199257    0.285332
  H      3.921031   -2.766154    0.561601
  H      3.537463   -3.282266   -1.111691
  O     -1.599109    1.339223   -0.927625
  H     -0.485362    1.333583   -3.834437
  N     -1.653852   -0.491113    2.093607
  N     -2.715161   -0.258586    2.646655
  N     -3.633190   -0.176669    3.314356

----------------------------
CARTESIAN COORDINATES (A.U.)
----------------------------
  NO LB      ZA    FRAG     MASS         X           Y           Z
   0 C     6.0000    0    12.011    3.243620    6.388792    5.282053
   1 C     6.0000    0    12.011    4.991874    4.447540    4.913148
   2 C     6.0000    0    12.011    4.574555    2.713940    3.010069
   3 N     7.0000    0    14.007    2.512816    2.893103    1.523359
   4 C     6.0000    0    12.011    0.791138    4.748617    1.841657
   5 C     6.0000    0    12.011    1.130500    6.535079    3.724518
   6 C     6.0000    0    12.011    2.033196    0.940906   -0.376430
   7 C     6.0000    0    12.011    1.618626    2.173646   -2.944543
   8 O     8.0000    0    15.999    1.934838    4.390699   -3.368038
   9 O     8.0000    0    15.999    1.205324    0.441678   -4.687407
  10 C     6.0000    0    12.011    0.781823    1.326134   -7.189178
  11 H     1.0000    0     1.008    3.537611    7.780758    6.777645
  12 H     1.0000    0     1.008    5.850643    1.141470    2.622192
  13 H     1.0000    0     1.008   -0.771698    4.774607    0.487510
  14 H     1.0000    0     1.008   -0.272926    8.027577    3.949053
  15 H     1.0000    0     1.008    3.795169   -0.143256   -0.578249
  16 H     1.0000    0     1.008    0.505955   -0.362215   -8.354963
  17 H     1.0000    0     1.008    2.412829    2.415898   -7.871556
  18 H     1.0000    0     1.008    6.675975    4.266493    6.086967
  19 C     6.0000    0    12.011   -2.341518    0.099874    1.666325
  20 C     6.0000    0    12.011    0.063357   -0.979122    0.659879
  21 C     6.0000    0    12.011   -0.273704   -3.228773   -1.087384
  22 C     6.0000    0    12.011   -2.516843   -3.699470   -2.378150
  23 C     6.0000    0    12.011   -2.781306   -5.812338   -3.934434
  24 C     6.0000    0    12.011   -0.766874   -7.483421   -4.202099
  25 C     6.0000    0    12.011    1.498817   -7.064015   -2.918070
  26 C     6.0000    0    12.011    1.746254   -4.942325   -1.363388
  27 O     8.0000    0    15.999    3.864556   -4.380963   -0.048169
  28 C     6.0000    0    12.011    5.945222   -6.039032   -0.160151
  29 N     7.0000    0    14.007   -3.828999    1.649627    0.345104
  30 O     8.0000    0    15.999   -5.940868    2.320722    1.193143
  31 H     1.0000    0     1.008    1.016115   -1.744006    2.347044
  32 H     1.0000    0     1.008   -4.084934   -2.375679   -2.170401
  33 H     1.0000    0     1.008   -4.557585   -6.145350   -4.931775
  34 H     1.0000    0     1.008   -0.945496   -9.145876   -5.414800
  35 H     1.0000    0     1.008    3.057069   -8.394844   -3.134234
  36 H     1.0000    0     1.008    5.440792   -7.935446    0.539199
  37 H     1.0000    0     1.008    7.409675   -5.227274    1.061272
  38 H     1.0000    0     1.008    6.684836   -6.202584   -2.100792
  39 O     8.0000    0    15.999   -3.021878    2.530765   -1.752957
  40 H     1.0000    0     1.008   -0.917201    2.520107   -7.246036
  41 N     7.0000    0    14.007   -3.125327   -0.928069    3.956344
  42 N     7.0000    0    14.007   -5.130911   -0.488657    5.001453
  43 N     7.0000    0    14.007   -6.865734   -0.333856    6.263225

--------------------------------
INTERNAL COORDINATES (ANGSTROEM)
--------------------------------
 C      0   0   0     0.000000000000     0.00000000     0.00000000
 C      1   0   0     1.396159496586     0.00000000     0.00000000
 C      2   1   0     1.380050796593   119.01939078     0.00000000
 N      3   2   1     1.348433576560   120.56333982     0.15504971
 C      4   3   2     1.350016463693   121.62638657   359.73858117
 C      5   4   3     1.385169061380   119.90984557     0.35730027
 C      4   3   2     1.463661045941   119.43378123   183.80983243
 C      7   4   3     1.523324835869   109.60183031   232.25211055
 O      8   7   4     1.206090249872   124.21808781     7.86478986
 O      8   7   4     1.318501833552   110.50241917   179.44289770
 C     10   8   7     1.421948672423   116.65362696   179.92071538
 H      1   2   3     1.092311444702   120.20561711   179.99537675
 H      3   2   1     1.091120719943   123.03764796   180.47252651
 H      5   4   3     1.094366891108   115.94059855   177.51735743
 H      6   5   4     1.090614981237   118.96793596   179.65779971
 H      7   4   3     1.099961757252   106.72818609   345.45000470
 H     11  10   8     1.095496768153   106.07259330   179.22878313
 H     11  10   8     1.099034156779   110.78358208    59.47836528
 H      2   1   3     1.090519189168   121.76979675   179.96801204
 C      7   4   3     2.593416650187    89.40510344   122.82584051
 C     20   7   4     1.493047763526    32.44525117   228.08623195
 C     21  20   7     1.517868887310   114.64960298   226.19086760
 C     22  21  20     1.391977974317   122.64700222    22.23573358
 C     23  22  21     1.395681698643   121.22533053   181.22269149
 C     24  23  22     1.392259358607   119.47734918     0.04143250
 C     25  24  23     1.395863522464   120.47321347     0.32147743
 C     26  25  24     1.398052539481   119.64246600   359.67451639
 O     27  26  25     1.352472908307   123.83749374   180.01248782
 C     28  27  26     1.409132574313   119.28832228   358.05114100
 N     20   7   4     1.334529815447   101.69359676    91.78472461
 O     30  20   7     1.255559171988   120.76750586   199.87731718
 H     21  20   7     1.102330809805   103.96650808   112.11622878
 H     23  22  21     1.091503053271   118.94881093     1.66581427
 H     24  23  22     1.092305565005   120.04195434   180.05805608
 H     25  24  23     1.093017509271   120.31355582   180.02358725
 H     26  25  24     1.090410368686   119.72168622   179.57346068
 H     29  28  27     1.102407799959   111.31560810   299.95556849
 H     29  28  27     1.096744050324   106.46588226   180.97694775
 H     29  28  27     1.102400229192   111.43629691    61.99857275
 O     30  20   7     1.277687092327   118.83803993    16.85063553
 H     11  10   8     1.099299517101   110.09406738   298.37073781
 N     20   7   4     1.391566225031   134.11694567   291.51911031
 N     42  20   7     1.219142194132   125.44785160   154.91975190
 N     43  42  20     1.138117860826   169.12981184   180.30365437

---------------------------
INTERNAL COORDINATES (A.U.)
---------------------------
 C      0   0   0     0.000000000000     0.00000000     0.00000000
 C      1   0   0     2.638359087821     0.00000000     0.00000000
 C      2   1   0     2.607918056460   119.01939078     0.00000000
 N      3   2   1     2.548170169483   120.56333982     0.15504971
 C      4   3   2     2.551161392664   121.62638657   359.73858117
 C      5   4   3     2.617590175188   119.90984557     0.35730027
 C      4   3   2     2.765918529717   119.43378123   183.80983243
 C      7   4   3     2.878666752792   109.60183031   232.25211055
 O      8   7   4     2.279180265050   124.21808781     7.86478986
 O      8   7   4     2.491607372486   110.50241917   179.44289770
 C     10   8   7     2.687093567372   116.65362696   179.92071538
 H      1   2   3     2.064169483435   120.20561711   179.99537675
 H      3   2   1     2.061919339740   123.03764796   180.47252651
 H      5   4   3     2.068053714225   115.94059855   177.51735743
 H      6   5   4     2.060963632089   118.96793596   179.65779971
 H      7   4   3     2.078626478992   106.72818609   345.45000470
 H     11  10   8     2.070188872405   106.07259330   179.22878313
 H     11  10   8     2.076873568137   110.78358208    59.47836528
 H      2   1   3     2.060782611314   121.76979675   179.96801204
 C      7   4   3     4.900847220005    89.40510344   122.82584051
 C     20   7   4     2.821451377927    32.44525117   228.08623195
 C     21  20   7     2.868356504216   114.64960298   226.19086760
 C     22  21  20     2.630457155910   122.64700222    22.23573358
 C     23  22  21     2.637456180562   121.22533053   181.22269149
 C     24  23  22     2.630988895156   119.47734918     0.04143250
 C     25  24  23     2.637799777787   120.47321347     0.32147743
 C     26  25  24     2.641936420451   119.64246600   359.67451639
 O     27  26  25     2.555803400249   123.83749374   180.01248782
 C     28  27  26     2.662874651838   119.28832228   358.05114100
 N     20   7   4     2.521895868747   101.69359676    91.78472461
 O     30  20   7     2.372662979989   120.76750586   199.87731718
 H     21  20   7     2.083103339516   103.96650808   112.11622878
 H     23  22  21     2.062641845021   118.94881093     1.66581427
 H     24  23  22     2.064158372417   120.04195434   180.05805608
 H     25  24  23     2.065503752104   120.31355582   180.02358725
 H     26  25  24     2.060576970405   119.72168622   179.57346068
 H     29  28  27     2.083248829821   111.31560810   299.95556849
 H     29  28  27     2.072545894121   106.46588226   180.97694775
 H     29  28  27     2.083234523144   111.43629691    61.99857275
 O     30  20   7     2.414478689345   118.83803993    16.85063553
 H     11  10   8     2.077375026472   110.09406738   298.37073781
 N     20   7   4     2.629679062524   134.11694567   291.51911031
 N     42  20   7     2.303844865218   125.44785160   154.91975190
 N     43  42  20     2.150731065085   169.12981184   180.30365437

---------------------
BASIS SET INFORMATION
---------------------
There are 4 groups of distinct atoms

 Group   1 Type C   : 11s6p2d1f contracted to 5s3p2d1f pattern {62111/411/11/1}
 Group   2 Type N   : 11s6p2d1f contracted to 5s3p2d1f pattern {62111/411/11/1}
 Group   3 Type O   : 11s6p2d1f contracted to 5s3p2d1f pattern {62111/411/11/1}
 Group   4 Type H   : 5s1p contracted to 3s1p pattern {311/1}

Atom   0C    basis set group =>   1
Atom   1C    basis set group =>   1
Atom   2C    basis set group =>   1
Atom   3N    basis set group =>   2
Atom   4C    basis set group =>   1
Atom   5C    basis set group =>   1
Atom   6C    basis set group =>   1
Atom   7C    basis set group =>   1
Atom   8O    basis set group =>   3
Atom   9O    basis set group =>   3
Atom  10C    basis set group =>   1
Atom  11H    basis set group =>   4
Atom  12H    basis set group =>   4
Atom  13H    basis set group =>   4
Atom  14H    basis set group =>   4
Atom  15H    basis set group =>   4
Atom  16H    basis set group =>   4
Atom  17H    basis set group =>   4
Atom  18H    basis set group =>   4
Atom  19C    basis set group =>   1
Atom  20C    basis set group =>   1
Atom  21C    basis set group =>   1
Atom  22C    basis set group =>   1
Atom  23C    basis set group =>   1
Atom  24C    basis set group =>   1
Atom  25C    basis set group =>   1
Atom  26C    basis set group =>   1
Atom  27O    basis set group =>   3
Atom  28C    basis set group =>   1
Atom  29N    basis set group =>   2
Atom  30O    basis set group =>   3
Atom  31H    basis set group =>   4
Atom  32H    basis set group =>   4
Atom  33H    basis set group =>   4
Atom  34H    basis set group =>   4
Atom  35H    basis set group =>   4
Atom  36H    basis set group =>   4
Atom  37H    basis set group =>   4
Atom  38H    basis set group =>   4
Atom  39O    basis set group =>   3
Atom  40H    basis set group =>   4
Atom  41N    basis set group =>   2
Atom  42N    basis set group =>   2
Atom  43N    basis set group =>   2
---------------------------------
AUXILIARY/J BASIS SET INFORMATION
---------------------------------
There are 4 groups of distinct atoms

 Group   1 Type C   : 12s5p4d2f1g contracted to 6s4p3d1f1g pattern {711111/2111/211/2/1}
 Group   2 Type N   : 12s5p4d2f1g contracted to 6s4p3d1f1g pattern {711111/2111/211/2/1}
 Group   3 Type O   : 12s5p4d2f1g contracted to 6s4p3d1f1g pattern {711111/2111/211/2/1}
 Group   4 Type H   : 5s2p1d contracted to 3s1p1d pattern {311/2/1}

Atom   0C    basis set group =>   1
Atom   1C    basis set group =>   1
Atom   2C    basis set group =>   1
Atom   3N    basis set group =>   2
Atom   4C    basis set group =>   1
Atom   5C    basis set group =>   1
Atom   6C    basis set group =>   1
Atom   7C    basis set group =>   1
Atom   8O    basis set group =>   3
Atom   9O    basis set group =>   3
Atom  10C    basis set group =>   1
Atom  11H    basis set group =>   4
Atom  12H    basis set group =>   4
Atom  13H    basis set group =>   4
Atom  14H    basis set group =>   4
Atom  15H    basis set group =>   4
Atom  16H    basis set group =>   4
Atom  17H    basis set group =>   4
Atom  18H    basis set group =>   4
Atom  19C    basis set group =>   1
Atom  20C    basis set group =>   1
Atom  21C    basis set group =>   1
Atom  22C    basis set group =>   1
Atom  23C    basis set group =>   1
Atom  24C    basis set group =>   1
Atom  25C    basis set group =>   1
Atom  26C    basis set group =>   1
Atom  27O    basis set group =>   3
Atom  28C    basis set group =>   1
Atom  29N    basis set group =>   2
Atom  30O    basis set group =>   3
Atom  31H    basis set group =>   4
Atom  32H    basis set group =>   4
Atom  33H    basis set group =>   4
Atom  34H    basis set group =>   4
Atom  35H    basis set group =>   4
Atom  36H    basis set group =>   4
Atom  37H    basis set group =>   4
Atom  38H    basis set group =>   4
Atom  39O    basis set group =>   3
Atom  40H    basis set group =>   4
Atom  41N    basis set group =>   2
Atom  42N    basis set group =>   2
Atom  43N    basis set group =>   2


           ************************************************************
           *        Program running with 24 parallel MPI-processes    *
           *              working on a common directory               *
           ************************************************************
------------------------------------------------------------------------------
                           ORCA GTO INTEGRAL CALCULATION
                           -- RI-GTO INTEGRALS CHOSEN --
------------------------------------------------------------------------------
------------------------------------------------------------------------------
                   ___                                                        
                  /   \      - P O W E R E D   B Y -                         
                 /     \                                                     
                 |  |  |   _    _      __       _____    __    __             
                 |  |  |  | |  | |    /  \     |  _  \  |  |  /  |          
                  \  \/   | |  | |   /    \    | | | |  |  | /  /          
                 / \  \   | |__| |  /  /\  \   | |_| |  |  |/  /          
                |  |  |   |  __  | /  /__\  \  |    /   |      \           
                |  |  |   | |  | | |   __   |  |    \   |  |\   \          
                \     /   | |  | | |  |  |  |  | |\  \  |  | \   \       
                 \___/    |_|  |_| |__|  |__|  |_| \__\ |__|  \__/        
                                                                              
                      - O R C A' S   B I G   F R I E N D -                    
                                      &                                       
                       - I N T E G R A L  F E E D E R -                       
                                                                              
 v1 FN, 2020, v2 2021                                                         
------------------------------------------------------------------------------


Reading SHARK input file IM_N3/IM_N3.SHARKINP.tmp ... ok
----------------------
SHARK INTEGRAL PACKAGE
----------------------

Number of atoms                             ...     44
Number of basis functions                   ...    939
Number of shells                            ...    365
Maximum angular momentum                    ...      3
Integral batch strategy                     ... SHARK/LIBINT Hybrid
RI-J (if used) integral strategy            ... SPLIT-RIJ (Revised 2003 algorithm where possible)
Printlevel                                  ...      1
Contraction scheme used                     ... SEGMENTED contraction
Coulomb Range Separation                    ... NOT USED
Exchange Range Separation                   ... NOT USED
Finite Nucleus Model                        ... NOT USED
Auxiliary Coulomb fitting basis             ... AVAILABLE
   # of basis functions in Aux-J            ...   1510
   # of shells in Aux-J                     ...    490
   Maximum angular momentum in Aux-J        ...      4
Auxiliary J/K fitting basis                 ... NOT available
Auxiliary Correlation fitting basis         ... NOT available
Auxiliary 'external' fitting basis          ... NOT available
Integral threshold                          ...     2.500000e-11
Primitive cut-off                           ...     2.500000e-12
Primitive pair pre-selection threshold      ...     2.500000e-12

Calculating pre-screening integrals         ... done (  0.1 sec) Dimension = 365
Organizing shell pair data                  ... done (  0.6 sec)
Shell pair information
Total number of shell pairs                 ...     66795
Shell pairs after pre-screening             ...     47142
Total number of primitive shell pairs       ...    207048
Primitive shell pairs kept                  ...     94694
          la=0 lb=0:  11754 shell pairs
          la=1 lb=0:  13505 shell pairs
          la=1 lb=1:   3902 shell pairs
          la=2 lb=0:   6754 shell pairs
          la=2 lb=1:   3987 shell pairs
          la=2 lb=2:   1042 shell pairs
          la=3 lb=0:   3147 shell pairs
          la=3 lb=1:   1886 shell pairs
          la=3 lb=2:    930 shell pairs
          la=3 lb=3:    235 shell pairs

Calculating one electron integrals          ... done (  0.1 sec)
Calculating RI/J V-Matrix + Cholesky decomp.... done (  0.2 sec)
Calculating Nuclear repulsion               ... done (  0.0 sec) ENN=   2648.954061760166 Eh

SHARK setup successfully completed in   1.7 seconds

Maximum memory used throughout the entire GTOINT-calculation: 71.6 MB


           ************************************************************
           *        Program running with 24 parallel MPI-processes    *
           *              working on a common directory               *
           ************************************************************
-------------------------------------------------------------------------------
                                 ORCA SCF
-------------------------------------------------------------------------------

------------
SCF SETTINGS
------------
Hamiltonian:
 Density Functional     Method          .... DFT(GTOs)
 Exchange Functional    Exchange        .... PBE
   PBE kappa parameter   XKappa         ....  0.804000
   PBE mue parameter    XMuePBE         ....  0.219520
 Correlation Functional Correlation     .... PBE
   PBE beta parameter  CBetaPBE         ....  0.066725
 LDA part of GGA corr.  LDAOpt          .... PW91-LDA
 Gradients option       PostSCFGGA      .... off
 Hybrid DFT is turned on
   Fraction HF Exchange ScalHFX         ....  0.250000
   Scaling of DF-GGA-X  ScalDFX         ....  0.750000
   Scaling of DF-GGA-C  ScalDFC         ....  1.000000
   Scaling of DF-LDA-C  ScalLDAC        ....  1.000000
   Perturbative correction              ....  0.000000
   Density functional embedding theory  .... OFF
   NL short-range parameter             ....  6.900000
 RI-approximation to the Coulomb term is turned on
   Number of AuxJ basis functions       .... 1510
   RIJ-COSX (HFX calculated with COS-X)).... on


General Settings:
 Integral files         IntName         .... IM_N3/IM_N3
 Hartree-Fock type      HFTyp           .... RHF
 Total Charge           Charge          ....    0
 Multiplicity           Mult            ....    1
 Number of Electrons    NEL             ....  194
 Basis Dimension        Dim             ....  939
 Nuclear Repulsion      ENuc            ....   2648.9540617602 Eh

Convergence Acceleration:
 DIIS                   CNVDIIS         .... on
   Start iteration      DIISMaxIt       ....    12
   Startup error        DIISStart       ....  0.200000
   # of expansion vecs  DIISMaxEq       ....     5
   Bias factor          DIISBfac        ....   1.050
   Max. coefficient     DIISMaxC        ....  10.000
 Trust-Rad. Augm. Hess. CNVTRAH         .... auto
   Auto Start mean grad. ratio tolernc. ....  1.125000
   Auto Start start iteration           ....    20
   Auto Start num. interpolation iter.  ....    10
   Max. Number of Micro iterations      ....    16
   Max. Number of Macro iterations      .... Maxiter - #DIIS iter
   Number of Davidson start vectors     ....     2
   Converg. threshold I  (grad. norm)   ....   1.000e-05
   Converg. threshold II (energy diff.) ....   1.000e-08
   Grad. Scal. Fac. for Micro threshold ....   0.100
   Minimum threshold for Micro iter.    ....   0.010
   NR start threshold (gradient norm)   ....   0.001
   Initial trust radius                 ....   0.400
   Minimum AH scaling param. (alpha)    ....   1.000
   Maximum AH scaling param. (alpha)    .... 1000.000
   Orbital update algorithm             .... Taylor
   White noise on init. David. guess    .... on
   Maximum white noise                  ....   0.010
   Quad. conv. algorithm                .... NR
 SOSCF                  CNVSOSCF        .... on
   Start iteration      SOSCFMaxIt      ....   150
   Startup grad/error   SOSCFStart      ....  0.003300
 Level Shifting         CNVShift        .... on
   Level shift para.    LevelShift      ....    0.2500
   Turn off err/grad.   ShiftErr        ....    0.0010
 Zerner damping         CNVZerner       .... off
 Static damping         CNVDamp         .... on
   Fraction old density DampFac         ....    0.7000
   Max. Damping (<1)    DampMax         ....    0.9800
   Min. Damping (>=0)   DampMin         ....    0.0000
   Turn off err/grad.   DampErr         ....    0.1000
 Fernandez-Rico         CNVRico         .... off

SCF Procedure:
 Maximum # iterations   MaxIter         ....   800
 SCF integral mode      SCFMode         .... Direct
   Integral package                     .... SHARK and LIBINT hybrid scheme
 Reset frequency        DirectResetFreq ....    20
 Integral Threshold     Thresh          ....  2.500e-11 Eh
 Primitive CutOff       TCut            ....  2.500e-12 Eh

Convergence Tolerance:
 Convergence Check Mode ConvCheckMode   .... Total+1el-Energy
 Convergence forced     ConvForced      .... 0
 Energy Change          TolE            ....  1.000e-08 Eh
 1-El. energy change                    ....  1.000e-05 Eh
 Orbital Gradient       TolG            ....  1.000e-05
 Orbital Rotation angle TolX            ....  1.000e-05
 DIIS Error             TolErr          ....  5.000e-07


Diagonalization of the overlap matrix:
Smallest eigenvalue                        ... 5.949e-06
Time for diagonalization                   ...    0.317 sec
Threshold for overlap eigenvalues          ... 1.000e-08
Number of eigenvalues below threshold      ... 0
Time for construction of square roots      ...    0.161 sec
Total time needed                          ...    0.488 sec

Time for model grid setup =    0.318 sec

------------------------------
INITIAL GUESS: MODEL POTENTIAL
------------------------------
Loading Hartree-Fock densities                     ... done
Calculating cut-offs                               ... done
Initializing the effective Hamiltonian             ... done
Setting up the integral package (SHARK)            ... done
Starting the Coulomb interaction                   ... done (   0.4 sec)
Reading the grid                                   ... done
Mapping shells                                     ... done
Starting the XC term evaluation                    ... done (   0.2 sec)
  promolecular density results
     # of electrons  =    193.991997032
     EX              =   -165.476414217
     EC              =     -6.581979029
     EX+EC           =   -172.058393245
Transforming the Hamiltonian                       ... done (   0.2 sec)
Diagonalizing the Hamiltonian                      ... done (   0.3 sec)
Back transforming the eigenvectors                 ... done (   0.1 sec)
Now organizing SCF variables                       ... done
                      ------------------
                      INITIAL GUESS DONE (   1.7 sec)
                      ------------------
-------------------
DFT GRID GENERATION
-------------------

General Integration Accuracy     IntAcc      ... 4.388
Radial Grid Type                 RadialGrid  ... OptM3 with GC (2021)
Angular Grid (max. ang.)         AngularGrid ... 4 (Lebedev-302)
Angular grid pruning method      GridPruning ... 4 (adaptive)
Weight generation scheme         WeightScheme... Becke
Basis function cutoff            BFCut       ... 1.0000e-11
Integration weight cutoff        WCut        ... 1.0000e-14
Angular grids for H and He will be reduced by one unit
Partially contracted basis set               ... off
Rotationally invariant grid construction     ... off

Total number of grid points                  ...   215276
Total number of batches                      ...     3387
Average number of points per batch           ...       63
Average number of grid points per atom       ...     4893
Time for grid setup =    1.625 sec

--------------------
COSX GRID GENERATION
--------------------

GRIDX 1
-------
General Integration Accuracy     IntAcc      ... 3.816
Radial Grid Type                 RadialGrid  ... OptM3 with GC (2021)
Angular Grid (max. ang.)         AngularGrid ... 1 (Lebedev-50)
Angular grid pruning method      GridPruning ... 4 (adaptive)
Weight generation scheme         WeightScheme... Becke
Basis function cutoff            BFCut       ... 1.0000e-11
Integration weight cutoff        WCut        ... 1.0000e-14
Angular grids for H and He will be reduced by one unit
Partially contracted basis set               ... on
Rotationally invariant grid construction     ... off

Total number of grid points                  ...    27229
Total number of batches                      ...      448
Average number of points per batch           ...       60
Average number of grid points per atom       ...      619
UseSFitting                                  ... on

GRIDX 2
-------
General Integration Accuracy     IntAcc      ... 4.020
Radial Grid Type                 RadialGrid  ... OptM3 with GC (2021)
Angular Grid (max. ang.)         AngularGrid ... 2 (Lebedev-110)
Angular grid pruning method      GridPruning ... 4 (adaptive)
Weight generation scheme         WeightScheme... Becke
Basis function cutoff            BFCut       ... 1.0000e-11
Integration weight cutoff        WCut        ... 1.0000e-14
Angular grids for H and He will be reduced by one unit
Partially contracted basis set               ... on
Rotationally invariant grid construction     ... off

Total number of grid points                  ...    59567
Total number of batches                      ...      950
Average number of points per batch           ...       62
Average number of grid points per atom       ...     1354
UseSFitting                                  ... on

GRIDX 3
-------
General Integration Accuracy     IntAcc      ... 4.338
Radial Grid Type                 RadialGrid  ... OptM3 with GC (2021)
Angular Grid (max. ang.)         AngularGrid ... 3 (Lebedev-194)
Angular grid pruning method      GridPruning ... 4 (adaptive)
Weight generation scheme         WeightScheme... Becke
Basis function cutoff            BFCut       ... 1.0000e-11
Integration weight cutoff        WCut        ... 1.0000e-14
Angular grids for H and He will be reduced by one unit
Partially contracted basis set               ... on
Rotationally invariant grid construction     ... off

Total number of grid points                  ...   130432
Total number of batches                      ...     2058
Average number of points per batch           ...       63
Average number of grid points per atom       ...     2964
UseSFitting                                  ... on

Time for X-Grid setup             =    2.651 sec


--------------------
CPCM SOLVATION MODEL
--------------------
CPCM parameters:
  Epsilon                                         ...      47.2000
  Refrac                                          ...       1.4790
  Rsolv                                           ...       1.3000
  Surface type                                    ... GAUSSIAN VDW
  Epsilon function type                           ...         CPCM
Radii:
 Radius for C  used is    3.8550 Bohr (=   2.0400 Ang.)
 Radius for N  used is    3.5149 Bohr (=   1.8600 Ang.)
 Radius for O  used is    3.4469 Bohr (=   1.8240 Ang.)
 Radius for H  used is    2.4944 Bohr (=   1.3200 Ang.)
Calculating surface                               ...        done! (  0.0s)
GEPOL surface points                              ...         2222
GEPOL Volume                                      ...    2756.1775
GEPOL Surface-area                                ...    1364.0234
Calculating surface distance matrix               ...        done! (  0.1s)
Performing Cholesky decomposition & store         ...        done! (  0.3s)
Overall time for CPCM initialization              ...                 0.4s
--------------
SCF ITERATIONS
--------------
ITER       Energy         Delta-E        Max-DP      RMS-DP      [F,P]     Damp
               ***  Starting incremental Fock matrix formation  ***
  0  -1306.2241683467   0.000000000000 0.23572335  0.00096448  0.2755663 0.7000
  1  -1306.4735476524  -0.249379305683 0.19877062  0.00090191  0.1136406 0.7000
                               ***Turning on DIIS***
  2  -1306.5721839611  -0.098636308687 0.28466890  0.00163612  0.0313238 0.0000
  3  -1306.7377277446  -0.165543783545 0.19988921  0.00072191  0.0568230 0.0000
  4  -1306.7664768734  -0.028749128789 0.04757352  0.00026238  0.0178452 0.0000
  5  -1306.7685710414  -0.002094167998 0.03317179  0.00008944  0.0046936 0.0000
                      *** Initiating the SOSCF procedure ***
                           *** Shutting down DIIS ***
                      *** Re-Reading the Fockian *** 
                      *** Removing any level shift *** 
ITER      Energy       Delta-E        Grad      Rot      Max-DP    RMS-DP
  6  -1306.76870098  -0.0001299356  0.000468  0.000468  0.007793  0.000027
               *** Restarting incremental Fock matrix formation ***
  7  -1306.76866978   0.0000311959  0.000227  0.000913  0.001962  0.000022
  8  -1306.76866352   0.0000062616  0.000861  0.000883  0.001409  0.000007
  9  -1306.76867397  -0.0000104528  0.000083  0.000171  0.001197  0.000006
 10  -1306.76867332   0.0000006524  0.000110  0.000137  0.000983  0.000003
 11  -1306.76867430  -0.0000009780  0.000012  0.000059  0.000340  0.000002
 12  -1306.76867429   0.0000000119  0.000022  0.000047  0.000136  0.000001
                  ***Gradient check signals convergence***
              ***Rediagonalizing the Fockian in SOSCF/NRSCF***

               *****************************************************
               *                     SUCCESS                       *
               *           SCF CONVERGED AFTER  13 CYCLES          *
               *****************************************************

Old exchange energy                            =    -42.058155454 Eh
New exchange energy                            =    -42.058155296 Eh
Exchange energy change after final integration =      0.000000158 Eh
Total energy after final integration           =  -1306.768674154 Eh
Final COS-X integration done in                =    17.402 sec

----------------
TOTAL SCF ENERGY
----------------

Total Energy       :        -1306.76867415 Eh          -35558.98341 eV

Components:
Nuclear Repulsion  :         2648.95406176 Eh           72081.70458 eV
Electronic Energy  :        -3955.72273591 Eh         -107640.68799 eV
One Electron Energy:        -7051.02669222 Eh         -191868.19069 eV
Two Electron Energy:         3095.30395630 Eh           84227.50269 eV
Max COSX asymmetry :            0.00000252 Eh               0.00007 eV
CPCM Dielectric    :           -0.06347542 Eh              -1.72725 eV

Virial components:
Potential Energy   :        -2607.47931492 Eh          -70953.11935 eV
Kinetic Energy     :         1300.71064077 Eh           35394.13594 eV
Virial Ratio       :            2.00465748


DFT components:
N(Alpha)           :       96.999907379520 electrons
N(Beta)            :       96.999907379520 electrons
N(Total)           :      193.999814759041 electrons
E(X)               :     -126.061041215766 Eh       
E(C)               :       -6.577841282166 Eh       
E(XC)              :     -132.638882497932 Eh       
DFET-embed. en.    :        0.000000000000 Eh       
CPCM Solvation Model Properties:
Surface-charge          :           -0.02978450
Charge-correction       :           -0.00034491 Eh              -0.00939 eV
Free-energy (cav+disp)  :  This term is not implemented in the current solvation scheme

---------------
SCF CONVERGENCE
---------------

  Last Energy change         ...   -2.5461e-08  Tolerance :   1.0000e-08
  Last MAX-Density change    ...    2.8866e-15  Tolerance :   1.0000e-07
  Last RMS-Density change    ...    1.4375e-17  Tolerance :   5.0000e-09
  Last Orbital Gradient      ...    1.9591e-06  Tolerance :   1.0000e-05
  Last Orbital Rotation      ...    6.9878e-06  Tolerance :   1.0000e-05

             **** THE GBW FILE WAS UPDATED (IM_N3/IM_N3.gbw) ****
             **** DENSITY IM_N3/IM_N3.scfp WAS UPDATED ****
             **** ENERGY FILE WAS UPDATED (IM_N3/IM_N3.en.tmp) ****
             **** THE GBW FILE WAS UPDATED (IM_N3/IM_N3.gbw) ****
             **** DENSITY IM_N3/IM_N3.scfp WAS UPDATED ****
----------------
ORBITAL ENERGIES
----------------

  NO   OCC          E(Eh)            E(eV) 
   0   2.0000     -19.262807      -524.1676 
   1   2.0000     -19.249036      -523.7929 
   2   2.0000     -19.203117      -522.5434 
   3   2.0000     -19.180236      -521.9208 
   4   2.0000     -19.179181      -521.8921 
   5   2.0000     -14.558184      -396.1483 
   6   2.0000     -14.554609      -396.0510 
   7   2.0000     -14.511161      -394.8688 
   8   2.0000     -14.442564      -393.0021 
   9   2.0000     -14.442357      -392.9965 
  10   2.0000     -10.368644      -282.1451 
  11   2.0000     -10.314212      -280.6640 
  12   2.0000     -10.308661      -280.5129 
  13   2.0000     -10.307704      -280.4869 
  14   2.0000     -10.292207      -280.0652 
  15   2.0000     -10.288968      -279.9771 
  16   2.0000     -10.279975      -279.7323 
  17   2.0000     -10.272657      -279.5332 
  18   2.0000     -10.270747      -279.4812 
  19   2.0000     -10.270441      -279.4729 
  20   2.0000     -10.268763      -279.4272 
  21   2.0000     -10.267325      -279.3881 
  22   2.0000     -10.242350      -278.7085 
  23   2.0000     -10.231152      -278.4038 
  24   2.0000     -10.229728      -278.3650 
  25   2.0000     -10.228340      -278.3273 
  26   2.0000     -10.223079      -278.1841 
  27   2.0000      -1.199451       -32.6387 
  28   2.0000      -1.169718       -31.8296 
  29   2.0000      -1.157633       -31.5008 
  30   2.0000      -1.111799       -30.2536 
  31   2.0000      -1.080509       -29.4022 
  32   2.0000      -1.059829       -28.8394 
  33   2.0000      -1.021194       -27.7881 
  34   2.0000      -1.009985       -27.4831 
  35   2.0000      -0.904579       -24.6148 
  36   2.0000      -0.886121       -24.1126 
  37   2.0000      -0.861272       -23.4364 
  38   2.0000      -0.839765       -22.8512 
  39   2.0000      -0.821720       -22.3601 
  40   2.0000      -0.790546       -21.5118 
  41   2.0000      -0.775428       -21.1005 
  42   2.0000      -0.754512       -20.5313 
  43   2.0000      -0.730418       -19.8757 
  44   2.0000      -0.713864       -19.4252 
  45   2.0000      -0.710989       -19.3470 
  46   2.0000      -0.690504       -18.7896 
  47   2.0000      -0.670464       -18.2443 
  48   2.0000      -0.624322       -16.9887 
  49   2.0000      -0.616567       -16.7776 
  50   2.0000      -0.607906       -16.5420 
  51   2.0000      -0.578077       -15.7303 
  52   2.0000      -0.567584       -15.4447 
  53   2.0000      -0.561274       -15.2731 
  54   2.0000      -0.556411       -15.1407 
  55   2.0000      -0.544718       -14.8225 
  56   2.0000      -0.541429       -14.7330 
  57   2.0000      -0.534550       -14.5459 
  58   2.0000      -0.522069       -14.2062 
  59   2.0000      -0.515157       -14.0181 
  60   2.0000      -0.513142       -13.9633 
  61   2.0000      -0.509736       -13.8706 
  62   2.0000      -0.503120       -13.6906 
  63   2.0000      -0.497242       -13.5306 
  64   2.0000      -0.494362       -13.4523 
  65   2.0000      -0.488781       -13.3004 
  66   2.0000      -0.483536       -13.1577 
  67   2.0000      -0.480023       -13.0621 
  68   2.0000      -0.475955       -12.9514 
  69   2.0000      -0.468784       -12.7563 
  70   2.0000      -0.454600       -12.3703 
  71   2.0000      -0.449250       -12.2247 
  72   2.0000      -0.440061       -11.9747 
  73   2.0000      -0.433305       -11.7908 
  74   2.0000      -0.429407       -11.6847 
  75   2.0000      -0.416770       -11.3409 
  76   2.0000      -0.413064       -11.2401 
  77   2.0000      -0.409197       -11.1348 
  78   2.0000      -0.397832       -10.8256 
  79   2.0000      -0.391144       -10.6436 
  80   2.0000      -0.382924       -10.4199 
  81   2.0000      -0.373469       -10.1626 
  82   2.0000      -0.366953        -9.9853 
  83   2.0000      -0.347106        -9.4452 
  84   2.0000      -0.345103        -9.3907 
  85   2.0000      -0.341088        -9.2815 
  86   2.0000      -0.338036        -9.1984 
  87   2.0000      -0.330821        -9.0021 
  88   2.0000      -0.325245        -8.8504 
  89   2.0000      -0.319240        -8.6870 
  90   2.0000      -0.305947        -8.3252 
  91   2.0000      -0.295941        -8.0530 
  92   2.0000      -0.289775        -7.8852 
  93   2.0000      -0.268668        -7.3108 
  94   2.0000      -0.266195        -7.2435 
  95   2.0000      -0.239583        -6.5194 
  96   2.0000      -0.195856        -5.3295 
  97   0.0000      -0.084483        -2.2989 
  98   0.0000      -0.046967        -1.2780 
  99   0.0000      -0.023772        -0.6469 
 100   0.0000      -0.021057        -0.5730 
 101   0.0000      -0.010680        -0.2906 
 102   0.0000       0.001711         0.0466 
 103   0.0000       0.008216         0.2236 
 104   0.0000       0.043499         1.1837 
 105   0.0000       0.057930         1.5763 
 106   0.0000       0.062230         1.6934 
 107   0.0000       0.065039         1.7698 
 108   0.0000       0.070159         1.9091 
 109   0.0000       0.081170         2.2088 
 110   0.0000       0.084014         2.2861 
 111   0.0000       0.090286         2.4568 
 112   0.0000       0.094340         2.5671 
 113   0.0000       0.096796         2.6339 
 114   0.0000       0.102763         2.7963 
 115   0.0000       0.107451         2.9239 
 116   0.0000       0.109688         2.9848 
 117   0.0000       0.117741         3.2039 
 118   0.0000       0.121710         3.3119 
 119   0.0000       0.128272         3.4905 
 120   0.0000       0.128950         3.5089 
 121   0.0000       0.132821         3.6142 
 122   0.0000       0.134400         3.6572 
 123   0.0000       0.142558         3.8792 
 124   0.0000       0.146545         3.9877 
 125   0.0000       0.150631         4.0989 
 126   0.0000       0.154243         4.1972 
 127   0.0000       0.158183         4.3044 
 128   0.0000       0.160644         4.3714 
 129   0.0000       0.170392         4.6366 
 130   0.0000       0.180744         4.9183 
 131   0.0000       0.188987         5.1426 
 132   0.0000       0.196999         5.3606 
 133   0.0000       0.201802         5.4913 
 134   0.0000       0.202467         5.5094 
 135   0.0000       0.210752         5.7349 
 136   0.0000       0.212039         5.7699 
 137   0.0000       0.215005         5.8506 
 138   0.0000       0.216539         5.8923 
 139   0.0000       0.219278         5.9669 
 140   0.0000       0.222724         6.0606 
 141   0.0000       0.226893         6.1741 
 142   0.0000       0.232593         6.3292 
 143   0.0000       0.237202         6.4546 
 144   0.0000       0.237722         6.4687 
 145   0.0000       0.242595         6.6014 
 146   0.0000       0.245244         6.6734 
 147   0.0000       0.249331         6.7846 
 148   0.0000       0.254654         6.9295 
 149   0.0000       0.258745         7.0408 
 150   0.0000       0.259672         7.0660 
 151   0.0000       0.262868         7.1530 
 152   0.0000       0.274034         7.4568 
 153   0.0000       0.278387         7.5753 
 154   0.0000       0.280086         7.6215 
 155   0.0000       0.287587         7.8256 
 156   0.0000       0.289618         7.8809 
 157   0.0000       0.299472         8.1491 
 158   0.0000       0.301591         8.2067 
 159   0.0000       0.303567         8.2605 
 160   0.0000       0.310751         8.4560 
 161   0.0000       0.313003         8.5172 
 162   0.0000       0.317496         8.6395 
 163   0.0000       0.321813         8.7570 
 164   0.0000       0.324067         8.8183 
 165   0.0000       0.326255         8.8778 
 166   0.0000       0.329843         8.9755 
 167   0.0000       0.335640         9.1332 
 168   0.0000       0.336585         9.1589 
 169   0.0000       0.338760         9.2181 
 170   0.0000       0.341533         9.2936 
 171   0.0000       0.350252         9.5308 
 172   0.0000       0.354707         9.6521 
 173   0.0000       0.360723         9.8158 
 174   0.0000       0.366096         9.9620 
 175   0.0000       0.368016        10.0142 
 176   0.0000       0.370216        10.0741 
 177   0.0000       0.376974        10.2580 
 178   0.0000       0.381442        10.3796 
 179   0.0000       0.385691        10.4952 
 180   0.0000       0.387920        10.5558 
 181   0.0000       0.394733        10.7412 
 182   0.0000       0.399820        10.8796 
 183   0.0000       0.401245        10.9184 
 184   0.0000       0.404608        11.0099 
 185   0.0000       0.409667        11.1476 
 186   0.0000       0.412305        11.2194 
 187   0.0000       0.417605        11.3636 
 188   0.0000       0.419050        11.4029 
 189   0.0000       0.420369        11.4388 
 190   0.0000       0.425622        11.5818 
 191   0.0000       0.429320        11.6824 
 192   0.0000       0.431500        11.7417 
 193   0.0000       0.434807        11.8317 
 194   0.0000       0.440801        11.9948 
 195   0.0000       0.444515        12.0959 
 196   0.0000       0.447387        12.1740 
 197   0.0000       0.452163        12.3040 
 198   0.0000       0.456863        12.4319 
 199   0.0000       0.457050        12.4370 
 200   0.0000       0.462784        12.5930 
 201   0.0000       0.465019        12.6538 
 202   0.0000       0.465887        12.6774 
 203   0.0000       0.470153        12.7935 
 204   0.0000       0.473116        12.8741 
 205   0.0000       0.477998        13.0070 
 206   0.0000       0.482370        13.1260 
 207   0.0000       0.484173        13.1750 
 208   0.0000       0.486345        13.2341 
 209   0.0000       0.489901        13.3309 
 210   0.0000       0.492516        13.4021 
 211   0.0000       0.504194        13.7198 
 212   0.0000       0.504917        13.7395 
 213   0.0000       0.509528        13.8650 
 214   0.0000       0.513998        13.9866 
 215   0.0000       0.516160        14.0454 
 216   0.0000       0.521954        14.2031 
 217   0.0000       0.526413        14.3244 
 218   0.0000       0.528421        14.3791 
 219   0.0000       0.534757        14.5515 
 220   0.0000       0.539773        14.6880 
 221   0.0000       0.549835        14.9618 
 222   0.0000       0.550713        14.9857 
 223   0.0000       0.560608        15.2549 
 224   0.0000       0.572339        15.5741 
 225   0.0000       0.575536        15.6611 
 226   0.0000       0.579678        15.7738 
 227   0.0000       0.584707        15.9107 
 228   0.0000       0.593528        16.1507 
 229   0.0000       0.598949        16.2982 
 230   0.0000       0.602151        16.3853 
 231   0.0000       0.603249        16.4152 
 232   0.0000       0.610144        16.6029 
 233   0.0000       0.620097        16.8737 
 234   0.0000       0.623520        16.9668 
 235   0.0000       0.636251        17.3133 
 236   0.0000       0.639472        17.4009 
 237   0.0000       0.643001        17.4969 
 238   0.0000       0.652712        17.7612 
 239   0.0000       0.653450        17.7813 
 240   0.0000       0.659802        17.9541 
 241   0.0000       0.666623        18.1397 
 242   0.0000       0.672925        18.3112 
 243   0.0000       0.677210        18.4278 
 244   0.0000       0.681244        18.5376 
 245   0.0000       0.681970        18.5574 
 246   0.0000       0.682943        18.5838 
 247   0.0000       0.687054        18.6957 
 248   0.0000       0.695797        18.9336 
 249   0.0000       0.705455        19.1964 
 250   0.0000       0.707393        19.2492 
 251   0.0000       0.719711        19.5843 
 252   0.0000       0.721409        19.6305 
 253   0.0000       0.728543        19.8247 
 254   0.0000       0.735865        20.0239 
 255   0.0000       0.739293        20.1172 
 256   0.0000       0.742666        20.2090 
 257   0.0000       0.745769        20.2934 
 258   0.0000       0.752082        20.4652 
 259   0.0000       0.757595        20.6152 
 260   0.0000       0.761986        20.7347 
 261   0.0000       0.770913        20.9776 
 262   0.0000       0.772993        21.0342 
 263   0.0000       0.778031        21.1713 
 264   0.0000       0.783955        21.3325 
 265   0.0000       0.789065        21.4715 
 266   0.0000       0.795591        21.6491 
 267   0.0000       0.802822        21.8459 
 268   0.0000       0.806645        21.9499 
 269   0.0000       0.809846        22.0370 
 270   0.0000       0.822153        22.3719 
 271   0.0000       0.828092        22.5335 
 272   0.0000       0.832676        22.6583 
 273   0.0000       0.837781        22.7972 
 274   0.0000       0.845174        22.9983 
 275   0.0000       0.853193        23.2166 
 276   0.0000       0.855054        23.2672 
 277   0.0000       0.857194        23.3254 
 278   0.0000       0.872838        23.7511 
 279   0.0000       0.874504        23.7965 
 280   0.0000       0.889734        24.2109 
 281   0.0000       0.892818        24.2948 
 282   0.0000       0.895015        24.3546 
 283   0.0000       0.901160        24.5218 
 284   0.0000       0.906422        24.6650 
 285   0.0000       0.913819        24.8663 
 286   0.0000       0.917939        24.9784 
 287   0.0000       0.930278        25.3141 
 288   0.0000       0.939175        25.5563 
 289   0.0000       0.948329        25.8054 
 290   0.0000       0.952563        25.9205 
 291   0.0000       0.957993        26.0683 
 292   0.0000       0.971384        26.4327 
 293   0.0000       0.973926        26.5019 
 294   0.0000       0.975020        26.5316 
 295   0.0000       0.984990        26.8029 
 296   0.0000       0.991471        26.9793 
 297   0.0000       0.998672        27.1753 
 298   0.0000       1.008800        27.4508 
 299   0.0000       1.010733        27.5034 
 300   0.0000       1.014760        27.6130 
 301   0.0000       1.024093        27.8670 
 302   0.0000       1.030588        28.0437 
 303   0.0000       1.031737        28.0750 
 304   0.0000       1.040134        28.3035 
 305   0.0000       1.042261        28.3614 
 306   0.0000       1.057688        28.7812 
 307   0.0000       1.067291        29.0425 
 308   0.0000       1.070055        29.1177 
 309   0.0000       1.071579        29.1592 
 310   0.0000       1.084938        29.5227 
 311   0.0000       1.087325        29.5876 
 312   0.0000       1.088562        29.6213 
 313   0.0000       1.105063        30.0703 
 314   0.0000       1.107151        30.1271 
 315   0.0000       1.112218        30.2650 
 316   0.0000       1.126217        30.6459 
 317   0.0000       1.128792        30.7160 
 318   0.0000       1.137079        30.9415 
 319   0.0000       1.141377        31.0584 
 320   0.0000       1.150300        31.3013 
 321   0.0000       1.154678        31.4204 
 322   0.0000       1.156743        31.4766 
 323   0.0000       1.162272        31.6270 
[...]
 24:    222.18   0.002400   12.13  0.003370  ( 0.055587 -0.008260 -0.014570)
 25:    248.39   0.000544    2.75  0.000684  ( 0.021945  0.013279  0.005074)
 26:    252.94   0.001379    6.97  0.001701  (-0.033590 -0.023885 -0.001618)
 27:    272.80   0.004372   22.09  0.005001  (-0.029392 -0.043945 -0.046971)
 28:    296.40   0.001073    5.42  0.001130  ( 0.022878 -0.006853 -0.023650)
 29:    304.91   0.001163    5.88  0.001191  (-0.030491 -0.014482 -0.007158)
 30:    312.08   0.000039    0.20  0.000039  ( 0.001845 -0.005983 -0.000141)
 31:    363.10   0.006158   31.12  0.005292  ( 0.018620  0.016910 -0.068261)
 32:    370.31   0.003235   16.35  0.002726  ( 0.003596  0.019677  0.048225)
 33:    406.21   0.000960    4.85  0.000738  ( 0.003832 -0.017467  0.020443)
 34:    427.02   0.000363    1.84  0.000265  ( 0.011302 -0.000259  0.011731)
 35:    463.63   0.000071    0.36  0.000048  ( 0.006011  0.003299  0.000788)
 36:    478.39   0.000126    0.64  0.000082  ( 0.006925 -0.004267  0.003978)
 37:    500.61   0.001135    5.74  0.000708  (-0.003169 -0.015275 -0.021545)
 38:    518.57   0.001948    9.84  0.001172  ( 0.013566  0.023725 -0.020617)
 39:    529.00   0.001488    7.52  0.000878  ( 0.012713  0.022209  0.014930)
 40:    553.97   0.006007   30.36  0.003384  ( 0.035670  0.015704 -0.043187)
 41:    576.23   0.007798   39.41  0.004223  ( 0.039153 -0.017071 -0.048977)
 42:    587.78   0.006521   32.95  0.003462  (-0.057663 -0.011698 -0.000537)
 43:    607.30   0.002518   12.73  0.001294  ( 0.018808 -0.017039 -0.025496)
 44:    640.26   0.004290   21.68  0.002091  ( 0.001662  0.037879 -0.025558)
 45:    659.59   0.001430    7.23  0.000677  ( 0.025669  0.002531  0.003375)
 46:    660.83   0.001103    5.58  0.000521  (-0.009504 -0.019289  0.007655)
 47:    679.36   0.002655   13.42  0.001219  ( 0.005695  0.029281 -0.018155)
 48:    711.38   0.028830  145.69  0.012647  ( 0.065143  0.079705 -0.045282)
 49:    729.83   0.011981   60.55  0.005123  ( 0.056493  0.002715 -0.043865)
 50:    742.52   0.003350   16.93  0.001408  ( 0.024597  0.002241  0.028250)
 51:    756.77   0.003543   17.90  0.001461  ( 0.009457  0.016144 -0.033331)
 52:    768.95   0.018458   93.28  0.007491  (-0.027837 -0.047059  0.067093)
 53:    789.62   0.001793    9.06  0.000708  ( 0.016305 -0.017434  0.011776)
 54:    809.33   0.004052   20.48  0.001562  (-0.032494 -0.016270  0.015549)
 55:    816.02   0.023018  116.32  0.008803  ( 0.046721 -0.003521 -0.081286)
 56:    834.46   0.003643   18.41  0.001362  ( 0.019919  0.004867 -0.030691)
 57:    857.52   0.004244   21.45  0.001545  (-0.026441 -0.028091 -0.007510)
 58:    872.16   0.000196    0.99  0.000070  (-0.000131  0.006989 -0.004623)
 59:    890.37   0.000413    2.09  0.000145  (-0.001442 -0.008664  0.008225)
 60:    926.04   0.004152   20.98  0.001399  ( 0.020979 -0.030846  0.002719)
 61:    929.91   0.012406   62.70  0.004163  (-0.054798  0.033351  0.006945)
 62:    957.18   0.000310    1.57  0.000101  (-0.009307  0.000480  0.003768)
 63:    988.14   0.000155    0.78  0.000049  ( 0.003553 -0.004147  0.004381)
 64:    995.01   0.000545    2.75  0.000171  ( 0.003035 -0.004197  0.012003)
 65:   1030.45   0.001377    6.96  0.000417  ( 0.019608 -0.005614 -0.001036)
 66:   1037.97   0.008094   40.90  0.002433  (-0.006071 -0.005059  0.048692)
 67:   1049.76   0.000653    3.30  0.000194  (-0.010493 -0.001727 -0.009004)
 68:   1060.64   0.003831   19.36  0.001127  ( 0.014385  0.017916 -0.024480)
 69:   1070.55   0.012542   63.38  0.003656  (-0.038610  0.042469  0.019015)
 70:   1078.90   0.011830   59.78  0.003422  (-0.039895  0.026541 -0.033552)
 71:   1084.73   0.003189   16.11  0.000917  ( 0.025145  0.011071  0.012749)
 72:   1086.56   0.000875    4.42  0.000251  (-0.003318 -0.012595 -0.009031)
 73:   1122.84   0.032455  164.02  0.009020  ( 0.029225 -0.062670  0.065103)
 74:   1133.01   0.006947   35.11  0.001913  ( 0.005405  0.003717 -0.043248)
 75:   1143.44   0.035069  177.22  0.009571  ( 0.055216 -0.050025  0.063400)
 76:   1168.98   0.000338    1.71  0.000090  ( 0.008716 -0.002522 -0.002798)
 77:   1170.97   0.000094    0.47  0.000025  ( 0.000265  0.002707 -0.004201)
 78:   1173.09   0.001744    8.81  0.000464  (-0.015129  0.014468  0.005073)
 79:   1178.35   0.002210   11.17  0.000585  (-0.023275  0.002460 -0.006125)
 80:   1196.86   0.002267   11.46  0.000591  ( 0.010688 -0.020640  0.007130)
 81:   1207.91   0.001458    7.37  0.000377  ( 0.004928 -0.015831 -0.010094)
 82:   1211.78   0.002050   10.36  0.000528  ( 0.021396 -0.000514  0.008360)
 83:   1229.43   0.002856   14.43  0.000725  ( 0.011373 -0.004411 -0.024002)
 84:   1231.09   0.013178   66.60  0.003340  (-0.030239 -0.025071 -0.042397)
 85:   1248.46   0.026175  132.28  0.006543  (-0.033148  0.073525  0.006176)
 86:   1269.77   0.011506   58.15  0.002828  ( 0.019205 -0.015145 -0.047219)
 87:   1278.42   0.100326  507.01  0.024490  ( 0.069967  0.018801  0.138712)
 88:   1287.01   0.008923   45.09  0.002164  (-0.042686  0.014319 -0.011680)
 89:   1298.75   0.055998  282.99  0.013455  ( 0.112758 -0.008765 -0.025769)
 90:   1315.76   0.016309   82.42  0.003868  (-0.005227 -0.020770 -0.058390)
 91:   1338.33   0.077820  393.27  0.018145  ( 0.095232  0.011561 -0.094566)
 92:   1351.27   0.030118  152.21  0.006956  (-0.033674  0.021490  0.073210)
 93:   1374.74   0.000207    1.05  0.000047  ( 0.004220 -0.005389 -0.000485)
 94:   1386.92   0.008730   44.12  0.001964  (-0.037359  0.015890 -0.017778)
 95:   1396.02   0.006700   33.86  0.001498  (-0.008826 -0.003462  0.037521)
 96:   1419.23   0.018784   94.93  0.004130  (-0.037948 -0.002337 -0.051814)
 97:   1444.99   0.032749  165.50  0.007073  (-0.015887 -0.036025  0.074312)
 98:   1464.66   0.009740   49.22  0.002075  (-0.035667  0.002710 -0.028210)
 99:   1465.18   0.002814   14.22  0.000599  ( 0.023261 -0.002370 -0.007250)
100:   1470.55   0.017244   87.15  0.003659  ( 0.009242 -0.004415  0.059620)
101:   1473.32   0.003137   15.85  0.000665  ( 0.001686  0.024354  0.008280)
102:   1473.69   0.003088   15.60  0.000654  ( 0.007746  0.013257 -0.020448)
103:   1484.29   0.005243   26.50  0.001102  (-0.028327 -0.007740 -0.015491)
104:   1498.29   0.014670   74.14  0.003056  (-0.050324  0.006470 -0.021935)
105:   1527.72   0.018458   93.28  0.003770  ( 0.054534 -0.024414  0.014153)
106:   1533.38   0.023465  118.58  0.004775  ( 0.063081 -0.016154  0.023137)
107:   1534.91   0.022379  113.09  0.004550  ( 0.050827  0.024092  0.037229)
108:   1571.94   0.080244  405.52  0.015930  (-0.061096  0.060113 -0.092649)
109:   1642.73   0.003224   16.29  0.000612  (-0.024512 -0.001769 -0.002908)
110:   1648.80   0.004722   23.86  0.000894  ( 0.025275 -0.014438 -0.006810)
111:   1664.45   0.012228   61.79  0.002293  (-0.044273 -0.005191 -0.017477)
112:   1696.53   0.019329   97.68  0.003555  (-0.012102 -0.038910 -0.043531)
113:   1786.34   0.110769  559.78  0.019351  ( 0.034847  0.134558  0.005521)
114:   2261.63   0.356947  1803.86  0.049252  (-0.155903 -0.006901  0.157793)
115:   3038.62   0.012949   65.44  0.001330  (-0.029530  0.021321  0.001805)
116:   3061.40   0.000529    2.67  0.000054  ( 0.003868  0.001460  0.006071)
117:   3073.08   0.006419   32.44  0.000652  ( 0.001334 -0.006430  0.024672)
118:   3110.61   0.008779   44.37  0.000881  ( 0.005938  0.018495 -0.022437)
119:   3111.09   0.002725   13.77  0.000273  ( 0.008431 -0.014187  0.000995)
120:   3157.76   0.003646   18.43  0.000360  (-0.018651  0.001334  0.003272)
121:   3166.56   0.003704   18.72  0.000365  ( 0.013340  0.008273  0.010894)
122:   3189.56   0.002123   10.73  0.000208  (-0.001586 -0.012811 -0.006413)
123:   3192.73   0.000492    2.49  0.000048  (-0.001954  0.005789  0.003286)
124:   3205.04   0.015540   78.53  0.001513  (-0.028580 -0.017156 -0.020048)
125:   3206.90   0.001944    9.82  0.000189  (-0.005025 -0.009359 -0.008735)
126:   3220.06   0.002575   13.01  0.000250  (-0.014453 -0.002210 -0.005982)
127:   3222.18   0.000078    0.40  0.000008  ( 0.002701 -0.000505  0.000215)
128:   3230.15   0.000468    2.37  0.000045  (-0.003579  0.005408  0.001782)
129:   3238.84   0.000940    4.75  0.000091  ( 0.000352 -0.008170 -0.004864)
130:   3243.45   0.000876    4.43  0.000084  (-0.007871  0.004719  0.000207)
131:   3250.00   0.001105    5.58  0.000106  (-0.008236  0.005534 -0.002757)

* The epsilon (eps) is given for a Dirac delta lineshape.
** The dipole moment derivative (T) already includes vibrational overlap.

The first frequency considered to be a vibration is 6
The total number of vibrations considered is 126


--------------------------
THERMOCHEMISTRY AT 298.15K
--------------------------

Temperature         ... 298.15 K
Pressure            ... 1.00 atm
Total Mass          ... 371.35 AMU

Throughout the following assumptions are being made:
  (1) The electronic state is orbitally nondegenerate
  (2) There are no thermally accessible electronically excited states
  (3) Hindered rotations indicated by low frequency modes are not
      treated as such but are treated as vibrations and this may
      cause some error
  (4) All equations used are the standard statistical mechanics
      equations for an ideal gas
  (5) All vibrations are strictly harmonic

freq.       7.21  E(vib)   ...       0.58 
freq.      25.59  E(vib)   ...       0.56 
freq.      40.36  E(vib)   ...       0.54 
freq.      46.72  E(vib)   ...       0.53 
freq.      57.89  E(vib)   ...       0.51 
freq.      70.01  E(vib)   ...       0.50 
freq.      80.35  E(vib)   ...       0.49 
freq.      87.22  E(vib)   ...       0.48 
freq.      96.03  E(vib)   ...       0.47 
freq.     100.16  E(vib)   ...       0.46 
freq.     110.14  E(vib)   ...       0.45 
freq.     132.30  E(vib)   ...       0.42 
freq.     144.35  E(vib)   ...       0.41 
freq.     163.88  E(vib)   ...       0.39 
freq.     172.67  E(vib)   ...       0.38 
freq.     179.82  E(vib)   ...       0.37 
freq.     191.50  E(vib)   ...       0.36 
freq.     202.53  E(vib)   ...       0.35 
freq.     222.18  E(vib)   ...       0.33 
freq.     248.39  E(vib)   ...       0.31 
freq.     252.94  E(vib)   ...       0.30 
freq.     272.80  E(vib)   ...       0.29 
freq.     296.40  E(vib)   ...       0.27 
freq.     304.91  E(vib)   ...       0.26 
freq.     312.08  E(vib)   ...       0.25 
freq.     363.10  E(vib)   ...       0.22 
freq.     370.31  E(vib)   ...       0.21 
freq.     406.21  E(vib)   ...       0.19 
freq.     427.02  E(vib)   ...       0.18 
freq.     463.63  E(vib)   ...       0.16 
freq.     478.39  E(vib)   ...       0.15 
freq.     500.61  E(vib)   ...       0.14 
freq.     518.57  E(vib)   ...       0.13 
freq.     529.00  E(vib)   ...       0.13 
freq.     553.97  E(vib)   ...       0.12 
freq.     576.23  E(vib)   ...       0.11 
freq.     587.78  E(vib)   ...       0.10 
freq.     607.30  E(vib)   ...       0.10 
freq.     640.26  E(vib)   ...       0.09 
freq.     659.59  E(vib)   ...       0.08 
freq.     660.83  E(vib)   ...       0.08 
freq.     679.36  E(vib)   ...       0.08 
freq.     711.38  E(vib)   ...       0.07 
freq.     729.83  E(vib)   ...       0.06 
freq.     742.52  E(vib)   ...       0.06 
freq.     756.77  E(vib)   ...       0.06 
freq.     768.95  E(vib)   ...       0.06 
freq.     789.62  E(vib)   ...       0.05 
freq.     809.33  E(vib)   ...       0.05 
freq.     816.02  E(vib)   ...       0.05 
freq.     834.46  E(vib)   ...       0.04 
freq.     857.52  E(vib)   ...       0.04 
freq.     872.16  E(vib)   ...       0.04 
freq.     890.37  E(vib)   ...       0.04 
freq.     926.04  E(vib)   ...       0.03 
freq.     929.91  E(vib)   ...       0.03 
freq.     957.18  E(vib)   ...       0.03 
freq.     988.14  E(vib)   ...       0.02 
freq.     995.01  E(vib)   ...       0.02 
freq.    1030.45  E(vib)   ...       0.02 
freq.    1037.97  E(vib)   ...       0.02 
freq.    1049.76  E(vib)   ...       0.02 
freq.    1060.64  E(vib)   ...       0.02 
freq.    1070.55  E(vib)   ...       0.02 
freq.    1078.90  E(vib)   ...       0.02 
freq.    1084.73  E(vib)   ...       0.02 
freq.    1086.56  E(vib)   ...       0.02 
freq.    1122.84  E(vib)   ...       0.01 
freq.    1133.01  E(vib)   ...       0.01 
freq.    1143.44  E(vib)   ...       0.01 
freq.    1168.98  E(vib)   ...       0.01 
freq.    1170.97  E(vib)   ...       0.01 
freq.    1173.09  E(vib)   ...       0.01 
freq.    1178.35  E(vib)   ...       0.01 
freq.    1196.86  E(vib)   ...       0.01 
freq.    1207.91  E(vib)   ...       0.01 
freq.    1211.78  E(vib)   ...       0.01 
freq.    1229.43  E(vib)   ...       0.01 
freq.    1231.09  E(vib)   ...       0.01 
freq.    1248.46  E(vib)   ...       0.01 
freq.    1269.77  E(vib)   ...       0.01 
freq.    1278.42  E(vib)   ...       0.01 
freq.    1287.01  E(vib)   ...       0.01 
freq.    1298.75  E(vib)   ...       0.01 
freq.    1315.76  E(vib)   ...       0.01 
freq.    1338.33  E(vib)   ...       0.01 
freq.    1351.27  E(vib)   ...       0.01 
freq.    1374.74  E(vib)   ...       0.01 
freq.    1386.92  E(vib)   ...       0.00 
freq.    1396.02  E(vib)   ...       0.00 
freq.    1419.23  E(vib)   ...       0.00 
freq.    1444.99  E(vib)   ...       0.00 
freq.    1464.66  E(vib)   ...       0.00 
freq.    1465.18  E(vib)   ...       0.00 
freq.    1470.55  E(vib)   ...       0.00 
freq.    1473.32  E(vib)   ...       0.00 
freq.    1473.69  E(vib)   ...       0.00 
freq.    1484.29  E(vib)   ...       0.00 
freq.    1498.29  E(vib)   ...       0.00 
freq.    1527.72  E(vib)   ...       0.00 
freq.    1533.38  E(vib)   ...       0.00 
freq.    1534.91  E(vib)   ...       0.00 
freq.    1571.94  E(vib)   ...       0.00 
freq.    1642.73  E(vib)   ...       0.00 
freq.    1648.80  E(vib)   ...       0.00 
freq.    1664.45  E(vib)   ...       0.00 
freq.    1696.53  E(vib)   ...       0.00 
freq.    1786.34  E(vib)   ...       0.00 
freq.    2261.63  E(vib)   ...       0.00 
freq.    3038.62  E(vib)   ...       0.00 
freq.    3061.40  E(vib)   ...       0.00 
freq.    3073.08  E(vib)   ...       0.00 
freq.    3110.61  E(vib)   ...       0.00 
freq.    3111.09  E(vib)   ...       0.00 
freq.    3157.76  E(vib)   ...       0.00 
freq.    3166.56  E(vib)   ...       0.00 
freq.    3189.56  E(vib)   ...       0.00 
freq.    3192.73  E(vib)   ...       0.00 
freq.    3205.04  E(vib)   ...       0.00 
freq.    3206.90  E(vib)   ...       0.00 
freq.    3220.06  E(vib)   ...       0.00 
freq.    3222.18  E(vib)   ...       0.00 
freq.    3230.15  E(vib)   ...       0.00 
freq.    3238.84  E(vib)   ...       0.00 
freq.    3243.45  E(vib)   ...       0.00 
freq.    3250.00  E(vib)   ...       0.00 

------------
INNER ENERGY
------------

The inner energy is: U= E(el) + E(ZPE) + E(vib) + E(rot) + E(trans)
    E(el)   - is the total energy from the electronic structure calculation
              = E(kin-el) + E(nuc-el) + E(el-el) + E(nuc-nuc)
    E(ZPE)  - the the zero temperature vibrational energy from the frequency calculation
    E(vib)  - the the finite temperature correction to E(ZPE) due to population
              of excited vibrational states
    E(rot)  - is the rotational thermal energy
    E(trans)- is the translational thermal energy

Summary of contributions to the inner energy U:
Electronic energy                ...  -1306.82837381 Eh
Zero point energy                ...      0.33810112 Eh     212.16 kcal/mol
Thermal vibrational correction   ...      0.02175742 Eh      13.65 kcal/mol
Thermal rotational correction    ...      0.00141627 Eh       0.89 kcal/mol
Thermal translational correction ...      0.00141627 Eh       0.89 kcal/mol
-----------------------------------------------------------------------
Total thermal energy                  -1306.46568273 Eh


Summary of corrections to the electronic energy:
(perhaps to be used in another calculation)
Total thermal correction                  0.02458996 Eh      15.43 kcal/mol
Non-thermal (ZPE) correction              0.33810112 Eh     212.16 kcal/mol
-----------------------------------------------------------------------
Total correction                          0.36269108 Eh     227.59 kcal/mol


--------
ENTHALPY
--------

The enthalpy is H = U + kB*T
                kB is Boltzmann's constant
Total free energy                 ...  -1306.46568273 Eh 
Thermal Enthalpy correction       ...      0.00094421 Eh       0.59 kcal/mol
-----------------------------------------------------------------------
Total Enthalpy                    ...  -1306.46473852 Eh


Note: Only C1 symmetry has been detected, increase convergence thresholds 
      if your molecule has a higher symmetry. Symmetry factor of 1.0 is   
      used for the rotational entropy correction. 
 

Note: Rotational entropy computed according to Herzberg 
Infrared and Raman Spectra, Chapter V,1, Van Nostrand Reinhold, 1945 
Point Group:  C1, Symmetry Number:   1  
Rotational constants in cm-1:     0.008295     0.005933     0.005117 

Vibrational entropy computed according to the QRRHO of S. Grimme
Chem.Eur.J. 2012 18 9955


-------
ENTROPY
-------

The entropy contributions are T*S = T*(S(el)+S(vib)+S(rot)+S(trans))
     S(el)   - electronic entropy
     S(vib)  - vibrational entropy
     S(rot)  - rotational entropy
     S(trans)- translational entropy
The entropies will be listed as multiplied by the temperature to get
units of energy

Electronic entropy                ...      0.00000000 Eh      0.00 kcal/mol
Vibrational entropy               ...      0.03976921 Eh     24.96 kcal/mol
Rotational entropy                ...      0.01668402 Eh     10.47 kcal/mol
Translational entropy             ...      0.02072937 Eh     13.01 kcal/mol
-----------------------------------------------------------------------
Final entropy term                ...      0.07718259 Eh     48.43 kcal/mol

In case the symmetry of your molecule has not been determined correctly
or in case you have a reason to use a different symmetry number we print 
out the resulting rotational entropy values for sn=1,12 :
 --------------------------------------------------------
|  sn= 1 | S(rot)=       0.01668402 Eh     10.47 kcal/mol|
|  sn= 2 | S(rot)=       0.01602956 Eh     10.06 kcal/mol|
|  sn= 3 | S(rot)=       0.01564673 Eh      9.82 kcal/mol|
|  sn= 4 | S(rot)=       0.01537510 Eh      9.65 kcal/mol|
|  sn= 5 | S(rot)=       0.01516442 Eh      9.52 kcal/mol|
|  sn= 6 | S(rot)=       0.01499227 Eh      9.41 kcal/mol|
|  sn= 7 | S(rot)=       0.01484673 Eh      9.32 kcal/mol|
|  sn= 8 | S(rot)=       0.01472065 Eh      9.24 kcal/mol|
|  sn= 9 | S(rot)=       0.01460944 Eh      9.17 kcal/mol|
|  sn=10 | S(rot)=       0.01450996 Eh      9.11 kcal/mol|
|  sn=11 | S(rot)=       0.01441997 Eh      9.05 kcal/mol|
|  sn=12 | S(rot)=       0.01433781 Eh      9.00 kcal/mol|
 --------------------------------------------------------


-------------------
GIBBS FREE ENERGY
-------------------

The Gibbs free energy is G = H - T*S

Total enthalpy                    ...  -1306.46473852 Eh 
Total entropy correction          ...     -0.07718259 Eh    -48.43 kcal/mol
-----------------------------------------------------------------------
Final Gibbs free energy         ...  -1306.54192111 Eh

For completeness - the Gibbs free energy minus the electronic energy
G-E(el)                           ...      0.28645270 Eh    179.75 kcal/mol


Timings for individual modules:

Sum of individual times         ...     5464.039 sec (=  91.067 min)
GTO integral calculation        ...       32.787 sec (=   0.546 min)   0.6 %
SCF iterations                  ...     1615.664 sec (=  26.928 min)  29.6 %
SCF Gradient evaluation         ...      377.977 sec (=   6.300 min)   6.9 %
Geometry relaxation             ...        1.669 sec (=   0.028 min)   0.0 %
Analytical frequency calculation...     3435.941 sec (=  57.266 min)  62.9 %
                             ****ORCA TERMINATED NORMALLY****
TOTAL RUN TIME: 0 days 1 hours 31 minutes 48 seconds 8 msec
