
                                 *****************
                                 * O   R   C   A *
                                 *****************

                                            #,                                       
                                            ###                                      
                                            ####                                     
                                            #####                                    
                                            ######                                   
                                           ########,                                 
                                     ,,################,,,,,                         
                               ,,#################################,,                 
                          ,,##########################################,,             
                       ,#########################################, ''#####,          
                    ,#############################################,,   '####,        
                  ,##################################################,,,,####,       
                ,###########''''           ''''###############################       
              ,#####''   ,,,,##########,,,,          '''####'''          '####       
            ,##' ,,,,###########################,,,                        '##       
           ' ,,###''''                  '''############,,,                           
         ,,##''                                '''############,,,,        ,,,,,,###''
      ,#''                                            '''#######################'''  
     '                                                          ''''####''''         
             ,#######,   #######,   ,#######,      ##                                
            ,#'     '#,  ##    ##  ,#'     '#,    #''#        ######   ,####,        
            ##       ##  ##   ,#'  ##            #'  '#       #        #'  '#        
            ##       ##  #######   ##           ,######,      #####,   #    #        
            '#,     ,#'  ##    ##  '#,     ,#' ,#      #,         ##   #,  ,#        
             '#######'   ##     ##  '#######'  #'      '#     #####' # '####'        



                  #######################################################
                  #                        -***-                        #
                  #          Department of theory and spectroscopy      #
                  #    Directorship and core code : Frank Neese         #
                  #        Max Planck Institute fuer Kohlenforschung    #
                  #                Kaiser Wilhelm Platz 1               #
                  #                 D-45470 Muelheim/Ruhr               #
                  #                      Germany                        #
                  #                                                     #
                  #                  All rights reserved                #
                  #                        -***-                        #
                  #######################################################


                         Program Version 5.0.4 -  RELEASE  -


 With contributions from (in alphabetic order):
   Daniel Aravena         : Magnetic Suceptibility
   Michael Atanasov       : Ab Initio Ligand Field Theory (pilot matlab implementation)
   Alexander A. Auer      : GIAO ZORA, VPT2 properties, NMR spectrum
   Ute Becker             : Parallelization
   Giovanni Bistoni       : ED, misc. LED, open-shell LED, HFLD
   Martin Brehm           : Molecular dynamics
   Dmytro Bykov           : SCF Hessian
   Vijay G. Chilkuri      : MRCI spin determinant printing, contributions to CSF-ICE
   Dipayan Datta          : RHF DLPNO-CCSD density
   Achintya Kumar Dutta   : EOM-CC, STEOM-CC
   Dmitry Ganyushin       : Spin-Orbit,Spin-Spin,Magnetic field MRCI
   Miquel Garcia          : C-PCM and meta-GGA Hessian, CC/C-PCM, Gaussian charge scheme
   Yang Guo               : DLPNO-NEVPT2, F12-NEVPT2, CIM, IAO-localization
   Andreas Hansen         : Spin unrestricted coupled pair/coupled cluster methods
   Benjamin Helmich-Paris : MC-RPA, TRAH-SCF, COSX integrals
   Lee Huntington         : MR-EOM, pCC
   Robert Izsak           : Overlap fitted RIJCOSX, COSX-SCS-MP3, EOM
   Marcus Kettner         : VPT2
   Christian Kollmar      : KDIIS, OOCD, Brueckner-CCSD(T), CCSD density, CASPT2, CASPT2-K
   Simone Kossmann        : Meta GGA functionals, TD-DFT gradient, OOMP2, MP2 Hessian
   Martin Krupicka        : Initial AUTO-CI
   Lucas Lang             : DCDCAS
   Marvin Lechner         : AUTO-CI (C++ implementation), FIC-MRCC
   Dagmar Lenk            : GEPOL surface, SMD
   Dimitrios Liakos       : Extrapolation schemes; Compound Job, initial MDCI parallelization
   Dimitrios Manganas     : Further ROCIS development; embedding schemes
   Dimitrios Pantazis     : SARC Basis sets
   Anastasios Papadopoulos: AUTO-CI, single reference methods and gradients
   Taras Petrenko         : DFT Hessian,TD-DFT gradient, ASA, ECA, R-Raman, ABS, FL, XAS/XES, NRVS
   Peter Pinski           : DLPNO-MP2, DLPNO-MP2 Gradient
   Christoph Reimann      : Effective Core Potentials
   Marius Retegan         : Local ZFS, SOC
   Christoph Riplinger    : Optimizer, TS searches, QM/MM, DLPNO-CCSD(T), (RO)-DLPNO pert. Triples
   Tobias Risthaus        : Range-separated hybrids, TD-DFT gradient, RPA, STAB
   Michael Roemelt        : Original ROCIS implementation
   Masaaki Saitow         : Open-shell DLPNO-CCSD energy and density
   Barbara Sandhoefer     : DKH picture change effects
   Avijit Sen             : IP-ROCIS
   Kantharuban Sivalingam : CASSCF convergence, NEVPT2, FIC-MRCI
   Bernardo de Souza      : ESD, SOC TD-DFT
   Georgi Stoychev        : AutoAux, RI-MP2 NMR, DLPNO-MP2 response
   Willem Van den Heuvel  : Paramagnetic NMR
   Boris Wezisla          : Elementary symmetry handling
   Frank Wennmohs         : Technical directorship


 We gratefully acknowledge several colleagues who have allowed us to
 interface, adapt or use parts of their codes:
   Stefan Grimme, W. Hujo, H. Kruse, P. Pracht,  : VdW corrections, initial TS optimization,
                  C. Bannwarth, S. Ehlert          DFT functionals, gCP, sTDA/sTD-DF
   Ed Valeev, F. Pavosevic, A. Kumar             : LibInt (2-el integral package), F12 methods
   Garnet Chan, S. Sharma, J. Yang, R. Olivares  : DMRG
   Ulf Ekstrom                                   : XCFun DFT Library
   Mihaly Kallay                                 : mrcc  (arbitrary order and MRCC methods)
   Jiri Pittner, Ondrej Demel                    : Mk-CCSD
   Frank Weinhold                                : gennbo (NPA and NBO analysis)
   Christopher J. Cramer and Donald G. Truhlar   : smd solvation model
   Lars Goerigk                                  : TD-DFT with DH, B97 family of functionals
   V. Asgeirsson, H. Jonsson                     : NEB implementation
   FAccTs GmbH                                   : IRC, NEB, NEB-TS, DLPNO-Multilevel, CI-OPT
                                                   MM, QMMM, 2- and 3-layer-ONIOM, Crystal-QMMM,
                                                   LR-CPCM, SF, NACMEs, symmetry and pop. for TD-DFT,
                                                   nearIR, NL-DFT gradient (VV10), updates on ESD,
                                                   ML-optimized integration grids
   S Lehtola, MJT Oliveira, MAL Marques          : LibXC Library
   Liviu Ungur et al                             : ANISO software


 Your calculation uses the libint2 library for the computation of 2-el integrals
 For citations please refer to: http://libint.valeyev.net

 Your ORCA version has been built with support for libXC version: 5.1.0
 For citations please refer to: https://tddft.org/programs/libxc/

 This ORCA versions uses:
   CBLAS   interface :  Fast vector & matrix operations
   LAPACKE interface :  Fast linear algebra routines
   SCALAPACK package :  Parallel linear algebra routines
   Shared memory     :  Shared parallel matrices
   BLAS/LAPACK       :  OpenBLAS 0.3.15  USE64BITINT DYNAMIC_ARCH NO_AFFINITY Haswell SINGLE_THREADED
        Core in use  :  Haswell
   Copyright (c) 2011-2014, The OpenBLAS Project


Your calculation utilizes the atom-pairwise dispersion correction
with the Becke-Johnson damping scheme (D3BJ)
Cite in your paper:
S.Grimme, S.Ehrlich, L.Goerigk, J Comput Chem, (2011), 32, 1456–1465 
S.Grimme, J.Antony, S.Ehrlich and H.Krieg, J.Chem.Phys., 132, (2010), 154104 
   

================================================================================

----- Orbital basis set information -----
Your calculation utilizes the basis: def2-TZVP
   F. Weigend and R. Ahlrichs, Phys. Chem. Chem. Phys. 7, 3297 (2005).

----- AuxJ basis set information -----
Your calculation utilizes the auxiliary basis: def2/J
   F. Weigend, Phys. Chem. Chem. Phys. 8, 1057 (2006).

================================================================================
                                        WARNINGS
                       Please study these warnings very carefully!
================================================================================


WARNING: Geometry Optimization
  ===> : Switching off AutoStart
         For restart on a previous wavefunction, please use MOREAD

INFO   : the flag for use of the SHARK integral package has been found!

================================================================================
                                       INPUT FILE
================================================================================
NAME = TS1_NMe2/TS1_NMe2.inp
|  1> %pal nprocs 24 end
|  2> %maxcore 3500
|  3> !PBE0 D3BJ def2-TZVP TightOpt TightSCF OPTTS FREQ
|  4> !CPCM(dmso)
|  5> %scf
|  6> MaxIter 800
|  7> end
|  8> %geom
|  9> MaxIter 800
| 10> MaxStep 0.2
| 11> inHess Read
| 12> InHessName "TS1_NMe2-preopt.hess"
| 13> end
| 14> *xyz 0 1
| 15>   C      4.119896    1.100218    0.555038
| 16>   C      3.870173    1.822238   -0.620931
| 17>   C      2.594615    1.863148   -1.101158
| 18>   N      1.585243    1.272593   -0.431567
| 19>   C      1.783571    0.596101    0.723061
| 20>   C      3.082381    0.508834    1.232770
| 21>   C      0.263709    1.160070   -1.004343
| 22>   C     -0.648558    2.205796   -0.385601
| 23>   O     -0.323397    2.974427    0.482332
| 24>   O     -1.817823    2.214111   -1.001140
| 25>   C     -2.788011    3.142665   -0.506889
| 26>   H      5.128222    1.038019    0.946981
| 27>   H      2.323594    2.348662   -2.029243
| 28>   H      0.905975    0.411185    1.320625
| 29>   H      3.241834   -0.006209    2.169966
| 30>   H      0.345306    1.437640   -2.055460
| 31>   H     -3.682125    2.974650   -1.101046
| 32>   H     -2.431336    4.164963   -0.632047
| 33>   C      0.771769   -1.268756   -0.253664
| 34>   C     -0.213104   -0.368639   -0.967086
| 35>   C     -1.630630   -0.599743   -0.515706
| 36>   C     -2.533258   -1.158565   -1.406747
| 37>   C     -3.851030   -1.422693   -1.050206
| 38>   C     -4.275639   -1.118996    0.230732
| 39>   C     -3.395322   -0.554233    1.146777
| 40>   C     -2.082369   -0.295458    0.775819
| 41>   O     -1.180043    0.281080    1.598672
| 42>   C     -1.591150    0.686048    2.888878
| 43>   N      1.882885   -1.577955   -0.981923
| 44>   O      2.135629   -0.911545   -2.020334
| 45>   H     -0.179212   -0.645328   -2.021791
| 46>   H     -2.189899   -1.393130   -2.409229
| 47>   H     -4.533073   -1.859595   -1.769728
| 48>   H     -5.298496   -1.315885    0.531721
| 49>   H     -3.739264   -0.317737    2.144741
| 50>   H     -1.906476   -0.172249    3.488245
| 51>   H     -2.405601    1.413665    2.833370
| 52>   H     -0.720577    1.149691    3.348990
| 53>   O      2.685920   -2.455355   -0.581881
| 54>   H     -2.988396    2.947173    0.546750
| 55>   H      4.661990    2.318508   -1.163679
| 56>   N      0.322616   -2.171145    0.722427
| 57>   C     -0.116219   -3.452614    0.200935
| 58>   H      0.718228   -4.098201   -0.108231
| 59>   H     -0.690168   -3.976936    0.969756
| 60>   H     -0.768749   -3.292982   -0.659125
| 61>   C      1.053671   -2.290284    1.964460
| 62>   H      1.153149   -1.320214    2.450957
| 63>   H      0.480907   -2.931502    2.639216
| 64>   H      2.053993   -2.726009    1.840116
| 65> 
| 66> **                         ****END OF INPUT****
================================================================================

                       *****************************
                       * Geometry Optimization Run *
                       *****************************

Geometry optimization settings:
Update method            Update   .... Bofill
Choice of coordinates    CoordSys .... Z-matrix Internals
Initial Hessian          InHess   .... Read

Convergence Tolerances:
Energy Change            TolE     ....  1.0000e-06 Eh
Max. Gradient            TolMAXG  ....  1.0000e-04 Eh/bohr
RMS Gradient             TolRMSG  ....  3.0000e-05 Eh/bohr
Max. Displacement        TolMAXD  ....  1.0000e-03 bohr
RMS Displacement         TolRMSD  ....  6.0000e-04 bohr
Strict Convergence                ....  False
------------------------------------------------------------------------------
                        ORCA OPTIMIZATION COORDINATE SETUP
------------------------------------------------------------------------------

The optimization will be done in new redundant internal coordinates
Making redundant internal coordinates   ...  (new redundants) done
Following TS mode number                ...     0
Evaluating the initial hessian          ... (Reading Exact Hessian)...  
InHessName: TS1_NMe2-preopt.hess	The file <TS1_NMe2-preopt.hess> is opened as a .hess file
done
done
Diagonalizing the Hessian               .... done
Dimension of the hessian                .... 248
Lowest eigenvalues of the non projected Hessian:
 -0.003884468 -0.000280998 -0.000206516 -0.000152167 -0.000089722
done
Evaluating the coordinates              ...  done
Calculating the B-matrix                .... done
Calculating the G-matrix                .... done
Diagonalizing the G-matrix              .... done
Small eigenvalue found = 2.734e-03
Small eigenvalue found = 3.708e-03
Small eigenvalue found = 4.994e-03
Small eigenvalue found = 8.566e-03
Small eigenvalue found = 9.413e-03
Small eigenvalue found = 1.374e-02
Small eigenvalue found = 1.561e-02
Small eigenvalue found = 2.145e-02
Small eigenvalue found = 2.724e-02
The first mode is                       ....  104
The number of degrees of freedom        ....  144

    -----------------------------------------------------------------
                    Redundant Internal Coordinates


    -----------------------------------------------------------------
         Definition                    Initial Value    d2E/dq (diagonal element)
    -----------------------------------------------------------------
      1. B(C   1,C   0)                  1.4023         0.374474   
      2. B(C   2,C   1)                  1.3636         0.451537   
      3. B(N   3,C   2)                  1.3476         0.423398   
      4. B(C   4,N   3)                  1.3528         0.428003   
      5. B(C   5,C   4)                  1.3980         0.381977   
      6. B(C   5,C   0)                  1.3731         0.439515   
      7. B(C   6,N   3)                  1.4447         0.357847   
      8. B(C   7,C   6)                  1.5194         0.275621   
      9. B(O   8,C   7)                  1.2041         0.839442   
     10. B(O   9,C   7)                  1.3214         0.452465   
     11. B(C  10,O   9)                  1.4310         0.325466   
     12. B(H  11,C   0)                  1.0836         0.363849   
     13. B(H  12,C   2)                  1.0819         0.369071   
     14. B(H  13,C   4)                  1.0777         0.373471   
     15. B(H  14,C   5)                  1.0812         0.368980   
     16. B(H  15,C   6)                  1.0902         0.345628   
     17. B(H  16,C  10)                  1.0866         0.355344   
     18. B(H  17,C  10)                  1.0899         0.346411   
     19. B(C  19,C  18)                  1.5130         0.300880   
     20. B(C  19,C   6)                  1.6018         0.255002   
     21. B(C  20,C  19)                  1.5055         0.316760   
     22. B(C  21,C  20)                  1.3860         0.415217   
     23. B(C  22,C  21)                  1.3905         0.401190   
     24. B(C  23,C  22)                  1.3832         0.418541   
     25. B(C  24,C  23)                  1.3903         0.403896   
     26. B(C  25,C  24)                  1.3887         0.401754   
     27. B(C  25,C  20)                  1.4017         0.391124   
     28. B(O  26,C  25)                  1.3504         0.430344   
     29. B(C  27,O  26)                  1.4134         0.347056   
     30. B(N  28,C  18)                  1.3640         0.421194   
     31. B(O  29,N  28)                  1.2595         0.516429   
     32. B(H  30,C  19)                  1.0909         0.339105   
     33. B(H  31,C  21)                  1.0853         0.357808   
     34. B(H  32,C  22)                  1.0834         0.362105   
     35. B(H  33,C  23)                  1.0842         0.360563   
     36. B(H  34,C  24)                  1.0817         0.367501   
     37. B(H  35,C  27)                  1.0933         0.337152   
     38. B(H  36,C  27)                  1.0935         0.336722   
     39. B(H  37,C  27)                  1.0884         0.350541   
     40. B(O  38,N  28)                  1.2549         0.528643   
     41. B(H  39,C  10)                  1.0902         0.346017   
     42. B(H  40,C   1)                  1.0807         0.370354   
     43. B(N  41,C  18)                  1.4031         0.405010   
     44. B(C  42,N  41)                  1.4514         0.337714   
     45. B(H  43,C  42)                  1.0994         0.320664   
     46. B(H  44,C  42)                  1.0934         0.336410   
     47. B(H  45,C  42)                  1.0913         0.342560   
     48. B(C  46,N  41)                  1.4461         0.347610   
     49. B(H  47,C  46)                  1.0898         0.345771   
     50. B(H  48,C  46)                  1.0929         0.337832   
     51. B(H  49,C  46)                  1.0982         0.323349   
     52. A(C   1,C   0,C   5)          120.0717         0.080969   
     53. A(C   5,C   0,H  11)          119.9897         0.080338   
     54. A(C   1,C   0,H  11)          119.9054         0.080167   
     55. A(C   0,C   1,C   2)          118.5129         0.082592   
     56. A(C   2,C   1,H  40)          119.6540         0.078801   
     57. A(C   0,C   1,H  40)          121.8113         0.078347   
     58. A(C   1,C   2,H  12)          123.3607         0.085184   
     59. A(C   1,C   2,N   3)          120.8331         0.092170   
     60. A(N   3,C   2,H  12)          115.8025         0.095090   
     61. A(C   4,N   3,C   6)          115.6921         0.194607   
     62. A(C   2,N   3,C   4)          122.2371         0.098254   
     63. A(C   2,N   3,C   6)          121.4869         0.166132   
     64. A(N   3,C   4,C   5)          118.5945         0.088087   
     65. A(C   5,C   4,H  13)          122.9345         0.077141   
     66. A(N   3,C   4,H  13)          116.0824         0.087582   
     67. A(C   0,C   5,C   4)          119.6793         0.085183   
     68. A(C   0,C   5,H  14)          121.4363         0.081120   
     69. A(C   4,C   5,H  14)          118.8678         0.080884   
     70. A(H  15,C   6,C  19)          106.7200         0.042217   
     71. A(C   7,C   6,C  19)          117.9466         0.146580   
     72. A(N   3,C   6,C  19)          109.7191         0.224080   
     73. A(C   7,C   6,H  15)          105.2085         0.034125   
     74. A(N   3,C   6,C   7)          109.5216         0.121732   
     75. A(N   3,C   6,H  15)          107.0949         0.041060   
     76. A(C   6,C   7,O   9)          110.2376         0.166458   
     77. A(C   6,C   7,O   8)          124.8017         0.161554   
     78. A(O   8,C   7,O   9)          124.7996         0.202564   
     79. A(C   7,O   9,C  10)          116.3025         0.276213   
     80. A(O   9,C  10,H  39)          110.0029         0.141564   
     81. A(H  16,C  10,H  17)          110.5799         0.067090   
     82. A(O   9,C  10,H  17)          110.3094         0.139947   
     83. A(O   9,C  10,H  16)          105.5861         0.142963   
     84. A(H  17,C  10,H  39)          109.8353         0.067991   
     85. A(H  16,C  10,H  39)          110.4565         0.067062   
     86. A(C  19,C  18,N  28)          114.4159         0.190246   
     87. A(N  28,C  18,N  41)          119.1031         0.185793   
     88. A(C  19,C  18,N  41)          120.1494         0.170074   
     89. A(C   6,C  19,C  20)          115.7064         0.179656   
     90. A(C   6,C  19,C  18)          112.6426         0.227218   
     91. A(C  20,C  19,H  30)          106.2713         0.034036   
     92. A(C  18,C  19,H  30)          106.5447         0.036874   
     93. A(C   6,C  19,H  30)          102.1413         0.045761   
     94. A(C  18,C  19,C  20)          112.3464         0.132573   
     95. A(C  21,C  20,C  25)          118.0348         0.092610   
     96. A(C  19,C  20,C  25)          123.1195         0.195791   
     97. A(C  19,C  20,C  21)          118.8380         0.172218   
     98. A(C  22,C  21,H  31)          119.7110         0.083498   
     99. A(C  20,C  21,H  31)          118.3551         0.084005   
    100. A(C  20,C  21,C  22)          121.9340         0.084843   
    101. A(C  23,C  22,H  32)          120.6842         0.079580   
    102. A(C  21,C  22,H  32)          120.1939         0.079427   
    103. A(C  21,C  22,C  23)          119.1219         0.081642   
    104. A(C  24,C  23,H  33)          119.2208         0.080177   
    105. A(C  22,C  23,H  33)          120.4503         0.080165   
    106. A(C  22,C  23,C  24)          120.3288         0.081020   
    107. A(C  25,C  24,H  34)          120.4189         0.080321   
    108. A(C  23,C  24,H  34)          119.6913         0.082665   
    109. A(C  23,C  24,C  25)          119.8897         0.081432   
    110. A(C  24,C  25,O  26)          123.2660         0.195176   
    111. A(C  20,C  25,O  26)          116.0260         0.181978   
    112. A(C  20,C  25,C  24)          120.6902         0.091958   
    113. A(C  25,O  26,C  27)          118.9599         0.331209   
    114. A(H  36,C  27,H  37)          109.4965         0.068493   
    115. A(H  35,C  27,H  37)          109.4730         0.068470   
    116. A(O  26,C  27,H  37)          105.9803         0.142914   
    117. A(H  35,C  27,H  36)          109.5949         0.069445   
    118. A(O  26,C  27,H  36)          111.1582         0.138415   
    119. A(O  26,C  27,H  35)          111.0628         0.138249   
    120. A(C  18,N  28,O  38)          120.6352         0.216421   
    121. A(C  18,N  28,O  29)          118.9287         0.223766   
    122. A(O  29,N  28,O  38)          120.2895         0.243879   
    123. A(C  42,N  41,C  46)          112.8730         0.117741   
    124. A(C  18,N  41,C  46)          119.2507         0.115252   
    125. A(C  18,N  41,C  42)          114.4972         0.106795   
    126. A(H  44,C  42,H  45)          108.0855         0.054151   
    127. A(H  43,C  42,H  45)          108.5482         0.057560   
    128. A(N  41,C  42,H  45)          109.5597         0.121239   
    129. A(H  43,C  42,H  44)          108.3352         0.057447   
    130. A(N  41,C  42,H  44)          109.2362         0.120409   
    131. A(N  41,C  42,H  43)          112.9551         0.118500   
    132. A(H  48,C  46,H  49)          108.3299         0.056906   
    133. A(H  47,C  46,H  49)          108.6986         0.058764   
    134. A(N  41,C  46,H  49)          113.3237         0.117372   
    135. A(H  47,C  46,H  48)          107.1261         0.054725   
    136. A(N  41,C  46,H  48)          108.2797         0.122370   
    137. A(N  41,C  46,H  47)          110.8686         0.120059   
    138. D(C   2,C   1,C   0,C   5)     -3.1844         0.009152   
    139. D(C   2,C   1,C   0,H  11)    178.9114         0.008222   
    140. D(H  40,C   1,C   0,C   5)    178.5191         0.008270   
    141. D(H  40,C   1,C   0,H  11)      0.6150         0.008890   
    142. D(H  12,C   2,C   1,H  40)      1.8941         0.009267   
    143. D(N   3,C   2,C   1,H  40)   -178.8285         0.008887   
    144. D(H  12,C   2,C   1,C   0)   -176.4401         0.008880   
    145. D(N   3,C   2,C   1,C   0)      2.8373         0.009588   
    146. D(C   6,N   3,C   2,H  12)      7.2299         0.008758   
    147. D(C   4,N   3,C   2,H  12)    178.0895         0.007152   
    148. D(C   4,N   3,C   2,C   1)     -1.2402         0.008452   
    149. D(C   6,N   3,C   2,C   1)   -172.0997         0.010751   
    150. D(C   5,C   4,N   3,C   6)    171.2680         0.009852   
    151. D(C   5,C   4,N   3,C   2)     -0.0861         0.008129   
    152. D(H  13,C   4,N   3,C   2)    162.9018         0.013020   
    153. D(H  13,C   4,N   3,C   6)    -25.7441         0.009911   
    154. D(H  14,C   5,C   4,H  13)     16.4964         0.010824   
    155. D(C   0,C   5,C   4,H  13)   -162.0397         0.011056   
    156. D(H  14,C   5,C   0,H  11)      1.3346         0.009754   
    157. D(C   0,C   5,C   4,N   3)     -0.2856         0.009253   
    158. D(H  14,C   5,C   0,C   1)   -176.5677         0.009708   
    159. D(H  14,C   5,C   4,N   3)    178.2505         0.008221   
    160. D(C   4,C   5,C   0,H  11)    179.8321         0.008894   
    161. D(C   4,C   5,C   0,C   1)      1.9298         0.009077   
    162. D(C  19,C   6,N   3,C   4)    -45.0092         0.042592   
    163. D(C  19,C   6,N   3,C   2)    126.4156         0.037591   
    164. D(H  15,C   6,N   3,C   4)   -160.4751         0.020758   
    165. D(C   7,C   6,N   3,C   2)   -102.6432         0.022080   
    166. D(C   7,C   6,N   3,C   4)     85.9321         0.027310   
    167. D(H  15,C   6,N   3,C   2)     10.9496         0.013965   
    168. D(O   8,C   7,C   6,N   3)     -2.4178         0.034561   
    169. D(O   9,C   7,C   6,C  19)    -60.4580         0.039031   
    170. D(O   9,C   7,C   6,H  15)     58.3394         0.017133   
    171. D(O   9,C   7,C   6,N   3)    173.1479         0.037929   
    172. D(O   8,C   7,C   6,C  19)    123.9763         0.034988   
    173. D(O   8,C   7,C   6,H  15)   -117.2262         0.015778   
    174. D(C  10,O   9,C   7,O   8)     -5.3085         0.017650   
    175. D(C  10,O   9,C   7,C   6)    179.1257         0.018009   
    176. D(H  39,C  10,O   9,C   7)    -58.4912         0.023183   
    177. D(H  17,C  10,O   9,C   7)     62.8252         0.023483   
    178. D(H  16,C  10,O   9,C   7)   -177.6791         0.023135   
    179. D(H  30,C  19,C  18,N  41)   -117.0031         0.022885   
    180. D(C  20,C  19,C  18,N  41)     -1.0182         0.030867   
    181. D(C  20,C  19,C  18,N  28)    150.7922         0.033012   
    182. D(C   6,C  19,C  18,N  41)    131.7956         0.043169   
    183. D(C   6,C  19,C  18,N  28)    -76.3939         0.051882   
    184. D(H  30,C  19,C   6,H  15)      6.4369         0.013521   
    185. D(H  30,C  19,C   6,C   7)    124.4346         0.016564   
    186. D(H  30,C  19,C   6,N   3)   -109.2671         0.030403   
    187. D(C  20,C  19,C   6,H  15)   -108.5015         0.022830   
    188. D(C  20,C  19,C   6,C   7)      9.4961         0.018671   
    189. D(C  20,C  19,C   6,N   3)    135.7945         0.038859   
    190. D(C  18,C  19,C   6,H  15)    120.3496         0.025031   
    191. D(H  30,C  19,C  18,N  28)     34.8073         0.020274   
    192. D(C  18,C  19,C   6,N   3)      4.6456         0.037148   
    193. D(C  18,C  19,C   6,C   7)   -121.6528         0.023397   
    194. D(C  25,C  20,C  19,H  30)   -176.8988         0.017820   
    195. D(C  25,C  20,C  19,C  18)     66.9518         0.033199   
    196. D(C  25,C  20,C  19,C   6)    -64.3372         0.033218   
    197. D(C  21,C  20,C  19,H  30)      4.1261         0.013920   
    198. D(C  21,C  20,C  19,C  18)   -112.0233         0.030430   
    199. D(C  21,C  20,C  19,C   6)    116.6878         0.029587   
    200. D(C  22,C  21,C  20,C  19)    178.7905         0.006648   
    201. D(H  31,C  21,C  20,C  25)    179.7963         0.007321   
    202. D(H  31,C  21,C  20,C  19)     -1.1762         0.007353   
    203. D(C  22,C  21,C  20,C  25)     -0.2370         0.007823   
    204. D(H  32,C  22,C  21,H  31)     -0.0754         0.008624   
    205. D(H  32,C  22,C  21,C  20)    179.9583         0.008232   
    206. D(C  23,C  22,C  21,H  31)    179.9945         0.008187   
    207. D(C  23,C  22,C  21,C  20)      0.0282         0.009267   
    208. D(H  33,C  23,C  22,H  32)      0.0677         0.008638   
    209. D(H  33,C  23,C  22,C  21)    179.9975         0.008346   
    210. D(C  24,C  23,C  22,H  32)   -179.7789         0.008394   
    211. D(C  24,C  23,C  22,C  21)      0.1509         0.009307   
    212. D(H  34,C  24,C  23,H  33)     -0.0571         0.008499   
    213. D(H  34,C  24,C  23,C  22)    179.7914         0.008473   
    214. D(C  25,C  24,C  23,H  33)   -179.9623         0.008050   
    215. D(C  25,C  24,C  23,C  22)     -0.1139         0.008991   
    216. D(O  26,C  25,C  24,H  34)     -1.6040         0.010435   
    217. D(O  26,C  25,C  24,C  23)    178.3006         0.011644   
    218. D(C  20,C  25,C  24,H  34)    179.9931         0.007480   
    219. D(C  20,C  25,C  24,C  23)     -0.1023         0.007597   
    220. D(O  26,C  25,C  20,C  21)   -178.2413         0.011209   
    221. D(O  26,C  25,C  20,C  19)      2.7758         0.009306   
    222. D(C  24,C  25,C  20,C  21)      0.2727         0.006562   
    223. D(C  24,C  25,C  20,C  19)   -178.7102         0.005645   
    224. D(C  27,O  26,C  25,C  24)     -2.1619         0.008177   
    225. D(C  27,O  26,C  25,C  20)    176.3098         0.009222   
    226. D(H  37,C  27,O  26,C  25)   -177.9684         0.024453   
    227. D(H  36,C  27,O  26,C  25)    -59.0806         0.027671   
    228. D(H  35,C  27,O  26,C  25)     63.2235         0.027770   
    229. D(O  38,N  28,C  18,N  41)    -18.1404         0.039771   
    230. D(O  38,N  28,C  18,C  19)   -170.2676         0.044979   
    231. D(O  29,N  28,C  18,N  41)    166.2471         0.052148   
    232. D(O  29,N  28,C  18,C  19)     14.1198         0.048545   
    233. D(C  46,N  41,C  18,N  28)     74.0430         0.017101   
    234. D(C  46,N  41,C  18,C  19)   -135.4487         0.019440   
    235. D(C  42,N  41,C  18,N  28)    -64.0953         0.017493   
    236. D(C  42,N  41,C  18,C  19)     86.4129         0.018076   
    237. D(H  45,C  42,N  41,C  46)    172.6452         0.018575   
    238. D(H  45,C  42,N  41,C  18)    -46.5476         0.017626   
    239. D(H  44,C  42,N  41,C  46)     54.4221         0.018237   
    240. D(H  44,C  42,N  41,C  18)   -164.7707         0.018524   
    241. D(H  43,C  42,N  41,C  46)    -66.2169         0.019462   
    242. D(H  43,C  42,N  41,C  18)     74.5903         0.019244   
    243. D(H  49,C  46,N  41,C  42)     71.4275         0.018487   
    244. D(H  49,C  46,N  41,C  18)    -67.3422         0.018409   
    245. D(H  48,C  46,N  41,C  42)    -48.7776         0.016995   
    246. D(H  48,C  46,N  41,C  18)    172.4527         0.018234   
    247. D(H  47,C  46,N  41,C  42)   -166.0247         0.017471   
    248. D(H  47,C  46,N  41,C  18)     55.2056         0.018056   
    -----------------------------------------------------------------

Number of atoms                         .... 50
Number of degrees of freedom            .... 248

         *************************************************************
         *                GEOMETRY OPTIMIZATION CYCLE   1            *
         *************************************************************
---------------------------------
CARTESIAN COORDINATES (ANGSTROEM)
---------------------------------
  C      4.119896    1.100218    0.555038
  C      3.870173    1.822238   -0.620931
  C      2.594615    1.863148   -1.101158
  N      1.585243    1.272593   -0.431567
  C      1.783571    0.596101    0.723061
  C      3.082381    0.508834    1.232770
  C      0.263709    1.160070   -1.004343
  C     -0.648558    2.205796   -0.385601
  O     -0.323397    2.974427    0.482332
  O     -1.817823    2.214111   -1.001140
  C     -2.788011    3.142665   -0.506889
  H      5.128222    1.038019    0.946981
  H      2.323594    2.348662   -2.029243
  H      0.905975    0.411185    1.320625
  H      3.241834   -0.006209    2.169966
  H      0.345306    1.437640   -2.055460
  H     -3.682125    2.974650   -1.101046
  H     -2.431336    4.164963   -0.632047
  C      0.771769   -1.268756   -0.253664
  C     -0.213104   -0.368639   -0.967086
  C     -1.630630   -0.599743   -0.515706
  C     -2.533258   -1.158565   -1.406747
  C     -3.851030   -1.422693   -1.050206
  C     -4.275639   -1.118996    0.230732
  C     -3.395322   -0.554233    1.146777
  C     -2.082369   -0.295458    0.775819
  O     -1.180043    0.281080    1.598672
  C     -1.591150    0.686048    2.888878
  N      1.882885   -1.577955   -0.981923
  O      2.135629   -0.911545   -2.020334
  H     -0.179212   -0.645328   -2.021791
  H     -2.189899   -1.393130   -2.409229
  H     -4.533073   -1.859595   -1.769728
  H     -5.298496   -1.315885    0.531721
  H     -3.739264   -0.317737    2.144741
  H     -1.906476   -0.172249    3.488245
  H     -2.405601    1.413665    2.833370
  H     -0.720577    1.149691    3.348990
  O      2.685920   -2.455355   -0.581881
  H     -2.988396    2.947173    0.546750
  H      4.661990    2.318508   -1.163679
  N      0.322616   -2.171145    0.722427
  C     -0.116219   -3.452614    0.200935
  H      0.718228   -4.098201   -0.108231
  H     -0.690168   -3.976936    0.969756
  H     -0.768749   -3.292982   -0.659125
  C      1.053671   -2.290284    1.964460
  H      1.153149   -1.320214    2.450957
  H      0.480907   -2.931502    2.639216
  H      2.053993   -2.726009    1.840116

----------------------------
CARTESIAN COORDINATES (A.U.)
----------------------------
  NO LB      ZA    FRAG     MASS         X           Y           Z
   0 C     6.0000    0    12.011    7.785475    2.079111    1.048870
   1 C     6.0000    0    12.011    7.313567    3.443531   -1.173390
   2 C     6.0000    0    12.011    4.903112    3.520839   -2.080887
   3 N     7.0000    0    14.007    2.995675    2.404852   -0.815543
   4 C     6.0000    0    12.011    3.370461    1.126468    1.366387
   5 C     6.0000    0    12.011    5.824856    0.961557    2.329598
   6 C     6.0000    0    12.011    0.498338    2.192215   -1.897933
   7 C     6.0000    0    12.011   -1.225597    4.168350   -0.728680
   8 O     8.0000    0    15.999   -0.611132    5.620852    0.911475
   9 O     8.0000    0    15.999   -3.435188    4.184063   -1.891880
  10 C     6.0000    0    12.011   -5.268577    5.938776   -0.957881
  11 H     1.0000    0     1.008    9.690935    1.961572    1.789535
  12 H     1.0000    0     1.008    4.390956    4.438328   -3.834714
  13 H     1.0000    0     1.008    1.712045    0.777027    2.495620
  14 H     1.0000    0     1.008    6.126178   -0.011733    4.100641
  15 H     1.0000    0     1.008    0.652534    2.716746   -3.884256
  16 H     1.0000    0     1.008   -6.958208    5.621274   -2.080675
  17 H     1.0000    0     1.008   -4.594559    7.870639   -1.194396
  18 C     6.0000    0    12.011    1.458432   -2.397601   -0.479355
  19 C     6.0000    0    12.011   -0.402708   -0.696627   -1.827528
  20 C     6.0000    0    12.011   -3.081444   -1.133350   -0.974543
  21 C     6.0000    0    12.011   -4.787164   -2.189371   -2.658367
  22 C     6.0000    0    12.011   -7.277392   -2.688500   -1.984602
  23 C     6.0000    0    12.011   -8.079787   -2.114596    0.436020
  24 C     6.0000    0    12.011   -6.416229   -1.047349    2.167094
  25 C     6.0000    0    12.011   -3.935107   -0.558335    1.466085
  26 O     8.0000    0    15.999   -2.229958    0.531164    3.021052
  27 C     6.0000    0    12.011   -3.006838    1.296443    5.459188
  28 N     7.0000    0    14.007    3.558137   -2.981903   -1.855566
  29 O     8.0000    0    15.999    4.035754   -1.722570   -3.817878
  30 H     1.0000    0     1.008   -0.338662   -1.219493   -3.820631
  31 H     1.0000    0     1.008   -4.138309   -2.632634   -4.552783
  32 H     1.0000    0     1.008   -8.566267   -3.514125   -3.344301
  33 H     1.0000    0     1.008  -10.012706   -2.486662    1.004807
  34 H     1.0000    0     1.008   -7.066185   -0.600436    4.052973
  35 H     1.0000    0     1.008   -3.602718   -0.325503    6.591828
  36 H     1.0000    0     1.008   -4.545927    2.671440    5.354293
  37 H     1.0000    0     1.008   -1.361693    2.172601    6.328674
  38 O     8.0000    0    15.999    5.075653   -4.639949   -1.099596
  39 H     1.0000    0     1.008   -5.647250    5.569350    1.033208
  40 H     1.0000    0     1.008    8.809884    4.381345   -2.199035
  41 N     7.0000    0    14.007    0.609656   -4.102869    1.365189
  42 C     6.0000    0    12.011   -0.219622   -6.524495    0.379712
  43 H     1.0000    0     1.008    1.357254   -7.744478   -0.204527
  44 H     1.0000    0     1.008   -1.304229   -7.515320    1.832573
  45 H     1.0000    0     1.008   -1.452725   -6.222834   -1.245566
  46 C     6.0000    0    12.011    1.991150   -4.328010    3.712291
  47 H     1.0000    0     1.008    2.179136   -2.494843    4.631637
  48 H     1.0000    0     1.008    0.908783   -5.539736    4.987395
  49 H     1.0000    0     1.008    3.881484   -5.151410    3.477315

--------------------------------
INTERNAL COORDINATES (ANGSTROEM)
--------------------------------
 C      0   0   0     0.000000000000     0.00000000     0.00000000
 C      1   0   0     1.402347156053     0.00000000     0.00000000
 C      2   1   0     1.363576111184   118.51294707     0.00000000
 N      3   2   1     1.347567864595   120.83313672     2.83729935
 C      4   3   2     1.352827128658   122.23714988   358.75984115
 C      1   2   3     1.373132577177   120.07173930   356.81559002
 C      4   3   2     1.444709619564   121.48693480   187.90026666
 C      7   4   3     1.519412915875   109.52160325   257.35681896
 O      8   7   4     1.204089275167   124.80171165   357.58223973
 O      8   7   4     1.321415165635   110.23758994   173.14790679
 C     10   8   7     1.431000117841   116.30248980   179.12574804
 H      1   2   3     1.083609409855   119.90537910   178.91144983
 H      3   2   1     1.081904798890   123.36069397   183.55986861
 H      5   4   3     1.077706546500   116.08235947   162.90175023
 H      6   1   2     1.081217320188   121.43625092   183.43228459
 H      7   4   3     1.090206458887   107.09488181    10.94963855
 H     11  10   8     1.086596257066   105.58608792   182.32094732
 H     11  10   8     1.089942558758   110.30937462    62.82519842
 C     14   5   4     2.306208765363    78.10450981    81.08083126
 C     19  14   5     1.512995832744    85.77882128   261.07662752
 C     20  19  14     1.505500888041   112.34640245   270.62537433
 C     21  20  19     1.385991846206   118.83803453   247.97666415
 C     22  21  20     1.390470470398   121.93396146   178.79052634
 C     23  22  21     1.383230577501   119.12185527     0.02815160
 C     24  23  22     1.390343018353   120.32875826     0.15092403
 C     25  24  23     1.388675598762   119.88970467   359.88611392
 O     26  25  24     1.350435239221   123.26600415   178.30060366
 C     27  26  25     1.413378777578   118.95992156   357.83810804
 N     19  14   5     1.364017579849   118.82807927    16.70241968
 O     29  19  14     1.259475772914   118.92869702   275.05322306
 H     20  19  14     1.090920761288   106.54468079   154.64047695
 H     22  21  20     1.085304704878   118.35506708   358.82377929
 H     23  22  21     1.083410319287   120.19391407   179.95830286
 H     24  23  22     1.084249094485   120.45030517   179.99749150
 H     25  24  23     1.081738694268   119.69133065   179.79138647
 H     28  27  26     1.093318355820   111.06278452    63.22346889
 H     28  27  26     1.093543811721   111.15815513   300.91937145
 H     28  27  26     1.088377339126   105.98028455   182.03156683
 O     29  19  14     1.254882294476   120.63521157    90.66575601
 H     11  10   8     1.090195584567   110.00285330   301.50881508
 H      2   1   3     1.080663437844   121.81127981   181.70352969
 N     19  14   5     1.403138612187    90.70100252   140.89403955
 C     42  19  14     1.451445094122   114.49717211   171.93805110
 H     43  42  19     1.099394372341   112.95510974    74.59031753
 H     43  42  19     1.093351153256   109.23616815   195.22927831
 H     43  42  19     1.091320750249   109.55973856   313.45241439
 C     42  19  14     1.446126373259   119.25072337   310.07637752
 H     47  42  19     1.089775668839   110.86862107    55.20557642
 H     47  42  19     1.092938599719   108.27967477   172.45269690
 H     47  42  19     1.098162924909   113.32373056   292.65779811

---------------------------
INTERNAL COORDINATES (A.U.)
---------------------------
 C      0   0   0     0.000000000000     0.00000000     0.00000000
 C      1   0   0     2.650052069624     0.00000000     0.00000000
 C      2   1   0     2.576785412896   118.51294707     0.00000000
 N      3   2   1     2.546534210958   120.83313672     2.83729935
 C      4   3   2     2.556472779702   122.23714988   358.75984115
 C      1   2   3     2.594844516430   120.07173930   356.81559002
 C      4   3   2     2.730105524018   121.48693480   187.90026666
 C      7   4   3     2.871274295347   109.52160325   257.35681896
 O      8   7   4     2.275398970856   124.80171165   357.58223973
 O      8   7   4     2.497112772261   110.23758994   173.14790679
 C     10   8   7     2.704198320329   116.30248980   179.12574804
 H      1   2   3     2.047725020766   119.90537910   178.91144983
 H      3   2   1     2.044503772878   123.36069397   183.55986861
 H      5   4   3     2.036570225618   116.08235947   162.90175023
 H      6   1   2     2.043204626407   121.43625092   183.43228459
 H      7   4   3     2.060191636728   107.09488181    10.94963855
 H     11  10   8     2.053369343999   105.58608792   182.32094732
 H     11  10   8     2.059692937759   110.30937462    62.82519842
 C     14   5   4     4.358102974185    78.10450981    81.08083126
 C     19  14   5     2.859147765651    85.77882128   261.07662752
 C     20  19  14     2.844984372773   112.34640245   270.62537433
 C     21  20  19     2.619145013177   118.83803453   247.97666415
 C     22  21  20     2.627608386357   121.93396146   178.79052634
 C     23  22  21     2.613926971543   119.12185527     0.02815160
 C     24  23  22     2.627367536897   120.32875826     0.15092403
 C     25  24  23     2.624216570520   119.88970467   359.88611392
 O     26  25  24     2.551952763724   123.26600415   178.30060366
 C     27  26  25     2.670898813120   118.95992156   357.83810804
 N     19  14   5     2.577619667769   118.82807927    16.70241968
 O     29  19  14     2.380064283116   118.92869702   275.05322306
 H     20  19  14     2.061541472644   106.54468079   154.64047695
 H     22  21  20     2.050928664075   118.35506708   358.82377929
 H     23  22  21     2.047348794116   120.19391407   179.95830286
 H     24  23  22     2.048933849528   120.45030517   179.99749150
 H     25  24  23     2.044189880632   119.69133065   179.79138647
 H     28  27  26     2.066072269690   111.06278452    63.22346889
 H     28  27  26     2.066498319598   111.15815513   300.91937145
 H     28  27  26     2.056735101313   105.98028455   182.03156683
 O     29  19  14     2.371383866866   120.63521157    90.66575601
 H     11  10   8     2.060171087242   110.00285330   301.50881508
 H      2   1   3     2.042157940467   121.81127981   181.70352969
 N     19  14   5     2.651547704964    90.70100252   140.89403955
 C     42  19  14     2.742833726314   114.49717211   171.93805110
 H     43  42  19     2.077554276898   112.95510974    74.59031753
 H     43  42  19     2.066134247861   109.23616815   195.22927831
 H     43  42  19     2.062297342236   109.55973856   313.45241439
 C     42  19  14     2.732782800500   119.25072337   310.07637752
 H     47  42  19     2.059377561516   110.86862107    55.20557642
 H     47  42  19     2.065354634661   108.27967477   172.45269690
 H     47  42  19     2.075227178504   113.32373056   292.65779811

---------------------
BASIS SET INFORMATION
---------------------
There are 4 groups of distinct atoms

 Group   1 Type C   : 11s6p2d1f contracted to 5s3p2d1f pattern {62111/411/11/1}
 Group   2 Type N   : 11s6p2d1f contracted to 5s3p2d1f pattern {62111/411/11/1}
 Group   3 Type O   : 11s6p2d1f contracted to 5s3p2d1f pattern {62111/411/11/1}
 Group   4 Type H   : 5s1p contracted to 3s1p pattern {311/1}

Atom   0C    basis set group =>   1
Atom   1C    basis set group =>   1
Atom   2C    basis set group =>   1
Atom   3N    basis set group =>   2
Atom   4C    basis set group =>   1
Atom   5C    basis set group =>   1
Atom   6C    basis set group =>   1
Atom   7C    basis set group =>   1
Atom   8O    basis set group =>   3
Atom   9O    basis set group =>   3
Atom  10C    basis set group =>   1
Atom  11H    basis set group =>   4
Atom  12H    basis set group =>   4
Atom  13H    basis set group =>   4
Atom  14H    basis set group =>   4
Atom  15H    basis set group =>   4
Atom  16H    basis set group =>   4
Atom  17H    basis set group =>   4
Atom  18C    basis set group =>   1
Atom  19C    basis set group =>   1
Atom  20C    basis set group =>   1
Atom  21C    basis set group =>   1
Atom  22C    basis set group =>   1
Atom  23C    basis set group =>   1
Atom  24C    basis set group =>   1
Atom  25C    basis set group =>   1
Atom  26O    basis set group =>   3
Atom  27C    basis set group =>   1
Atom  28N    basis set group =>   2
Atom  29O    basis set group =>   3
Atom  30H    basis set group =>   4
Atom  31H    basis set group =>   4
Atom  32H    basis set group =>   4
Atom  33H    basis set group =>   4
Atom  34H    basis set group =>   4
Atom  35H    basis set group =>   4
Atom  36H    basis set group =>   4
Atom  37H    basis set group =>   4
Atom  38O    basis set group =>   3
Atom  39H    basis set group =>   4
Atom  40H    basis set group =>   4
Atom  41N    basis set group =>   2
Atom  42C    basis set group =>   1
Atom  43H    basis set group =>   4
Atom  44H    basis set group =>   4
Atom  45H    basis set group =>   4
Atom  46C    basis set group =>   1
Atom  47H    basis set group =>   4
Atom  48H    basis set group =>   4
Atom  49H    basis set group =>   4
---------------------------------
AUXILIARY/J BASIS SET INFORMATION
---------------------------------
There are 4 groups of distinct atoms

 Group   1 Type C   : 12s5p4d2f1g contracted to 6s4p3d1f1g pattern {711111/2111/211/2/1}
 Group   2 Type N   : 12s5p4d2f1g contracted to 6s4p3d1f1g pattern {711111/2111/211/2/1}
 Group   3 Type O   : 12s5p4d2f1g contracted to 6s4p3d1f1g pattern {711111/2111/211/2/1}
 Group   4 Type H   : 5s2p1d contracted to 3s1p1d pattern {311/2/1}

Atom   0C    basis set group =>   1
Atom   1C    basis set group =>   1
Atom   2C    basis set group =>   1
Atom   3N    basis set group =>   2
Atom   4C    basis set group =>   1
Atom   5C    basis set group =>   1
Atom   6C    basis set group =>   1
Atom   7C    basis set group =>   1
Atom   8O    basis set group =>   3
Atom   9O    basis set group =>   3
Atom  10C    basis set group =>   1
Atom  11H    basis set group =>   4
Atom  12H    basis set group =>   4
Atom  13H    basis set group =>   4
Atom  14H    basis set group =>   4
Atom  15H    basis set group =>   4
Atom  16H    basis set group =>   4
Atom  17H    basis set group =>   4
Atom  18C    basis set group =>   1
Atom  19C    basis set group =>   1
Atom  20C    basis set group =>   1
Atom  21C    basis set group =>   1
Atom  22C    basis set group =>   1
Atom  23C    basis set group =>   1
Atom  24C    basis set group =>   1
Atom  25C    basis set group =>   1
Atom  26O    basis set group =>   3
Atom  27C    basis set group =>   1
Atom  28N    basis set group =>   2
Atom  29O    basis set group =>   3
Atom  30H    basis set group =>   4
Atom  31H    basis set group =>   4
Atom  32H    basis set group =>   4
Atom  33H    basis set group =>   4
Atom  34H    basis set group =>   4
Atom  35H    basis set group =>   4
Atom  36H    basis set group =>   4
Atom  37H    basis set group =>   4
Atom  38O    basis set group =>   3
Atom  39H    basis set group =>   4
Atom  40H    basis set group =>   4
Atom  41N    basis set group =>   2
Atom  42C    basis set group =>   1
Atom  43H    basis set group =>   4
Atom  44H    basis set group =>   4
Atom  45H    basis set group =>   4
Atom  46C    basis set group =>   1
Atom  47H    basis set group =>   4
Atom  48H    basis set group =>   4
Atom  49H    basis set group =>   4


           ************************************************************
           *        Program running with 24 parallel MPI-processes    *
           *              working on a common directory               *
           ************************************************************
------------------------------------------------------------------------------
                           ORCA GTO INTEGRAL CALCULATION
                           -- RI-GTO INTEGRALS CHOSEN --
------------------------------------------------------------------------------
------------------------------------------------------------------------------
                   ___                                                        
                  /   \      - P O W E R E D   B Y -                         
                 /     \                                                     
                 |  |  |   _    _      __       _____    __    __             
                 |  |  |  | |  | |    /  \     |  _  \  |  |  /  |          
                  \  \/   | |  | |   /    \    | | | |  |  | /  /          
                 / \  \   | |__| |  /  /\  \   | |_| |  |  |/  /          
                |  |  |   |  __  | /  /__\  \  |    /   |      \           
                |  |  |   | |  | | |   __   |  |    \   |  |\   \          
                \     /   | |  | | |  |  |  |  | |\  \  |  | \   \       
                 \___/    |_|  |_| |__|  |__|  |_| \__\ |__|  \__/        
                                                                              
                      - O R C A' S   B I G   F R I E N D -                    
                                      &                                       
                       - I N T E G R A L  F E E D E R -                       
                                                                              
 v1 FN, 2020, v2 2021                                                         
------------------------------------------------------------------------------


Reading SHARK input file TS1_NMe2/TS1_NMe2.SHARKINP.tmp ... ok
----------------------
SHARK INTEGRAL PACKAGE
----------------------

Number of atoms                             ...     50
Number of basis functions                   ...    975
Number of shells                            ...    389
Maximum angular momentum                    ...      3
Integral batch strategy                     ... SHARK/LIBINT Hybrid
RI-J (if used) integral strategy            ... SPLIT-RIJ (Revised 2003 algorithm where possible)
Printlevel                                  ...      1
Contraction scheme used                     ... SEGMENTED contraction
Coulomb Range Separation                    ... NOT USED
Exchange Range Separation                   ... NOT USED
Finite Nucleus Model                        ... NOT USED
Auxiliary Coulomb fitting basis             ... AVAILABLE
   # of basis functions in Aux-J            ...   1576
   # of shells in Aux-J                     ...    520
   Maximum angular momentum in Aux-J        ...      4
Auxiliary J/K fitting basis                 ... NOT available
Auxiliary Correlation fitting basis         ... NOT available
Auxiliary 'external' fitting basis          ... NOT available
Integral threshold                          ...     2.500000e-11
Primitive cut-off                           ...     2.500000e-12
Primitive pair pre-selection threshold      ...     2.500000e-12

Calculating pre-screening integrals         ... done (  0.1 sec) Dimension = 389
Organizing shell pair data                  ... done (  0.6 sec)
Shell pair information
Total number of shell pairs                 ...     75855
Shell pairs after pre-screening             ...     56229
Total number of primitive shell pairs       ...    230844
Primitive shell pairs kept                  ...    111798
          la=0 lb=0:  14908 shell pairs
          la=1 lb=0:  16223 shell pairs
          la=1 lb=1:   4461 shell pairs
          la=2 lb=0:   7959 shell pairs
          la=2 lb=1:   4418 shell pairs
          la=2 lb=2:   1129 shell pairs
          la=3 lb=0:   3710 shell pairs
          la=3 lb=1:   2111 shell pairs
          la=3 lb=2:   1042 shell pairs
          la=3 lb=3:    268 shell pairs

Calculating one electron integrals          ... done (  0.1 sec)
Calculating RI/J V-Matrix + Cholesky decomp.... done (  0.3 sec)
Calculating Nuclear repulsion               ... done (  0.0 sec) ENN=   2843.083322018848 Eh

SHARK setup successfully completed in   2.2 seconds

Maximum memory used throughout the entire GTOINT-calculation: 82.5 MB


           ************************************************************
           *        Program running with 24 parallel MPI-processes    *
           *              working on a common directory               *
           ************************************************************
-------------------------------------------------------------------------------
                                 ORCA SCF
-------------------------------------------------------------------------------

------------
SCF SETTINGS
------------
Hamiltonian:
 Density Functional     Method          .... DFT(GTOs)
 Exchange Functional    Exchange        .... PBE
   PBE kappa parameter   XKappa         ....  0.804000
   PBE mue parameter    XMuePBE         ....  0.219520
 Correlation Functional Correlation     .... PBE
   PBE beta parameter  CBetaPBE         ....  0.066725
 LDA part of GGA corr.  LDAOpt          .... PW91-LDA
 Gradients option       PostSCFGGA      .... off
 Hybrid DFT is turned on
   Fraction HF Exchange ScalHFX         ....  0.250000
   Scaling of DF-GGA-X  ScalDFX         ....  0.750000
   Scaling of DF-GGA-C  ScalDFC         ....  1.000000
   Scaling of DF-LDA-C  ScalLDAC        ....  1.000000
   Perturbative correction              ....  0.000000
   Density functional embedding theory  .... OFF
   NL short-range parameter             ....  6.900000
 RI-approximation to the Coulomb term is turned on
   Number of AuxJ basis functions       .... 1576
   RIJ-COSX (HFX calculated with COS-X)).... on


General Settings:
 Integral files         IntName         .... TS1_NMe2/TS1_NMe2
 Hartree-Fock type      HFTyp           .... RHF
 Total Charge           Charge          ....    0
 Multiplicity           Mult            ....    1
 Number of Electrons    NEL             ....  198
 Basis Dimension        Dim             ....  975
 Nuclear Repulsion      ENuc            ....   2843.0833220188 Eh

Convergence Acceleration:
 DIIS                   CNVDIIS         .... on
   Start iteration      DIISMaxIt       ....    12
   Startup error        DIISStart       ....  0.200000
   # of expansion vecs  DIISMaxEq       ....     5
   Bias factor          DIISBfac        ....   1.050
   Max. coefficient     DIISMaxC        ....  10.000
 Trust-Rad. Augm. Hess. CNVTRAH         .... auto
   Auto Start mean grad. ratio tolernc. ....  1.125000
   Auto Start start iteration           ....    20
   Auto Start num. interpolation iter.  ....    10
   Max. Number of Micro iterations      ....    16
   Max. Number of Macro iterations      .... Maxiter - #DIIS iter
   Number of Davidson start vectors     ....     2
   Converg. threshold I  (grad. norm)   ....   1.000e-05
   Converg. threshold II (energy diff.) ....   1.000e-08
   Grad. Scal. Fac. for Micro threshold ....   0.100
   Minimum threshold for Micro iter.    ....   0.010
   NR start threshold (gradient norm)   ....   0.001
   Initial trust radius                 ....   0.400
   Minimum AH scaling param. (alpha)    ....   1.000
   Maximum AH scaling param. (alpha)    .... 1000.000
   Orbital update algorithm             .... Taylor
   White noise on init. David. guess    .... on
   Maximum white noise                  ....   0.010
   Quad. conv. algorithm                .... NR
 SOSCF                  CNVSOSCF        .... on
   Start iteration      SOSCFMaxIt      ....   150
   Startup grad/error   SOSCFStart      ....  0.003300
 Level Shifting         CNVShift        .... on
   Level shift para.    LevelShift      ....    0.2500
   Turn off err/grad.   ShiftErr        ....    0.0010
 Zerner damping         CNVZerner       .... off
 Static damping         CNVDamp         .... on
   Fraction old density DampFac         ....    0.7000
   Max. Damping (<1)    DampMax         ....    0.9800
   Min. Damping (>=0)   DampMin         ....    0.0000
   Turn off err/grad.   DampErr         ....    0.1000
 Fernandez-Rico         CNVRico         .... off

SCF Procedure:
 Maximum # iterations   MaxIter         ....   800
 SCF integral mode      SCFMode         .... Direct
   Integral package                     .... SHARK and LIBINT hybrid scheme
 Reset frequency        DirectResetFreq ....    20
 Integral Threshold     Thresh          ....  2.500e-11 Eh
 Primitive CutOff       TCut            ....  2.500e-12 Eh

Convergence Tolerance:
 Convergence Check Mode ConvCheckMode   .... Total+1el-Energy
 Convergence forced     ConvForced      .... 0
 Energy Change          TolE            ....  1.000e-08 Eh
 1-El. energy change                    ....  1.000e-05 Eh
 Orbital Gradient       TolG            ....  1.000e-05
 Orbital Rotation angle TolX            ....  1.000e-05
 DIIS Error             TolErr          ....  5.000e-07


Diagonalization of the overlap matrix:
Smallest eigenvalue                        ... 5.034e-06
Time for diagonalization                   ...    0.283 sec
Threshold for overlap eigenvalues          ... 1.000e-08
Number of eigenvalues below threshold      ... 0
Time for construction of square roots      ...    0.171 sec
Total time needed                          ...    0.464 sec

Time for model grid setup =    0.405 sec

------------------------------
INITIAL GUESS: MODEL POTENTIAL
------------------------------
Loading Hartree-Fock densities                     ... done
Calculating cut-offs                               ... done
Initializing the effective Hamiltonian             ... done
Setting up the integral package (SHARK)            ... done
Starting the Coulomb interaction                   ... done (   0.5 sec)
Reading the grid                                   ... done
Mapping shells                                     ... done
Starting the XC term evaluation                    ... done (   0.3 sec)
  promolecular density results
     # of electrons  =    197.988280027
     EX              =   -164.494049501
     EC              =     -6.715282732
     EX+EC           =   -171.209332234
Transforming the Hamiltonian                       ... done (   0.2 sec)
Diagonalizing the Hamiltonian                      ... done (   0.3 sec)
Back transforming the eigenvectors                 ... done (   0.1 sec)
Now organizing SCF variables                       ... done
                      ------------------
                      INITIAL GUESS DONE (   2.0 sec)
                      ------------------
-------------------
DFT GRID GENERATION
-------------------

General Integration Accuracy     IntAcc      ... 4.388
Radial Grid Type                 RadialGrid  ... OptM3 with GC (2021)
Angular Grid (max. ang.)         AngularGrid ... 4 (Lebedev-302)
Angular grid pruning method      GridPruning ... 4 (adaptive)
Weight generation scheme         WeightScheme... Becke
Basis function cutoff            BFCut       ... 1.0000e-11
Integration weight cutoff        WCut        ... 1.0000e-14
Angular grids for H and He will be reduced by one unit
Partially contracted basis set               ... off
Rotationally invariant grid construction     ... off

Total number of grid points                  ...   232956
Total number of batches                      ...     3666
Average number of points per batch           ...       63
Average number of grid points per atom       ...     4659
Time for grid setup =    1.815 sec

--------------------
COSX GRID GENERATION
--------------------

GRIDX 1
-------
General Integration Accuracy     IntAcc      ... 3.816
Radial Grid Type                 RadialGrid  ... OptM3 with GC (2021)
Angular Grid (max. ang.)         AngularGrid ... 1 (Lebedev-50)
Angular grid pruning method      GridPruning ... 4 (adaptive)
Weight generation scheme         WeightScheme... Becke
Basis function cutoff            BFCut       ... 1.0000e-11
Integration weight cutoff        WCut        ... 1.0000e-14
Angular grids for H and He will be reduced by one unit
Partially contracted basis set               ... on
Rotationally invariant grid construction     ... off

Total number of grid points                  ...    29553
Total number of batches                      ...      489
Average number of points per batch           ...       60
Average number of grid points per atom       ...      591
UseSFitting                                  ... on

GRIDX 2
-------
General Integration Accuracy     IntAcc      ... 4.020
Radial Grid Type                 RadialGrid  ... OptM3 with GC (2021)
Angular Grid (max. ang.)         AngularGrid ... 2 (Lebedev-110)
Angular grid pruning method      GridPruning ... 4 (adaptive)
Weight generation scheme         WeightScheme... Becke
Basis function cutoff            BFCut       ... 1.0000e-11
Integration weight cutoff        WCut        ... 1.0000e-14
Angular grids for H and He will be reduced by one unit
Partially contracted basis set               ... on
Rotationally invariant grid construction     ... off

Total number of grid points                  ...    63275
Total number of batches                      ...     1017
Average number of points per batch           ...       62
Average number of grid points per atom       ...     1266
UseSFitting                                  ... on

GRIDX 3
-------
General Integration Accuracy     IntAcc      ... 4.338
Radial Grid Type                 RadialGrid  ... OptM3 with GC (2021)
Angular Grid (max. ang.)         AngularGrid ... 3 (Lebedev-194)
Angular grid pruning method      GridPruning ... 4 (adaptive)
Weight generation scheme         WeightScheme... Becke
Basis function cutoff            BFCut       ... 1.0000e-11
Integration weight cutoff        WCut        ... 1.0000e-14
Angular grids for H and He will be reduced by one unit
Partially contracted basis set               ... on
Rotationally invariant grid construction     ... off

Total number of grid points                  ...   137686
Total number of batches                      ...     2179
Average number of points per batch           ...       63
Average number of grid points per atom       ...     2754
UseSFitting                                  ... on

Time for X-Grid setup             =    3.231 sec


--------------------
CPCM SOLVATION MODEL
--------------------
CPCM parameters:
  Epsilon                                         ...      47.2000
  Refrac                                          ...       1.4790
  Rsolv                                           ...       1.3000
  Surface type                                    ... GAUSSIAN VDW
  Epsilon function type                           ...         CPCM
Radii:
 Radius for C  used is    3.8550 Bohr (=   2.0400 Ang.)
 Radius for N  used is    3.5149 Bohr (=   1.8600 Ang.)
 Radius for O  used is    3.4469 Bohr (=   1.8240 Ang.)
 Radius for H  used is    2.4944 Bohr (=   1.3200 Ang.)
Calculating surface                               ...        done! (  0.0s)
GEPOL surface points                              ...         2458
GEPOL Volume                                      ...    2852.9069
GEPOL Surface-area                                ...    1356.4299
Calculating surface distance matrix               ...        done! (  0.1s)
Performing Cholesky decomposition & store         ...        done! (  0.4s)
Overall time for CPCM initialization              ...                 0.5s
--------------
SCF ITERATIONS
--------------
ITER       Energy         Delta-E        Max-DP      RMS-DP      [F,P]     Damp
               ***  Starting incremental Fock matrix formation  ***
  0  -1276.5200598131   0.000000000000 0.27220448  0.00079629  0.2627705 0.7000
  1  -1276.7952353919  -0.275175578816 0.29216905  0.00072970  0.1031801 0.7000
                               ***Turning on DIIS***
  2  -1276.9066656581  -0.111430266176 0.44769274  0.00129687  0.0347212 0.0000
  3  -1277.0885593163  -0.181893658273 0.27277315  0.00060606  0.0524795 0.0000
  4  -1277.1223097960  -0.033750479697 0.07728499  0.00021060  0.0163047 0.0000
  5  -1277.1243943135  -0.002084517410 0.02980180  0.00006570  0.0067043 0.0000
                      *** Initiating the SOSCF procedure ***
                           *** Shutting down DIIS ***
                      *** Re-Reading the Fockian *** 
                      *** Removing any level shift *** 
ITER      Energy       Delta-E        Grad      Rot      Max-DP    RMS-DP
  6  -1277.12458185  -0.0001875401  0.000279  0.000279  0.012825  0.000039
               *** Restarting incremental Fock matrix formation ***
  7  -1277.12465945  -0.0000775978  0.000276  0.001265  0.002883  0.000022
  8  -1277.12464700   0.0000124487  0.000593  0.000985  0.001591  0.000010
  9  -1277.12466612  -0.0000191223  0.000094  0.000367  0.000667  0.000003
 10  -1277.12466556   0.0000005695  0.000158  0.000229  0.000940  0.000002
 11  -1277.12466637  -0.0000008162  0.000013  0.000046  0.000449  0.000001
 12  -1277.12466634   0.0000000284  0.000022  0.000031  0.000701  0.000001
                  ***Gradient check signals convergence***
              ***Rediagonalizing the Fockian in SOSCF/NRSCF***

               *****************************************************
               *                     SUCCESS                       *
               *           SCF CONVERGED AFTER  13 CYCLES          *
               *****************************************************

Old exchange energy                            =    -41.938688359 Eh
New exchange energy                            =    -41.938696895 Eh
Exchange energy change after final integration =     -0.000008536 Eh
Total energy after final integration           =  -1277.124674927 Eh
Final COS-X integration done in                =    21.019 sec

----------------
TOTAL SCF ENERGY
----------------

Total Energy       :        -1277.12467493 Eh          -34752.32918 eV

Components:
Nuclear Repulsion  :         2843.08332202 Eh           77364.23031 eV
Electronic Energy  :        -4120.20799695 Eh         -112116.55949 eV
One Electron Energy:        -7398.19062885 Eh         -201315.00167 eV
Two Electron Energy:         3277.98263190 Eh           89198.44218 eV
Max COSX asymmetry :            0.00000209 Eh               0.00006 eV
CPCM Dielectric    :           -0.04697588 Eh              -1.27828 eV

Virial components:
Potential Energy   :        -2548.62148117 Eh          -69351.51627 eV
Kinetic Energy     :         1271.49680624 Eh           34599.18709 eV
Virial Ratio       :            2.00442618


DFT components:
N(Alpha)           :       98.999910613199 electrons
N(Beta)            :       98.999910613199 electrons
N(Total)           :      197.999821226397 electrons
E(X)               :     -125.581859197317 Eh       
E(C)               :       -6.698400938768 Eh       
E(XC)              :     -132.280260136086 Eh       
DFET-embed. en.    :        0.000000000000 Eh       
CPCM Solvation Model Properties:
Surface-charge          :           -0.03202603
Charge-correction       :           -0.00037896 Eh              -0.01031 eV
Free-energy (cav+disp)  :  This term is not implemented in the current solvation scheme

---------------
SCF CONVERGENCE
---------------

  Last Energy change         ...   -4.7345e-08  Tolerance :   1.0000e-08
  Last MAX-Density change    ...    2.5535e-15  Tolerance :   1.0000e-07
  Last RMS-Density change    ...    1.4382e-17  Tolerance :   5.0000e-09
  Last Orbital Gradient      ...    1.1955e-06  Tolerance :   1.0000e-05
  Last Orbital Rotation      ...    3.6649e-06  Tolerance :   1.0000e-05

             **** THE GBW FILE WAS UPDATED (TS1_NMe2/TS1_NMe2.gbw) ****
             **** DENSITY TS1_NMe2/TS1_NMe2.scfp WAS UPDATED ****
             **** ENERGY FILE WAS UPDATED (TS1_NMe2/TS1_NMe2.en.tmp) ****
             **** THE GBW FILE WAS UPDATED (TS1_NMe2/TS1_NMe2.gbw) ****
             **** DENSITY TS1_NMe2/TS1_NMe2.scfp WAS UPDATED ****
----------------
ORBITAL ENERGIES
----------------

  NO   OCC          E(Eh)            E(eV) 
   0   2.0000     -19.267096      -524.2843 
   1   2.0000     -19.246189      -523.7154 
   2   2.0000     -19.206803      -522.6437 
   3   2.0000     -19.183702      -522.0151 
   4   2.0000     -19.181261      -521.9487 
   5   2.0000     -14.559292      -396.1785 
   6   2.0000     -14.484306      -394.1380 
   7   2.0000     -14.378055      -391.2468 
   8   2.0000     -10.366443      -282.0853 
   9   2.0000     -10.298604      -280.2393 
  10   2.0000     -10.297025      -280.1963 
  11   2.0000     -10.294202      -280.1195 
  12   2.0000     -10.287555      -279.9386 
  13   2.0000     -10.272384      -279.5258 
  14   2.0000     -10.269779      -279.4549 
  15   2.0000     -10.267046      -279.3805 
  16   2.0000     -10.260784      -279.2101 
  17   2.0000     -10.257203      -279.1127 
  18   2.0000     -10.247443      -278.8471 
  19   2.0000     -10.243395      -278.7369 
  20   2.0000     -10.235955      -278.5345 
  21   2.0000     -10.227057      -278.2924 
  22   2.0000     -10.227051      -278.2922 
  23   2.0000     -10.227031      -278.2916 
  24   2.0000     -10.225865      -278.2599 
  25   2.0000     -10.223136      -278.1857 
  26   2.0000     -10.218706      -278.0651 
  27   2.0000      -1.200131       -32.6572 
  28   2.0000      -1.159107       -31.5409 
  29   2.0000      -1.109660       -30.1954 
  30   2.0000      -1.071259       -29.1504 
  31   2.0000      -1.056126       -28.7386 
  32   2.0000      -1.017937       -27.6995 
  33   2.0000      -0.958521       -26.0827 
  34   2.0000      -0.893012       -24.3001 
  35   2.0000      -0.879674       -23.9372 
  36   2.0000      -0.840825       -22.8800 
  37   2.0000      -0.824533       -22.4367 
  38   2.0000      -0.803876       -21.8746 
  39   2.0000      -0.788115       -21.4457 
  40   2.0000      -0.776806       -21.1380 
  41   2.0000      -0.749853       -20.4045 
  42   2.0000      -0.724820       -19.7233 
  43   2.0000      -0.721783       -19.6407 
  44   2.0000      -0.704837       -19.1796 
  45   2.0000      -0.691690       -18.8218 
  46   2.0000      -0.668637       -18.1945 
  47   2.0000      -0.660805       -17.9814 
  48   2.0000      -0.626332       -17.0434 
  49   2.0000      -0.613211       -16.6863 
  50   2.0000      -0.607018       -16.5178 
  51   2.0000      -0.577189       -15.7061 
  52   2.0000      -0.561056       -15.2671 
  53   2.0000      -0.554738       -15.0952 
  54   2.0000      -0.547275       -14.8921 
  55   2.0000      -0.542895       -14.7729 
  56   2.0000      -0.532460       -14.4890 
  57   2.0000      -0.526059       -14.3148 
  58   2.0000      -0.521195       -14.1824 
  59   2.0000      -0.512520       -13.9464 
  60   2.0000      -0.509425       -13.8622 
  61   2.0000      -0.502979       -13.6868 
  62   2.0000      -0.495328       -13.4786 
  63   2.0000      -0.488745       -13.2994 
  64   2.0000      -0.485269       -13.2048 
  65   2.0000      -0.478516       -13.0211 
  66   2.0000      -0.474338       -12.9074 
  67   2.0000      -0.463323       -12.6077 
  68   2.0000      -0.461519       -12.5586 
  69   2.0000      -0.455942       -12.4068 
  70   2.0000      -0.452746       -12.3198 
  71   2.0000      -0.444112       -12.0849 
  72   2.0000      -0.436488       -11.8774 
  73   2.0000      -0.428047       -11.6477 
  74   2.0000      -0.421418       -11.4674 
  75   2.0000      -0.409407       -11.1405 
  76   2.0000      -0.402984       -10.9658 
  77   2.0000      -0.400494       -10.8980 
  78   2.0000      -0.395894       -10.7728 
  79   2.0000      -0.394493       -10.7347 
  80   2.0000      -0.392158       -10.6712 
  81   2.0000      -0.380289       -10.3482 
  82   2.0000      -0.379261       -10.3202 
  83   2.0000      -0.373144       -10.1538 
  84   2.0000      -0.370579       -10.0840 
  85   2.0000      -0.366517        -9.9734 
  86   2.0000      -0.342725        -9.3260 
  87   2.0000      -0.341269        -9.2864 
  88   2.0000      -0.333937        -9.0869 
  89   2.0000      -0.332448        -9.0464 
  90   2.0000      -0.310920        -8.4606 
  91   2.0000      -0.309139        -8.4121 
  92   2.0000      -0.303814        -8.2672 
  93   2.0000      -0.285387        -7.7658 
  94   2.0000      -0.269854        -7.3431 
  95   2.0000      -0.263391        -7.1672 
  96   2.0000      -0.238515        -6.4903 
  97   2.0000      -0.226787        -6.1712 
  98   2.0000      -0.202932        -5.5221 
  99   0.0000      -0.069822        -1.9000 
 100   0.0000      -0.031883        -0.8676 
 101   0.0000      -0.012991        -0.3535 
 102   0.0000      -0.003436        -0.0935 
 103   0.0000       0.006288         0.1711 
 104   0.0000       0.015437         0.4201 
 105   0.0000       0.042209         1.1486 
 106   0.0000       0.055863         1.5201 
 107   0.0000       0.061428         1.6715 
 108   0.0000       0.064134         1.7452 
 109   0.0000       0.070910         1.9296 
 110   0.0000       0.084657         2.3036 
 111   0.0000       0.085995         2.3400 
 112   0.0000       0.090952         2.4749 
 113   0.0000       0.096289         2.6201 
 114   0.0000       0.102242         2.7821 
 115   0.0000       0.103640         2.8202 
 116   0.0000       0.108203         2.9444 
 117   0.0000       0.112320         3.0564 
 118   0.0000       0.113093         3.0774 
 119   0.0000       0.118577         3.2266 
 120   0.0000       0.121882         3.3166 
 121   0.0000       0.129094         3.5128 
 122   0.0000       0.132171         3.5966 
 123   0.0000       0.133152         3.6232 
 124   0.0000       0.135832         3.6962 
 125   0.0000       0.144766         3.9393 
 126   0.0000       0.147690         4.0189 
 127   0.0000       0.151650         4.1266 
 128   0.0000       0.152152         4.1403 
 129   0.0000       0.154753         4.2110 
 130   0.0000       0.159047         4.3279 
 131   0.0000       0.163378         4.4457 
 132   0.0000       0.165827         4.5124 
 133   0.0000       0.172007         4.6806 
 134   0.0000       0.181339         4.9345 
 135   0.0000       0.184229         5.0131 
 136   0.0000       0.190092         5.1727 
 137   0.0000       0.194738         5.2991 
 138   0.0000       0.199337         5.4242 
 139   0.0000       0.204180         5.5560 
 140   0.0000       0.208538         5.6746 
 141   0.0000       0.209803         5.7090 
 142   0.0000       0.213117         5.7992 
 143   0.0000       0.220248         5.9932 
 144   0.0000       0.226578         6.1655 
 145   0.0000       0.226971         6.1762 
 146   0.0000       0.231075         6.2879 
 147   0.0000       0.239751         6.5239 
 148   0.0000       0.239945         6.5292 
 149   0.0000       0.242432         6.5969 
 150   0.0000       0.250520         6.8170 
 151   0.0000       0.256882         6.9901 
 152   0.0000       0.260850         7.0981 
 153   0.0000       0.263343         7.1659 
 154   0.0000       0.266573         7.2538 
 155   0.0000       0.269102         7.3226 
 156   0.0000       0.275244         7.4898 
 157   0.0000       0.276211         7.5161 
 158   0.0000       0.281244         7.6530 
 159   0.0000       0.284519         7.7422 
 160   0.0000       0.292596         7.9619 
 161   0.0000       0.295982         8.0541 
 162   0.0000       0.298736         8.1290 
 163   0.0000       0.300104         8.1662 
 164   0.0000       0.304727         8.2920 
 165   0.0000       0.313131         8.5207 
 166   0.0000       0.317623         8.6430 
 167   0.0000       0.319018         8.6809 
 168   0.0000       0.323410         8.8004 
 169   0.0000       0.326827         8.8934 
 170   0.0000       0.334238         9.0951 
 171   0.0000       0.339710         9.2440 
 172   0.0000       0.340170         9.2565 
 173   0.0000       0.345367         9.3979 
 174   0.0000       0.352494         9.5919 
 175   0.0000       0.355583         9.6759 
 176   0.0000       0.358583         9.7575 
 177   0.0000       0.361303         9.8316 
 178   0.0000       0.364011         9.9052 
 179   0.0000       0.364441         9.9169 
 180   0.0000       0.367722        10.0062 
 181   0.0000       0.372822        10.1450 
 182   0.0000       0.378332        10.2949 
 183   0.0000       0.382758        10.4154 
 184   0.0000       0.384963        10.4754 
 185   0.0000       0.386431        10.5153 
 186   0.0000       0.393229        10.7003 
 187   0.0000       0.394397        10.7321 
 188   0.0000       0.401658        10.9297 
 189   0.0000       0.402887        10.9631 
 190   0.0000       0.407827        11.0975 
 191   0.0000       0.413725        11.2580 
 192   0.0000       0.414005        11.2657 
 193   0.0000       0.419357        11.4113 
 194   0.0000       0.422669        11.5014 
 195   0.0000       0.424472        11.5505 
 196   0.0000       0.425558        11.5800 
 197   0.0000       0.433867        11.8061 
 198   0.0000       0.438427        11.9302 
 199   0.0000       0.440657        11.9909 
 200   0.0000       0.444117        12.0850 
 201   0.0000       0.449039        12.2190 
 202   0.0000       0.451648        12.2900 
 203   0.0000       0.455453        12.3935 
 204   0.0000       0.456860        12.4318 
 205   0.0000       0.458577        12.4785 
 206   0.0000       0.462745        12.5919 
 207   0.0000       0.468141        12.7388 
 208   0.0000       0.472719        12.8633 
 209   0.0000       0.473915        12.8959 
 210   0.0000       0.478221        13.0131 
 211   0.0000       0.480463        13.0741 
 212   0.0000       0.481589        13.1047 
 213   0.0000       0.484847        13.1934 
 214   0.0000       0.488479        13.2922 
 215   0.0000       0.495229        13.4759 
 216   0.0000       0.497372        13.5342 
 217   0.0000       0.502335        13.6692 
 218   0.0000       0.503779        13.7085 
 219   0.0000       0.505899        13.7662 
 220   0.0000       0.510949        13.9036 
 221   0.0000       0.514947        14.0124 
 222   0.0000       0.516807        14.0630 
[...]
 51:    718.13   0.038529  194.71  0.016743  ( 0.009401  0.121629  0.043135)
 52:    753.27   0.006476   32.73  0.002683  (-0.017284 -0.019059 -0.044954)
 53:    763.77   0.002403   12.15  0.000982  ( 0.008008  0.017727  0.024569)
 54:    767.13   0.029529  149.22  0.012012  (-0.020959  0.106106 -0.017726)
 55:    779.24   0.001637    8.27  0.000655  (-0.014394  0.000140 -0.021171)
 56:    791.67   0.002483   12.55  0.000979  (-0.001674  0.019612  0.024317)
 57:    815.49   0.005834   29.48  0.002232  ( 0.033357 -0.030766 -0.013156)
 58:    824.18   0.001761    8.90  0.000667  (-0.016292 -0.002666 -0.019853)
 59:    840.44   0.004633   23.41  0.001720  ( 0.017351  0.035023  0.013880)
 60:    868.97   0.004266   21.56  0.001532  ( 0.015386  0.032063  0.016344)
 61:    878.80   0.004003   20.23  0.001421  (-0.027429 -0.013408 -0.022121)
 62:    901.79   0.005523   27.91  0.001911  ( 0.032431 -0.023044 -0.018120)
 63:    936.09   0.012567   63.51  0.004190  (-0.016052 -0.062557 -0.004299)
 64:    953.56   0.005119   25.87  0.001675  ( 0.012759 -0.036186 -0.014255)
 65:    957.73   0.004049   20.46  0.001319  (-0.003065  0.014152  0.033310)
 66:    972.05   0.001909    9.65  0.000613  (-0.004845  0.020930  0.012300)
 67:    984.28   0.000186    0.94  0.000059  ( 0.001947 -0.007427 -0.000183)
 68:   1001.79   0.001843    9.31  0.000574  ( 0.019906  0.013243 -0.001574)
 69:   1007.38   0.034723  175.47  0.010756  (-0.006188  0.102814  0.012132)
 70:   1013.51   0.000318    1.61  0.000098  (-0.005498  0.006961  0.004373)
 71:   1050.08   0.009405   47.53  0.002795  ( 0.038432 -0.033528 -0.013919)
 72:   1056.11   0.002506   12.66  0.000740  ( 0.016915 -0.000499 -0.021308)
 73:   1071.54   0.003505   17.71  0.001021  ( 0.030136 -0.003277 -0.010091)
 74:   1072.43   0.010601   53.57  0.003085  (-0.011191  0.020353  0.050452)
 75:   1081.84   0.007577   38.29  0.002185  ( 0.022900  0.040080 -0.007396)
 76:   1087.69   0.011610   58.67  0.003331  ( 0.015525  0.031715  0.045650)
 77:   1101.53   0.000151    0.76  0.000043  ( 0.006304  0.000828  0.001510)
 78:   1108.73   0.003201   16.18  0.000901  (-0.010035  0.012886 -0.025182)
 79:   1124.51   0.002642   13.35  0.000733  ( 0.025265 -0.006833  0.006944)
 80:   1148.18   0.016756   84.68  0.004554  (-0.016149  0.022733  0.061453)
 81:   1157.06   0.000830    4.19  0.000224  (-0.007177 -0.008217  0.010235)
 82:   1170.97   0.000276    1.40  0.000074  ( 0.003515 -0.007489  0.002270)
 83:   1171.45   0.000277    1.40  0.000074  ( 0.000261  0.006544 -0.005553)
 84:   1173.49   0.001049    5.30  0.000279  (-0.005531  0.003114  0.015449)
 85:   1174.70   0.004458   22.53  0.001184  ( 0.017314 -0.029704  0.001480)
 86:   1193.51   0.015973   80.72  0.004176  (-0.041270  0.002244  0.049680)
 87:   1205.58   0.010319   52.15  0.002671  (-0.048488  0.015637 -0.008681)
 88:   1207.56   0.005151   26.03  0.001331  (-0.019683  0.025998  0.016363)
 89:   1211.98   0.006413   32.41  0.001651  ( 0.039421  0.001911 -0.009670)
 90:   1226.57   0.008774   44.34  0.002232  (-0.001627 -0.046209 -0.009711)
 91:   1235.32   0.040291  203.61  0.010178  (-0.075765  0.066068 -0.008537)
 92:   1250.01   0.005173   26.14  0.001291  (-0.009353  0.034696 -0.000265)
 93:   1256.69   0.005718   28.90  0.001420  ( 0.033795 -0.016166  0.004053)
 94:   1260.68   0.083870  423.84  0.020761  ( 0.121524 -0.077029  0.007687)
 95:   1278.31   0.012644   63.90  0.003087  (-0.039067  0.028874  0.026960)
 96:   1306.25   0.067549  341.36  0.016138  ( 0.064558  0.056079  0.093941)
 97:   1328.28   0.012227   61.79  0.002873  ( 0.034902 -0.009526  0.039544)
 98:   1338.42   0.014329   72.41  0.003341  (-0.044757 -0.022342 -0.028959)
 99:   1349.50   0.093266  471.33  0.021567  (-0.033826  0.115283  0.084455)
100:   1369.35   0.027066  136.78  0.006168  ( 0.065472 -0.043266  0.003115)
101:   1375.17   0.031510  159.24  0.007151  (-0.010236  0.077538 -0.032150)
102:   1380.32   0.009726   49.15  0.002199  ( 0.011412  0.033871  0.030355)
103:   1388.94   0.003599   18.19  0.000809  ( 0.018121  0.006106 -0.021045)
104:   1420.02   0.007312   36.95  0.001607  (-0.013540  0.014651  0.034770)
105:   1423.86   0.000529    2.67  0.000116  (-0.010369  0.000783  0.002790)
106:   1450.92   0.032969  166.61  0.007091  (-0.024628  0.066263 -0.045758)
107:   1458.08   0.005515   27.87  0.001180  (-0.026397  0.015513 -0.015588)
108:   1464.98   0.005056   25.55  0.001077  (-0.000344 -0.025830 -0.020241)
109:   1465.40   0.004932   24.92  0.001050  ( 0.006659 -0.030570  0.008447)
110:   1467.45   0.010897   55.07  0.002317  ( 0.044184 -0.017633 -0.007360)
111:   1469.18   0.007455   37.67  0.001583  ( 0.039434 -0.002491 -0.004704)
112:   1472.35   0.003626   18.32  0.000768  (-0.017189  0.014672 -0.016053)
113:   1474.25   0.002464   12.45  0.000521  (-0.002591 -0.010217 -0.020258)
114:   1481.40   0.063709  321.96  0.013421  ( 0.013854 -0.075597  0.086682)
115:   1482.49   0.005885   29.74  0.001239  ( 0.014157  0.031803 -0.005190)
116:   1486.01   0.014814   74.87  0.003111  ( 0.001721  0.052939 -0.017478)
117:   1496.29   0.011221   56.71  0.002340  ( 0.034927  0.025978 -0.021107)
118:   1498.16   0.014648   74.03  0.003051  ( 0.031917  0.024649  0.037749)
119:   1503.62   0.002200   11.12  0.000457  (-0.018724  0.005852  0.008476)
120:   1519.06   0.002098   10.60  0.000431  ( 0.012564  0.010173 -0.013026)
121:   1542.52   0.034371  173.70  0.006953  (-0.051320 -0.036121 -0.054910)
122:   1605.22   0.035022  176.99  0.006808  (-0.029631 -0.066670  0.038541)
123:   1651.07   0.007793   39.38  0.001473  (-0.005928 -0.015423 -0.034639)
124:   1663.86   0.010227   51.69  0.001918  (-0.031622 -0.021107 -0.021742)
125:   1683.74   0.039217  198.19  0.007269  (-0.082340 -0.015449 -0.015811)
126:   1790.97   0.103763  524.37  0.018080  ( 0.065691  0.082357  0.083558)
127:   2992.31   0.020994  106.10  0.002189  ( 0.004241  0.041445  0.021303)
128:   3002.97   0.029484  149.00  0.003064  (-0.034237  0.035534 -0.025082)
129:   3038.16   0.013198   66.70  0.001356  (-0.010285  0.010447  0.033774)
130:   3072.50   0.005943   30.03  0.000604  ( 0.017386 -0.016283 -0.006016)
131:   3077.14   0.013844   69.96  0.001404  (-0.032996 -0.008850  0.015391)
132:   3085.68   0.007850   39.67  0.000794  (-0.018804 -0.001689  0.020916)
133:   3106.10   0.001361    6.88  0.000137  ( 0.001404 -0.009365 -0.006860)
134:   3110.47   0.007695   38.89  0.000772  ( 0.008483 -0.024283  0.010505)
135:   3119.65   0.000952    4.81  0.000095  ( 0.009347 -0.002069  0.001900)
136:   3133.32   0.005471   27.65  0.000545  (-0.003690  0.009862 -0.020832)
137:   3144.67   0.007555   38.18  0.000750  ( 0.005541  0.026478  0.004234)
138:   3156.87   0.003742   18.91  0.000370  ( 0.004800  0.013460 -0.012872)
139:   3162.69   0.003844   19.42  0.000379  (-0.016487 -0.008364 -0.006121)
140:   3182.54   0.001300    6.57  0.000127  (-0.006399  0.001511  0.009179)
141:   3190.15   0.002039   10.31  0.000200  ( 0.010729  0.003375  0.008544)
142:   3194.28   0.001899    9.60  0.000186  ( 0.010725  0.000434 -0.008384)
143:   3205.89   0.001539    7.78  0.000150  (-0.011277  0.002093 -0.004271)
144:   3212.16   0.004087   20.65  0.000397  ( 0.015740  0.007144  0.009914)
145:   3212.64   0.006165   31.15  0.000599  (-0.018949  0.009430  0.012282)
146:   3229.86   0.000506    2.56  0.000049  ( 0.003712 -0.000946 -0.005852)
147:   3231.85   0.000527    2.66  0.000051  (-0.005149 -0.000584 -0.004901)
148:   3238.06   0.000243    1.23  0.000023  ( 0.004770 -0.000575  0.000568)
149:   3249.61   0.000010    0.05  0.000001  (-0.000336 -0.000762 -0.000548)

* The epsilon (eps) is given for a Dirac delta lineshape.
** The dipole moment derivative (T) already includes vibrational overlap.

The first frequency considered to be a vibration is 7
The total number of vibrations considered is 143


--------------------------
THERMOCHEMISTRY AT 298.15K
--------------------------

Temperature         ... 298.15 K
Pressure            ... 1.00 atm
Total Mass          ... 373.41 AMU

Throughout the following assumptions are being made:
  (1) The electronic state is orbitally nondegenerate
  (2) There are no thermally accessible electronically excited states
  (3) Hindered rotations indicated by low frequency modes are not
      treated as such but are treated as vibrations and this may
      cause some error
  (4) All equations used are the standard statistical mechanics
      equations for an ideal gas
  (5) All vibrations are strictly harmonic

freq.      31.01  E(vib)   ...       0.55 
freq.      51.51  E(vib)   ...       0.52 
freq.      65.53  E(vib)   ...       0.50 
freq.      77.71  E(vib)   ...       0.49 
freq.      81.78  E(vib)   ...       0.48 
freq.      88.12  E(vib)   ...       0.48 
freq.      93.07  E(vib)   ...       0.47 
freq.     105.59  E(vib)   ...       0.45 
freq.     114.45  E(vib)   ...       0.44 
freq.     121.77  E(vib)   ...       0.44 
freq.     130.98  E(vib)   ...       0.42 
freq.     142.41  E(vib)   ...       0.41 
freq.     150.63  E(vib)   ...       0.40 
freq.     157.39  E(vib)   ...       0.40 
freq.     164.24  E(vib)   ...       0.39 
freq.     184.48  E(vib)   ...       0.37 
freq.     198.37  E(vib)   ...       0.35 
freq.     201.13  E(vib)   ...       0.35 
freq.     212.12  E(vib)   ...       0.34 
freq.     227.27  E(vib)   ...       0.33 
freq.     244.75  E(vib)   ...       0.31 
freq.     253.56  E(vib)   ...       0.30 
freq.     267.27  E(vib)   ...       0.29 
freq.     293.41  E(vib)   ...       0.27 
freq.     295.61  E(vib)   ...       0.27 
freq.     308.64  E(vib)   ...       0.26 
freq.     330.11  E(vib)   ...       0.24 
freq.     364.31  E(vib)   ...       0.22 
freq.     399.85  E(vib)   ...       0.19 
freq.     414.21  E(vib)   ...       0.19 
freq.     423.64  E(vib)   ...       0.18 
freq.     454.60  E(vib)   ...       0.16 
freq.     481.56  E(vib)   ...       0.15 
freq.     496.58  E(vib)   ...       0.14 
freq.     514.99  E(vib)   ...       0.13 
freq.     552.97  E(vib)   ...       0.12 
freq.     566.69  E(vib)   ...       0.11 
freq.     585.01  E(vib)   ...       0.11 
freq.     594.42  E(vib)   ...       0.10 
freq.     621.96  E(vib)   ...       0.09 
freq.     638.85  E(vib)   ...       0.09 
freq.     648.21  E(vib)   ...       0.08 
freq.     672.45  E(vib)   ...       0.08 
freq.     706.01  E(vib)   ...       0.07 
freq.     718.13  E(vib)   ...       0.07 
freq.     753.27  E(vib)   ...       0.06 
freq.     763.77  E(vib)   ...       0.06 
freq.     767.13  E(vib)   ...       0.06 
freq.     779.24  E(vib)   ...       0.05 
freq.     791.67  E(vib)   ...       0.05 
freq.     815.49  E(vib)   ...       0.05 
freq.     824.18  E(vib)   ...       0.05 
freq.     840.44  E(vib)   ...       0.04 
freq.     868.97  E(vib)   ...       0.04 
freq.     878.80  E(vib)   ...       0.04 
freq.     901.79  E(vib)   ...       0.03 
freq.     936.09  E(vib)   ...       0.03 
freq.     953.56  E(vib)   ...       0.03 
freq.     957.73  E(vib)   ...       0.03 
freq.     972.05  E(vib)   ...       0.03 
freq.     984.28  E(vib)   ...       0.02 
freq.    1001.79  E(vib)   ...       0.02 
freq.    1007.38  E(vib)   ...       0.02 
freq.    1013.51  E(vib)   ...       0.02 
freq.    1050.08  E(vib)   ...       0.02 
freq.    1056.11  E(vib)   ...       0.02 
freq.    1071.54  E(vib)   ...       0.02 
freq.    1072.43  E(vib)   ...       0.02 
freq.    1081.84  E(vib)   ...       0.02 
freq.    1087.69  E(vib)   ...       0.02 
freq.    1101.53  E(vib)   ...       0.02 
freq.    1108.73  E(vib)   ...       0.02 
freq.    1124.51  E(vib)   ...       0.01 
freq.    1148.18  E(vib)   ...       0.01 
freq.    1157.06  E(vib)   ...       0.01 
freq.    1170.97  E(vib)   ...       0.01 
freq.    1171.45  E(vib)   ...       0.01 
freq.    1173.49  E(vib)   ...       0.01 
freq.    1174.70  E(vib)   ...       0.01 
freq.    1193.51  E(vib)   ...       0.01 
freq.    1205.58  E(vib)   ...       0.01 
freq.    1207.56  E(vib)   ...       0.01 
freq.    1211.98  E(vib)   ...       0.01 
freq.    1226.57  E(vib)   ...       0.01 
freq.    1235.32  E(vib)   ...       0.01 
freq.    1250.01  E(vib)   ...       0.01 
freq.    1256.69  E(vib)   ...       0.01 
freq.    1260.68  E(vib)   ...       0.01 
freq.    1278.31  E(vib)   ...       0.01 
freq.    1306.25  E(vib)   ...       0.01 
freq.    1328.28  E(vib)   ...       0.01 
freq.    1338.42  E(vib)   ...       0.01 
freq.    1349.50  E(vib)   ...       0.01 
freq.    1369.35  E(vib)   ...       0.01 
freq.    1375.17  E(vib)   ...       0.01 
freq.    1380.32  E(vib)   ...       0.01 
freq.    1388.94  E(vib)   ...       0.00 
freq.    1420.02  E(vib)   ...       0.00 
freq.    1423.86  E(vib)   ...       0.00 
freq.    1450.92  E(vib)   ...       0.00 
freq.    1458.08  E(vib)   ...       0.00 
freq.    1464.98  E(vib)   ...       0.00 
freq.    1465.40  E(vib)   ...       0.00 
freq.    1467.45  E(vib)   ...       0.00 
freq.    1469.18  E(vib)   ...       0.00 
freq.    1472.35  E(vib)   ...       0.00 
freq.    1474.25  E(vib)   ...       0.00 
freq.    1481.40  E(vib)   ...       0.00 
freq.    1482.49  E(vib)   ...       0.00 
freq.    1486.01  E(vib)   ...       0.00 
freq.    1496.29  E(vib)   ...       0.00 
freq.    1498.16  E(vib)   ...       0.00 
freq.    1503.62  E(vib)   ...       0.00 
freq.    1519.06  E(vib)   ...       0.00 
freq.    1542.52  E(vib)   ...       0.00 
freq.    1605.22  E(vib)   ...       0.00 
freq.    1651.07  E(vib)   ...       0.00 
freq.    1663.86  E(vib)   ...       0.00 
freq.    1683.74  E(vib)   ...       0.00 
freq.    1790.97  E(vib)   ...       0.00 
freq.    2992.31  E(vib)   ...       0.00 
freq.    3002.97  E(vib)   ...       0.00 
freq.    3038.16  E(vib)   ...       0.00 
freq.    3072.50  E(vib)   ...       0.00 
freq.    3077.14  E(vib)   ...       0.00 
freq.    3085.68  E(vib)   ...       0.00 
freq.    3106.10  E(vib)   ...       0.00 
freq.    3110.47  E(vib)   ...       0.00 
freq.    3119.65  E(vib)   ...       0.00 
freq.    3133.32  E(vib)   ...       0.00 
freq.    3144.67  E(vib)   ...       0.00 
freq.    3156.87  E(vib)   ...       0.00 
freq.    3162.69  E(vib)   ...       0.00 
freq.    3182.54  E(vib)   ...       0.00 
freq.    3190.15  E(vib)   ...       0.00 
freq.    3194.28  E(vib)   ...       0.00 
freq.    3205.89  E(vib)   ...       0.00 
freq.    3212.16  E(vib)   ...       0.00 
freq.    3212.64  E(vib)   ...       0.00 
freq.    3229.86  E(vib)   ...       0.00 
freq.    3231.85  E(vib)   ...       0.00 
freq.    3238.06  E(vib)   ...       0.00 
freq.    3249.61  E(vib)   ...       0.00 

------------
INNER ENERGY
------------

The inner energy is: U= E(el) + E(ZPE) + E(vib) + E(rot) + E(trans)
    E(el)   - is the total energy from the electronic structure calculation
              = E(kin-el) + E(nuc-el) + E(el-el) + E(nuc-nuc)
    E(ZPE)  - the the zero temperature vibrational energy from the frequency calculation
    E(vib)  - the the finite temperature correction to E(ZPE) due to population
              of excited vibrational states
    E(rot)  - is the rotational thermal energy
    E(trans)- is the translational thermal energy

Summary of contributions to the inner energy U:
Electronic energy                ...  -1277.19254821 Eh
Zero point energy                ...      0.40663405 Eh     255.17 kcal/mol
Thermal vibrational correction   ...      0.02223758 Eh      13.95 kcal/mol
Thermal rotational correction    ...      0.00141627 Eh       0.89 kcal/mol
Thermal translational correction ...      0.00141627 Eh       0.89 kcal/mol
-----------------------------------------------------------------------
Total thermal energy                  -1276.76084404 Eh


Summary of corrections to the electronic energy:
(perhaps to be used in another calculation)
Total thermal correction                  0.02507012 Eh      15.73 kcal/mol
Non-thermal (ZPE) correction              0.40663405 Eh     255.17 kcal/mol
-----------------------------------------------------------------------
Total correction                          0.43170417 Eh     270.90 kcal/mol


--------
ENTHALPY
--------

The enthalpy is H = U + kB*T
                kB is Boltzmann's constant
Total free energy                 ...  -1276.76084404 Eh 
Thermal Enthalpy correction       ...      0.00094421 Eh       0.59 kcal/mol
-----------------------------------------------------------------------
Total Enthalpy                    ...  -1276.75989983 Eh


Note: Only C1 symmetry has been detected, increase convergence thresholds 
      if your molecule has a higher symmetry. Symmetry factor of 1.0 is   
      used for the rotational entropy correction. 
 

Note: Rotational entropy computed according to Herzberg 
Infrared and Raman Spectra, Chapter V,1, Van Nostrand Reinhold, 1945 
Point Group:  C1, Symmetry Number:   1  
Rotational constants in cm-1:     0.010089     0.006684     0.005317 

Vibrational entropy computed according to the QRRHO of S. Grimme
Chem.Eur.J. 2012 18 9955


-------
ENTROPY
-------

The entropy contributions are T*S = T*(S(el)+S(vib)+S(rot)+S(trans))
     S(el)   - electronic entropy
     S(vib)  - vibrational entropy
     S(rot)  - rotational entropy
     S(trans)- translational entropy
The entropies will be listed as multiplied by the temperature to get
units of energy

Electronic entropy                ...      0.00000000 Eh      0.00 kcal/mol
Vibrational entropy               ...      0.03944186 Eh     24.75 kcal/mol
Rotational entropy                ...      0.01651718 Eh     10.36 kcal/mol
Translational entropy             ...      0.02073719 Eh     13.01 kcal/mol
-----------------------------------------------------------------------
Final entropy term                ...      0.07669623 Eh     48.13 kcal/mol

In case the symmetry of your molecule has not been determined correctly
or in case you have a reason to use a different symmetry number we print 
out the resulting rotational entropy values for sn=1,12 :
 --------------------------------------------------------
|  sn= 1 | S(rot)=       0.01651718 Eh     10.36 kcal/mol|
|  sn= 2 | S(rot)=       0.01586272 Eh      9.95 kcal/mol|
|  sn= 3 | S(rot)=       0.01547989 Eh      9.71 kcal/mol|
|  sn= 4 | S(rot)=       0.01520827 Eh      9.54 kcal/mol|
|  sn= 5 | S(rot)=       0.01499758 Eh      9.41 kcal/mol|
|  sn= 6 | S(rot)=       0.01482544 Eh      9.30 kcal/mol|
|  sn= 7 | S(rot)=       0.01467989 Eh      9.21 kcal/mol|
|  sn= 8 | S(rot)=       0.01455381 Eh      9.13 kcal/mol|
|  sn= 9 | S(rot)=       0.01444260 Eh      9.06 kcal/mol|
|  sn=10 | S(rot)=       0.01434312 Eh      9.00 kcal/mol|
|  sn=11 | S(rot)=       0.01425313 Eh      8.94 kcal/mol|
|  sn=12 | S(rot)=       0.01417098 Eh      8.89 kcal/mol|
 --------------------------------------------------------


-------------------
GIBBS FREE ENERGY
-------------------

The Gibbs free energy is G = H - T*S

Total enthalpy                    ...  -1276.75989983 Eh 
Total entropy correction          ...     -0.07669623 Eh    -48.13 kcal/mol
-----------------------------------------------------------------------
Final Gibbs free energy         ...  -1276.83659606 Eh

For completeness - the Gibbs free energy minus the electronic energy
G-E(el)                           ...      0.35595216 Eh    223.36 kcal/mol


Timings for individual modules:

Sum of individual times         ...     7079.283 sec (= 117.988 min)
GTO integral calculation        ...       52.567 sec (=   0.876 min)   0.7 %
SCF iterations                  ...     2605.824 sec (=  43.430 min)  36.8 %
SCF Gradient evaluation         ...      692.272 sec (=  11.538 min)   9.8 %
Geometry relaxation             ...        3.762 sec (=   0.063 min)   0.1 %
Analytical frequency calculation...     3724.858 sec (=  62.081 min)  52.6 %
                             ****ORCA TERMINATED NORMALLY****
TOTAL RUN TIME: 0 days 1 hours 59 minutes 3 seconds 344 msec
