
                                 *****************
                                 * O   R   C   A *
                                 *****************

                                            #,                                       
                                            ###                                      
                                            ####                                     
                                            #####                                    
                                            ######                                   
                                           ########,                                 
                                     ,,################,,,,,                         
                               ,,#################################,,                 
                          ,,##########################################,,             
                       ,#########################################, ''#####,          
                    ,#############################################,,   '####,        
                  ,##################################################,,,,####,       
                ,###########''''           ''''###############################       
              ,#####''   ,,,,##########,,,,          '''####'''          '####       
            ,##' ,,,,###########################,,,                        '##       
           ' ,,###''''                  '''############,,,                           
         ,,##''                                '''############,,,,        ,,,,,,###''
      ,#''                                            '''#######################'''  
     '                                                          ''''####''''         
             ,#######,   #######,   ,#######,      ##                                
            ,#'     '#,  ##    ##  ,#'     '#,    #''#        ######   ,####,        
            ##       ##  ##   ,#'  ##            #'  '#       #        #'  '#        
            ##       ##  #######   ##           ,######,      #####,   #    #        
            '#,     ,#'  ##    ##  '#,     ,#' ,#      #,         ##   #,  ,#        
             '#######'   ##     ##  '#######'  #'      '#     #####' # '####'        



                  #######################################################
                  #                        -***-                        #
                  #          Department of theory and spectroscopy      #
                  #    Directorship and core code : Frank Neese         #
                  #        Max Planck Institute fuer Kohlenforschung    #
                  #                Kaiser Wilhelm Platz 1               #
                  #                 D-45470 Muelheim/Ruhr               #
                  #                      Germany                        #
                  #                                                     #
                  #                  All rights reserved                #
                  #                        -***-                        #
                  #######################################################


                         Program Version 5.0.4 -  RELEASE  -


 With contributions from (in alphabetic order):
   Daniel Aravena         : Magnetic Suceptibility
   Michael Atanasov       : Ab Initio Ligand Field Theory (pilot matlab implementation)
   Alexander A. Auer      : GIAO ZORA, VPT2 properties, NMR spectrum
   Ute Becker             : Parallelization
   Giovanni Bistoni       : ED, misc. LED, open-shell LED, HFLD
   Martin Brehm           : Molecular dynamics
   Dmytro Bykov           : SCF Hessian
   Vijay G. Chilkuri      : MRCI spin determinant printing, contributions to CSF-ICE
   Dipayan Datta          : RHF DLPNO-CCSD density
   Achintya Kumar Dutta   : EOM-CC, STEOM-CC
   Dmitry Ganyushin       : Spin-Orbit,Spin-Spin,Magnetic field MRCI
   Miquel Garcia          : C-PCM and meta-GGA Hessian, CC/C-PCM, Gaussian charge scheme
   Yang Guo               : DLPNO-NEVPT2, F12-NEVPT2, CIM, IAO-localization
   Andreas Hansen         : Spin unrestricted coupled pair/coupled cluster methods
   Benjamin Helmich-Paris : MC-RPA, TRAH-SCF, COSX integrals
   Lee Huntington         : MR-EOM, pCC
   Robert Izsak           : Overlap fitted RIJCOSX, COSX-SCS-MP3, EOM
   Marcus Kettner         : VPT2
   Christian Kollmar      : KDIIS, OOCD, Brueckner-CCSD(T), CCSD density, CASPT2, CASPT2-K
   Simone Kossmann        : Meta GGA functionals, TD-DFT gradient, OOMP2, MP2 Hessian
   Martin Krupicka        : Initial AUTO-CI
   Lucas Lang             : DCDCAS
   Marvin Lechner         : AUTO-CI (C++ implementation), FIC-MRCC
   Dagmar Lenk            : GEPOL surface, SMD
   Dimitrios Liakos       : Extrapolation schemes; Compound Job, initial MDCI parallelization
   Dimitrios Manganas     : Further ROCIS development; embedding schemes
   Dimitrios Pantazis     : SARC Basis sets
   Anastasios Papadopoulos: AUTO-CI, single reference methods and gradients
   Taras Petrenko         : DFT Hessian,TD-DFT gradient, ASA, ECA, R-Raman, ABS, FL, XAS/XES, NRVS
   Peter Pinski           : DLPNO-MP2, DLPNO-MP2 Gradient
   Christoph Reimann      : Effective Core Potentials
   Marius Retegan         : Local ZFS, SOC
   Christoph Riplinger    : Optimizer, TS searches, QM/MM, DLPNO-CCSD(T), (RO)-DLPNO pert. Triples
   Tobias Risthaus        : Range-separated hybrids, TD-DFT gradient, RPA, STAB
   Michael Roemelt        : Original ROCIS implementation
   Masaaki Saitow         : Open-shell DLPNO-CCSD energy and density
   Barbara Sandhoefer     : DKH picture change effects
   Avijit Sen             : IP-ROCIS
   Kantharuban Sivalingam : CASSCF convergence, NEVPT2, FIC-MRCI
   Bernardo de Souza      : ESD, SOC TD-DFT
   Georgi Stoychev        : AutoAux, RI-MP2 NMR, DLPNO-MP2 response
   Willem Van den Heuvel  : Paramagnetic NMR
   Boris Wezisla          : Elementary symmetry handling
   Frank Wennmohs         : Technical directorship


 We gratefully acknowledge several colleagues who have allowed us to
 interface, adapt or use parts of their codes:
   Stefan Grimme, W. Hujo, H. Kruse, P. Pracht,  : VdW corrections, initial TS optimization,
                  C. Bannwarth, S. Ehlert          DFT functionals, gCP, sTDA/sTD-DF
   Ed Valeev, F. Pavosevic, A. Kumar             : LibInt (2-el integral package), F12 methods
   Garnet Chan, S. Sharma, J. Yang, R. Olivares  : DMRG
   Ulf Ekstrom                                   : XCFun DFT Library
   Mihaly Kallay                                 : mrcc  (arbitrary order and MRCC methods)
   Jiri Pittner, Ondrej Demel                    : Mk-CCSD
   Frank Weinhold                                : gennbo (NPA and NBO analysis)
   Christopher J. Cramer and Donald G. Truhlar   : smd solvation model
   Lars Goerigk                                  : TD-DFT with DH, B97 family of functionals
   V. Asgeirsson, H. Jonsson                     : NEB implementation
   FAccTs GmbH                                   : IRC, NEB, NEB-TS, DLPNO-Multilevel, CI-OPT
                                                   MM, QMMM, 2- and 3-layer-ONIOM, Crystal-QMMM,
                                                   LR-CPCM, SF, NACMEs, symmetry and pop. for TD-DFT,
                                                   nearIR, NL-DFT gradient (VV10), updates on ESD,
                                                   ML-optimized integration grids
   S Lehtola, MJT Oliveira, MAL Marques          : LibXC Library
   Liviu Ungur et al                             : ANISO software


 Your calculation uses the libint2 library for the computation of 2-el integrals
 For citations please refer to: http://libint.valeyev.net

 Your ORCA version has been built with support for libXC version: 5.1.0
 For citations please refer to: https://tddft.org/programs/libxc/

 This ORCA versions uses:
   CBLAS   interface :  Fast vector & matrix operations
   LAPACKE interface :  Fast linear algebra routines
   SCALAPACK package :  Parallel linear algebra routines
   Shared memory     :  Shared parallel matrices
   BLAS/LAPACK       :  OpenBLAS 0.3.15  USE64BITINT DYNAMIC_ARCH NO_AFFINITY Haswell SINGLE_THREADED
        Core in use  :  Haswell
   Copyright (c) 2011-2014, The OpenBLAS Project


Your calculation utilizes the atom-pairwise dispersion correction
with the Becke-Johnson damping scheme (D3BJ)
Cite in your paper:
S.Grimme, S.Ehrlich, L.Goerigk, J Comput Chem, (2011), 32, 1456–1465 
S.Grimme, J.Antony, S.Ehrlich and H.Krieg, J.Chem.Phys., 132, (2010), 154104 
   

================================================================================

----- Orbital basis set information -----
Your calculation utilizes the basis: def2-TZVP
   F. Weigend and R. Ahlrichs, Phys. Chem. Chem. Phys. 7, 3297 (2005).

----- AuxJ basis set information -----
Your calculation utilizes the auxiliary basis: def2/J
   F. Weigend, Phys. Chem. Chem. Phys. 8, 1057 (2006).

================================================================================
                                        WARNINGS
                       Please study these warnings very carefully!
================================================================================


WARNING: Geometry Optimization
  ===> : Switching off AutoStart
         For restart on a previous wavefunction, please use MOREAD

INFO   : the flag for use of the SHARK integral package has been found!

================================================================================
                                       INPUT FILE
================================================================================
NAME = TS1_N3/TS1_N3.inp
|  1> %pal nprocs 24 end
|  2> %maxcore 3500
|  3> !PBE0 D3BJ def2-TZVP TightOpt TightSCF OPTTS FREQ
|  4> !CPCM(dmso)
|  5> %scf
|  6> MaxIter 800
|  7> end
|  8> %geom
|  9> MaxIter 800
| 10> MaxStep 0.2
| 11> inHess Read
| 12> InHessName "TS1_N3-preopt.hess"
| 13> end
| 14> *xyz 0 1
| 15>   C      4.087042    1.038166    0.281797
| 16>   C      3.739627    1.953357   -0.728541
| 17>   C      2.426793    2.079042   -1.065673
| 18>   N      1.472484    1.387029   -0.409279
| 19>   C      1.765365    0.499822    0.584884
| 20>   C      3.115472    0.340874    0.948599
| 21>   C      0.112242    1.328448   -0.877587
| 22>   C     -0.771938    2.206833   -0.005761
| 23>   O     -0.385590    2.831574    0.947825
| 24>   O     -1.989219    2.275594   -0.513828
| 25>   C     -2.928588    3.086553    0.199038
| 26>   H      5.126721    0.916028    0.562102
| 27>   H      2.075951    2.719715   -1.863760
| 28>   H      0.972222    0.295269    1.292388
| 29>   H      3.356112   -0.316939    1.772748
| 30>   H      0.080343    1.788490   -1.866032
| 31>   H     -3.051541    2.711120    1.214863
| 32>   H     -3.861721    3.005087   -0.351589
| 33>   C      0.771077   -1.109772   -0.468376
| 34>   C     -0.280838   -0.211983   -1.065515
| 35>   C     -1.680475   -0.603489   -0.675417
| 36>   C     -2.525879   -1.125939   -1.641316
| 37>   C     -3.816685   -1.538408   -1.334145
| 38>   C     -4.268915   -1.426335   -0.031115
| 39>   C     -3.444894   -0.903936    0.958391
| 40>   C     -2.158459   -0.493068    0.636789
| 41>   O     -1.301958    0.050618    1.526010
| 42>   C     -1.717809    0.206649    2.868831
| 43>   N      1.824605   -1.448145   -1.286855
| 44>   O      2.059066   -0.727289   -2.277019
| 45>   H     -0.210716   -0.352122   -2.143361
| 46>   H     -2.160107   -1.211629   -2.659200
| 47>   H     -4.457321   -1.943320   -2.108167
| 48>   H     -5.272264   -1.743702    0.229524
| 49>   H     -3.810468   -0.817918    1.972772
| 50>   H     -0.886509    0.681152    3.386112
| 51>   H     -1.930271   -0.763177    3.326403
| 52>   H     -2.602379    0.845365    2.936543
| 53>   O      2.579334   -2.383146   -0.959420
| 54>   H     -2.588414    4.121562    0.226130
| 55>   H      4.485573    2.535150   -1.250460
| 56>   N      0.347300   -2.075867    0.458902
| 57>   N      1.141014   -2.578608    1.238343
| 58>   N      1.740933   -3.138292    2.008768
| 59> 
| 60> **                         ****END OF INPUT****
================================================================================

                       *****************************
                       * Geometry Optimization Run *
                       *****************************

Geometry optimization settings:
Update method            Update   .... Bofill
Choice of coordinates    CoordSys .... Z-matrix Internals
Initial Hessian          InHess   .... Read

Convergence Tolerances:
Energy Change            TolE     ....  1.0000e-06 Eh
Max. Gradient            TolMAXG  ....  1.0000e-04 Eh/bohr
RMS Gradient             TolRMSG  ....  3.0000e-05 Eh/bohr
Max. Displacement        TolMAXD  ....  1.0000e-03 bohr
RMS Displacement         TolRMSD  ....  6.0000e-04 bohr
Strict Convergence                ....  False
------------------------------------------------------------------------------
                        ORCA OPTIMIZATION COORDINATE SETUP
------------------------------------------------------------------------------

The optimization will be done in new redundant internal coordinates
Making redundant internal coordinates   ...  (new redundants) done
Following TS mode number                ...     0
Evaluating the initial hessian          ... (Reading Exact Hessian)...  
InHessName: TS1_N3-preopt.hess	The file <TS1_N3-preopt.hess> is opened as a .hess file
done
done
Diagonalizing the Hessian               .... done
Dimension of the hessian                .... 216
Lowest eigenvalues of the non projected Hessian:
 -0.022260191 -0.000000000 -0.000000000 -0.000000000 -0.000000000
done
Evaluating the coordinates              ...  done
Calculating the B-matrix                .... done
Calculating the G-matrix                .... done
Diagonalizing the G-matrix              .... done
Small eigenvalue found = 3.087e-03
Small eigenvalue found = 4.287e-03
Small eigenvalue found = 6.516e-03
Small eigenvalue found = 9.135e-03
Small eigenvalue found = 1.132e-02
Small eigenvalue found = 1.848e-02
Small eigenvalue found = 2.138e-02
Small eigenvalue found = 2.697e-02
The first mode is                       ....   90
The number of degrees of freedom        ....  126

    -----------------------------------------------------------------
                    Redundant Internal Coordinates


    -----------------------------------------------------------------
         Definition                    Initial Value    d2E/dq (diagonal element)
    -----------------------------------------------------------------
      1. B(C   1,C   0)                  1.4068         0.364500   
      2. B(C   2,C   1)                  1.3612         0.456942   
      3. B(N   3,C   2)                  1.3492         0.419070   
      4. B(C   4,N   3)                  1.3643         0.402725   
      5. B(C   5,C   4)                  1.4072         0.366548   
      6. B(C   5,C   0)                  1.3692         0.446907   
      7. B(C   6,N   3)                  1.4398         0.366824   
      8. B(C   7,C   6)                  1.5210         0.274864   
      9. B(O   8,C   7)                  1.2037         0.839815   
     10. B(O   9,C   7)                  1.3208         0.453725   
     11. B(C  10,O   9)                  1.4312         0.325269   
     12. B(H  11,C   0)                  1.0837         0.363686   
     13. B(H  12,C   2)                  1.0819         0.369990   
     14. B(H  13,C   4)                  1.0823         0.362148   
     15. B(H  14,C   5)                  1.0816         0.368385   
     16. B(H  15,C   6)                  1.0907         0.344927   
     17. B(H  16,C  10)                  1.0899         0.347253   
     18. B(H  17,C  10)                  1.0865         0.355615   
     19. B(C  19,C  18)                  1.5064         0.310522   
     20. B(C  19,C   6)                  1.6009         0.257504   
     21. B(C  20,C  19)                  1.5048         0.313885   
     22. B(C  21,C  20)                  1.3859         0.414090   
     23. B(C  22,C  21)                  1.3895         0.402657   
     24. B(C  23,C  22)                  1.3838         0.416085   
     25. B(C  24,C  23)                  1.3896         0.404385   
     26. B(C  25,C  24)                  1.3882         0.401798   
     27. B(C  25,C  20)                  1.4009         0.390188   
     28. B(O  26,C  25)                  1.3490         0.432787   
     29. B(C  27,O  26)                  1.4144         0.345526   
     30. B(N  28,C  18)                  1.3763         0.401613   
     31. B(O  29,N  28)                  1.2470         0.551755   
     32. B(H  30,C  19)                  1.0892         0.344479   
     33. B(H  31,C  21)                  1.0850         0.358970   
     34. B(H  32,C  22)                  1.0833         0.362769   
     35. B(H  33,C  23)                  1.0841         0.361079   
     36. B(H  34,C  24)                  1.0817         0.367834   
     37. B(H  35,C  27)                  1.0880         0.351579   
     38. B(H  36,C  27)                  1.0932         0.337695   
     39. B(H  37,C  27)                  1.0932         0.337737   
     40. B(O  38,N  28)                  1.2454         0.560360   
     41. B(H  39,C  10)                  1.0898         0.346760   
     42. B(H  40,C   1)                  1.0804         0.370885   
     43. B(N  41,C  18)                  1.4046         0.370825   
     44. B(N  42,N  41)                  1.2208         0.715807   
     45. B(N  43,N  42)                  1.1255         1.225063   
     46. A(C   1,C   0,C   5)          120.3856         0.079956   
     47. A(C   1,C   0,H  11)          119.7360         0.079975   
     48. A(C   5,C   0,H  11)          119.8274         0.080132   
     49. A(C   2,C   1,H  40)          119.7692         0.078494   
     50. A(C   0,C   1,C   2)          118.4316         0.081581   
     51. A(C   0,C   1,H  40)          121.7857         0.077985   
     52. A(N   3,C   2,H  12)          115.6728         0.094767   
     53. A(C   1,C   2,N   3)          120.9506         0.090763   
     54. A(C   1,C   2,H  12)          123.3756         0.085022   
     55. A(C   2,N   3,C   4)          122.4259         0.097694   
     56. A(C   4,N   3,C   6)          114.4171         0.179263   
     57. A(C   2,N   3,C   6)          122.0627         0.149548   
     58. A(N   3,C   4,H  13)          116.2267         0.077629   
     59. A(C   5,C   4,H  13)          120.8471         0.071282   
     60. A(N   3,C   4,C   5)          117.8885         0.087137   
     61. A(C   0,C   5,C   4)          119.8265         0.084380   
     62. A(C   0,C   5,H  14)          121.5290         0.080032   
     63. A(C   4,C   5,H  14)          118.6258         0.080552   
     64. A(H  15,C   6,C  19)          106.9951         0.045461   
     65. A(C   7,C   6,C  19)          118.7023         0.159635   
     66. A(N   3,C   6,C  19)          108.0177         0.220507   
     67. A(C   7,C   6,H  15)          105.0028         0.037666   
     68. A(N   3,C   6,C   7)          109.8321         0.122448   
     69. A(N   3,C   6,H  15)          107.7720         0.039846   
     70. A(C   6,C   7,O   9)          110.2014         0.167404   
     71. A(C   6,C   7,O   8)          124.5584         0.161017   
     72. A(O   8,C   7,O   9)          124.9952         0.200892   
     73. A(C   7,O   9,C  10)          116.2829         0.277768   
     74. A(O   9,C  10,H  39)          110.2215         0.139969   
     75. A(H  16,C  10,H  17)          110.4632         0.067235   
     76. A(O   9,C  10,H  17)          105.5920         0.143242   
     77. A(O   9,C  10,H  16)          110.0653         0.142967   
     78. A(H  17,C  10,H  39)          110.6020         0.066984   
     79. A(H  16,C  10,H  39)          109.8265         0.068165   
     80. A(C  19,C  18,N  28)          116.4436         0.184822   
     81. A(N  28,C  18,N  41)          117.0295         0.179033   
     82. A(C  19,C  18,N  41)          117.4492         0.156953   
     83. A(C   6,C  19,C  20)          116.6347         0.181914   
     84. A(C   6,C  19,C  18)          110.8240         0.221118   
     85. A(C  20,C  19,H  30)          106.4360         0.033462   
     86. A(C  18,C  19,H  30)          105.7027         0.039147   
     87. A(C   6,C  19,H  30)          102.9541         0.047135   
     88. A(C  18,C  19,C  20)          113.0595         0.133757   
     89. A(C  21,C  20,C  25)          118.3211         0.090788   
     90. A(C  19,C  20,C  25)          122.6608         0.171968   
     91. A(C  19,C  20,C  21)          118.9986         0.156280   
     92. A(C  22,C  21,H  31)          119.8101         0.082915   
     93. A(C  20,C  21,H  31)          118.5534         0.083477   
     94. A(C  20,C  21,C  22)          121.6365         0.083606   
     95. A(C  23,C  22,H  32)          120.6514         0.079554   
     96. A(C  21,C  22,H  32)          120.1583         0.079415   
     97. A(C  21,C  22,C  23)          119.1902         0.081415   
     98. A(C  24,C  23,H  33)          119.1864         0.080207   
     99. A(C  22,C  23,H  33)          120.3387         0.080206   
    100. A(C  22,C  23,C  24)          120.4748         0.080762   
    101. A(C  25,C  24,H  34)          120.4581         0.080378   
    102. A(C  23,C  24,H  34)          119.8187         0.082576   
    103. A(C  23,C  24,C  25)          119.7230         0.080710   
    104. A(C  24,C  25,O  26)          123.7055         0.188063   
    105. A(C  20,C  25,O  26)          115.6300         0.176320   
    106. A(C  20,C  25,C  24)          120.6536         0.091354   
    107. A(C  25,O  26,C  27)          118.9205         0.322576   
    108. A(H  36,C  27,H  37)          109.5819         0.069700   
    109. A(H  35,C  27,H  37)          109.5112         0.068447   
    110. A(O  26,C  27,H  37)          111.1727         0.139861   
    111. A(H  35,C  27,H  36)          109.6572         0.068354   
    112. A(O  26,C  27,H  36)          110.8954         0.138818   
    113. A(O  26,C  27,H  35)          105.9530         0.142353   
    114. A(C  18,N  28,O  38)          119.4783         0.220951   
    115. A(C  18,N  28,O  29)          118.2938         0.212377   
    116. A(O  29,N  28,O  38)          121.9249         0.241556   
    117. A(C  18,N  41,N  42)          120.5721         0.240025   
    118. A(N  41,N  42,N  43)          171.2747         0.153516   
    119. D(C   2,C   1,C   0,C   5)     -3.0321         0.009218   
    120. D(H  40,C   1,C   0,C   5)    178.3080         0.008143   
    121. D(H  40,C   1,C   0,H  11)      0.9094         0.008755   
    122. D(C   2,C   1,C   0,H  11)    179.5692         0.008262   
    123. D(H  12,C   2,C   1,C   0)   -176.7748         0.009398   
    124. D(H  12,C   2,C   1,H  40)      1.9128         0.009322   
    125. D(N   3,C   2,C   1,H  40)   -178.4763         0.008967   
    126. D(N   3,C   2,C   1,C   0)      2.8361         0.009879   
    127. D(C   4,N   3,C   2,H  12)    177.3738         0.007248   
    128. D(C   6,N   3,C   2,H  12)     10.0057         0.010168   
    129. D(C   4,N   3,C   2,C   1)     -2.2656         0.008808   
    130. D(C   6,N   3,C   2,C   1)   -169.6338         0.013131   
    131. D(C   5,C   4,N   3,C   6)    169.9677         0.011651   
    132. D(C   5,C   4,N   3,C   2)      1.7113         0.008273   
    133. D(H  13,C   4,N   3,C   2)    156.8618         0.016821   
    134. D(H  13,C   4,N   3,C   6)    -34.8819         0.013029   
    135. D(H  14,C   5,C   4,H  13)     22.6177         0.012421   
    136. D(C   0,C   5,C   4,H  13)   -155.8310         0.013422   
    137. D(H  14,C   5,C   0,H  11)      1.5768         0.009871   
    138. D(C   0,C   5,C   4,N   3)     -1.8768         0.009526   
    139. D(H  14,C   5,C   0,C   1)   -175.8195         0.010198   
    140. D(H  14,C   5,C   4,N   3)    176.5719         0.008338   
    141. D(C   4,C   5,C   0,H  11)    179.9792         0.009115   
    142. D(C   4,C   5,C   0,C   1)      2.5830         0.009279   
    143. D(C  19,C   6,N   3,C   4)    -44.7114         0.054002   
    144. D(C  19,C   6,N   3,C   2)    123.5925         0.045914   
    145. D(H  15,C   6,N   3,C   4)   -159.9900         0.023509   
    146. D(C   7,C   6,N   3,C   2)   -105.5506         0.025730   
    147. D(H  15,C   6,N   3,C   2)      8.3139         0.015025   
    148. D(C   7,C   6,N   3,C   4)     86.1455         0.032292   
    149. D(O   8,C   7,C   6,N   3)     -1.4029         0.033261   
    150. D(O   9,C   7,C   6,C  19)    -61.9416         0.039516   
    151. D(O   9,C   7,C   6,H  15)     57.5131         0.019514   
    152. D(O   9,C   7,C   6,N   3)    173.1445         0.039313   
    153. D(O   8,C   7,C   6,C  19)    123.5110         0.034260   
    154. D(O   8,C   7,C   6,H  15)   -117.0342         0.016490   
    155. D(C  10,O   9,C   7,O   8)     -4.7589         0.019282   
    156. D(C  10,O   9,C   7,C   6)   -179.2772         0.027379   
    157. D(H  39,C  10,O   9,C   7)     61.5479         0.023316   
    158. D(H  17,C  10,O   9,C   7)   -178.9731         0.023120   
    159. D(H  16,C  10,O   9,C   7)    -59.7412         0.023137   
    160. D(H  30,C  19,C  18,N  41)   -122.5380         0.022000   
    161. D(C  20,C  19,C  18,N  41)     -6.4905         0.029610   
    162. D(C  20,C  19,C  18,N  28)    139.6378         0.031236   
    163. D(C   6,C  19,C  18,N  41)    126.6033         0.039960   
    164. D(C   6,C  19,C  18,N  28)    -87.2685         0.049060   
    165. D(H  30,C  19,C   6,H  15)     13.5180         0.014255   
    166. D(H  30,C  19,C   6,C   7)    131.9394         0.018530   
    167. D(H  30,C  19,C   6,N   3)   -102.2698         0.028712   
    168. D(C  20,C  19,C   6,H  15)   -102.5962         0.022433   
    169. D(C  20,C  19,C   6,C   7)     15.8252         0.021626   
    170. D(C  20,C  19,C   6,N   3)    141.6160         0.034216   
    171. D(C  18,C  19,C   6,H  15)    126.1375         0.028269   
    172. D(H  30,C  19,C  18,N  28)     23.5902         0.019717   
    173. D(C  18,C  19,C   6,N   3)     10.3498         0.039495   
    174. D(C  18,C  19,C   6,C   7)   -115.4411         0.027493   
    175. D(C  25,C  20,C  19,H  30)   -176.9705         0.023498   
    176. D(C  25,C  20,C  19,C  18)     67.4184         0.036859   
    177. D(C  25,C  20,C  19,C   6)    -62.8024         0.038933   
    178. D(C  21,C  20,C  19,H  30)      4.6640         0.015768   
    179. D(C  21,C  20,C  19,C  18)   -110.9472         0.030137   
    180. D(C  21,C  20,C  19,C   6)    118.8321         0.030784   
    181. D(C  22,C  21,C  20,C  19)    178.2633         0.006879   
    182. D(H  31,C  21,C  20,C  25)    179.9001         0.007403   
    183. D(H  31,C  21,C  20,C  19)     -1.6630         0.007584   
    184. D(C  22,C  21,C  20,C  25)     -0.1736         0.008194   
    185. D(H  32,C  22,C  21,H  31)     -0.0797         0.008672   
    186. D(H  32,C  22,C  21,C  20)    179.9949         0.008326   
    187. D(C  23,C  22,C  21,H  31)    179.8446         0.008180   
    188. D(C  23,C  22,C  21,C  20)     -0.0807         0.009372   
    189. D(H  33,C  23,C  22,H  32)      0.0055         0.008723   
    190. D(H  33,C  23,C  22,C  21)   -179.9185         0.008388   
    191. D(C  24,C  23,C  22,H  32)   -179.8731         0.008473   
    192. D(C  24,C  23,C  22,C  21)      0.2030         0.009340   
    193. D(H  34,C  24,C  23,H  33)     -0.0950         0.008645   
    194. D(H  34,C  24,C  23,C  22)    179.7850         0.008815   
    195. D(C  25,C  24,C  23,H  33)   -179.9466         0.008103   
    196. D(C  25,C  24,C  23,C  22)     -0.0666         0.009122   
    197. D(O  26,C  25,C  24,H  34)     -1.2989         0.011742   
    198. D(O  26,C  25,C  24,C  23)    178.5517         0.013492   
    199. D(C  20,C  25,C  24,H  34)    179.9543         0.007579   
    200. D(C  20,C  25,C  24,C  23)     -0.1950         0.007635   
    201. D(O  26,C  25,C  20,C  21)   -178.5323         0.013919   
    202. D(O  26,C  25,C  20,C  19)      3.0917         0.010082   
    203. D(C  24,C  25,C  20,C  21)      0.3114         0.006750   
    204. D(C  24,C  25,C  20,C  19)   -178.0647         0.006155   
    205. D(C  27,O  26,C  25,C  24)      0.6099         0.011114   
    206. D(C  27,O  26,C  25,C  20)    179.4141         0.017914   
    207. D(H  37,C  27,O  26,C  25)    -59.6748         0.027850   
    208. D(H  36,C  27,O  26,C  25)     62.5057         0.027488   
    209. D(H  35,C  27,O  26,C  25)   -178.5717         0.024324   
    210. D(O  38,N  28,C  18,N  41)    -19.5488         0.039728   
    211. D(O  38,N  28,C  18,C  19)   -165.8217         0.042390   
    212. D(O  29,N  28,C  18,N  41)    166.6483         0.049648   
    213. D(O  29,N  28,C  18,C  19)     20.3755         0.045463   
    214. D(N  42,N  41,C  18,N  28)     54.0389         0.021632   
    215. D(N  42,N  41,C  18,C  19)   -160.0318         0.017148   
    216. D(N  43,N  42,N  41,C  18)   -176.8236         0.003820   
    -----------------------------------------------------------------

Number of atoms                         .... 44
Number of degrees of freedom            .... 216

         *************************************************************
         *                GEOMETRY OPTIMIZATION CYCLE   1            *
         *************************************************************
---------------------------------
CARTESIAN COORDINATES (ANGSTROEM)
---------------------------------
  C      4.087042    1.038166    0.281797
  C      3.739627    1.953357   -0.728541
  C      2.426793    2.079042   -1.065673
  N      1.472484    1.387029   -0.409279
  C      1.765365    0.499822    0.584884
  C      3.115472    0.340874    0.948599
  C      0.112242    1.328448   -0.877587
  C     -0.771938    2.206833   -0.005761
  O     -0.385590    2.831574    0.947825
  O     -1.989219    2.275594   -0.513828
  C     -2.928588    3.086553    0.199038
  H      5.126721    0.916028    0.562102
  H      2.075951    2.719715   -1.863760
  H      0.972222    0.295269    1.292388
  H      3.356112   -0.316939    1.772748
  H      0.080343    1.788490   -1.866032
  H     -3.051541    2.711120    1.214863
  H     -3.861721    3.005087   -0.351589
  C      0.771077   -1.109772   -0.468376
  C     -0.280838   -0.211983   -1.065515
  C     -1.680475   -0.603489   -0.675417
  C     -2.525879   -1.125939   -1.641316
  C     -3.816685   -1.538408   -1.334145
  C     -4.268915   -1.426335   -0.031115
  C     -3.444894   -0.903936    0.958391
  C     -2.158459   -0.493068    0.636789
  O     -1.301958    0.050618    1.526010
  C     -1.717809    0.206649    2.868831
  N      1.824605   -1.448145   -1.286855
  O      2.059066   -0.727289   -2.277019
  H     -0.210716   -0.352122   -2.143361
  H     -2.160107   -1.211629   -2.659200
  H     -4.457321   -1.943320   -2.108167
  H     -5.272264   -1.743702    0.229524
  H     -3.810468   -0.817918    1.972772
  H     -0.886509    0.681152    3.386112
  H     -1.930271   -0.763177    3.326403
  H     -2.602379    0.845365    2.936543
  O      2.579334   -2.383146   -0.959420
  H     -2.588414    4.121562    0.226130
  H      4.485573    2.535150   -1.250460
  N      0.347300   -2.075867    0.458902
  N      1.141014   -2.578608    1.238343
  N      1.740933   -3.138292    2.008768

----------------------------
CARTESIAN COORDINATES (A.U.)
----------------------------
  NO LB      ZA    FRAG     MASS         X           Y           Z
   0 C     6.0000    0    12.011    7.723390    1.961849    0.532519
   1 C     6.0000    0    12.011    7.066871    3.691310   -1.376743
   2 C     6.0000    0    12.011    4.585974    3.928820   -2.013830
   3 N     7.0000    0    14.007    2.782591    2.621105   -0.773425
   4 C     6.0000    0    12.011    3.336056    0.944527    1.105271
   5 C     6.0000    0    12.011    5.887389    0.644159    1.792592
   6 C     6.0000    0    12.011    0.212107    2.510403   -1.658399
   7 C     6.0000    0    12.011   -1.458751    4.170310   -0.010887
   8 O     8.0000    0    15.999   -0.728659    5.350899    1.791130
   9 O     8.0000    0    15.999   -3.759079    4.300249   -0.970994
  10 C     6.0000    0    12.011   -5.534229    5.832740    0.376127
  11 H     1.0000    0     1.008    9.688099    1.731042    1.062219
  12 H     1.0000    0     1.008    3.922979    5.139517   -3.521996
  13 H     1.0000    0     1.008    1.837233    0.557978    2.442259
  14 H     1.0000    0     1.008    6.342133   -0.598928    3.350008
  15 H     1.0000    0     1.008    0.151826    3.379756   -3.526289
  16 H     1.0000    0     1.008   -5.766577    5.123274    2.295758
  17 H     1.0000    0     1.008   -7.297595    5.678791   -0.664407
  18 C     6.0000    0    12.011    1.457124   -2.097165   -0.885102
  19 C     6.0000    0    12.011   -0.530707   -0.400590   -2.013532
  20 C     6.0000    0    12.011   -3.175638   -1.140429   -1.276353
  21 C     6.0000    0    12.011   -4.773220   -2.127716   -3.101638
  22 C     6.0000    0    12.011   -7.212489   -2.907170   -2.521169
  23 C     6.0000    0    12.011   -8.067080   -2.695383   -0.058799
  24 C     6.0000    0    12.011   -6.509906   -1.708191    1.811097
  25 C     6.0000    0    12.011   -4.078896   -0.931763    1.203357
  26 O     8.0000    0    15.999   -2.460344    0.095654    2.883741
  27 C     6.0000    0    12.011   -3.246189    0.390510    5.421305
  28 N     7.0000    0    14.007    3.448004   -2.736597   -2.431804
  29 O     8.0000    0    15.999    3.891071   -1.374377   -4.302942
  30 H     1.0000    0     1.008   -0.398196   -0.665414   -4.050365
  31 H     1.0000    0     1.008   -4.082011   -2.289647   -5.025160
  32 H     1.0000    0     1.008   -8.423116   -3.672343   -3.983858
  33 H     1.0000    0     1.008   -9.963135   -3.295119    0.433738
  34 H     1.0000    0     1.008   -7.200741   -1.545641    3.727999
  35 H     1.0000    0     1.008   -1.675259    1.287191    6.398824
  36 H     1.0000    0     1.008   -3.647684   -1.442196    6.285991
  37 H     1.0000    0     1.008   -4.917784    1.597508    5.549262
  38 O     8.0000    0    15.999    4.874235   -4.503493   -1.813041
  39 H     1.0000    0     1.008   -4.891394    7.788623    0.427324
  40 H     1.0000    0     1.008    8.476505    4.790739   -2.363027
  41 N     7.0000    0    14.007    0.656302   -3.922820    0.867199
  42 N     7.0000    0    14.007    2.156204   -4.872863    2.340129
  43 N     7.0000    0    14.007    3.289887   -5.930512    3.796021

--------------------------------
INTERNAL COORDINATES (ANGSTROEM)
--------------------------------
 C      0   0   0     0.000000000000     0.00000000     0.00000000
 C      1   0   0     1.406788762732     0.00000000     0.00000000
 C      2   1   0     1.361244950846   118.43158526     0.00000000
 N      3   2   1     1.349237096616   120.95057381     2.83606593
 C      4   3   2     1.364285751439   122.42588193   357.73435809
 C      1   2   3     1.369229456800   120.38559000   356.96785056
 C      4   3   2     1.439792490253   122.06272446   190.36618620
 C      7   4   3     1.520991471015   109.83205800   254.44939009
 O      8   7   4     1.203699444870   124.55838930   358.59714074
 O      8   7   4     1.320845632378   110.20139151   173.14449090
 C     10   8   7     1.431169644661   116.28286749   180.72275877
 H      1   2   3     1.083707067020   119.73602460   179.56923693
 H      3   2   1     1.081894108248   123.37555526   183.22515962
 H      5   4   3     1.082349138806   116.22665479   156.86175041
 H      6   1   2     1.081594714655   121.52897129   184.18052760
 H      7   4   3     1.090724395065   107.77196434     8.31393701
 H     11  10   8     1.089939359929   110.06534565   300.25882711
 H     11  10   8     1.086537619217   105.59203367   181.02690434
 C      5   4   3     2.165354035575    91.74043724   237.51701105
 C     19   5   4     1.506361590411    94.03946528   326.19632095
 C     20  19   5     1.504804681482   113.05946625   239.42958358
 C     21  20  19     1.385865362839   118.99862716   249.05282904
 C     22  21  20     1.389483655477   121.63647936   178.26326074
 C     23  22  21     1.383820621009   119.19020069   359.91929822
 C     24  23  22     1.389616295125   120.47475448     0.20295220
 C     25  24  23     1.388220216339   119.72302511   359.93335651
 O     26  25  24     1.349037588964   123.70550325   178.55174478
 C     27  26  25     1.414371226094   118.92050022     0.60988770
 N     19   5   4     1.376344944901    96.92252983    83.47238930
 O     29  19   5     1.247008452318   118.29383281   282.34860101
 H     20  19   5     1.089177687029   105.70266008   123.38202431
 H     22  21  20     1.084997589647   118.55342900   358.33700128
 H     23  22  21     1.083272019727   120.15831550   179.99493674
 H     24  23  22     1.084141926507   120.33871608   180.08150692
 H     25  24  23     1.081671049331   119.81870380   179.78499171
 H     28  27  26     1.088022251597   105.95301089   181.42832060
 H     28  27  26     1.093194725062   110.89542327    62.50567363
 H     28  27  26     1.093163815949   111.17265237   300.32523128
 O     29  19   5     1.245414153070   119.47833214    96.15145840
 H     11  10   8     1.089814643332   110.22149032    61.54785100
 H      2   1   3     1.080424903603   121.78570875   181.34019696
 N     19   5   4     1.404553660078   109.19026037   205.27389261
 N     42  19   5     1.220761524360   120.57209660   305.32565347
 N     43  42  19     1.125479305470   171.27465431   183.17636918

---------------------------
INTERNAL COORDINATES (A.U.)
---------------------------
 C      0   0   0     0.000000000000     0.00000000     0.00000000
 C      1   0   0     2.658445489842     0.00000000     0.00000000
 C      2   1   0     2.572380158283   118.43158526     0.00000000
 N      3   2   1     2.549688602332   120.95057381     2.83606593
 C      4   3   2     2.578126438630   122.42588193   357.73435809
 C      1   2   3     2.587468687849   120.38559000   356.96785056
 C      4   3   2     2.720813496255   122.06272446   190.36618620
 C      7   4   3     2.874257332249   109.83205800   254.44939009
 O      8   7   4     2.274662298358   124.55838930   358.59714074
 O      8   7   4     2.496036510380   110.20139151   173.14449090
 C     10   8   7     2.704518679590   116.28286749   180.72275877
 H      1   2   3     2.047909566064   119.73602460   179.56923693
 H      3   2   1     2.044483570492   123.37555526   183.22515962
 H      5   4   3     2.045343453629   116.22665479   156.86175041
 H      6   1   2     2.043917798595   121.52897129   184.18052760
 H      7   4   3     2.061170394260   107.77196434     8.31393701
 H     11  10   8     2.059686892848   110.06534565   300.25882711
 H     11  10   8     2.053258534523   105.59203367   181.02690434
 C      5   4   3     4.091926110218    91.74043724   237.51701105
 C     19   5   4     2.846610864536    94.03946528   326.19632095
 C     20  19   5     2.843668733043   113.05946625   239.42958358
 C     21  20  19     2.618905994253   118.99862716   249.05282904
 C     22  21  20     2.625743576412   121.63647936   178.26326074
 C     23  22  21     2.615041992179   119.19020069   359.91929822
 C     24  23  22     2.625994229021   120.47475448     0.20295220
 C     25  24  23     2.623356022454   119.72302511   359.93335651
 O     26  25  24     2.549311587508   123.70550325   178.55174478
 C     27  26  25     2.672774269016   118.92050022     0.60988770
 N     19   5   4     2.600915011669    96.92252983    83.47238930
 O     29  19   5     2.356504461566   118.29383281   282.34860101
 H     20  19   5     2.058247539662   105.70266008   123.38202431
 H     22  21  20     2.050348300398   118.55342900   358.33700128
 H     23  22  21     2.047087445824   120.15831550   179.99493674
 H     24  23  22     2.048731331401   120.33871608   180.08150692
 H     25  24  23     2.044062050227   119.81870380   179.78499171
 H     28  27  26     2.056064083131   105.95301089   181.42832060
 H     28  27  26     2.065838641415   110.89542327    62.50567363
 H     28  27  26     2.065780231656   111.17265237   300.32523128
 O     29  19   5     2.353491672612   119.47833214    96.15145840
 H     11  10   8     2.059451212635   110.22149032    61.54785100
 H      2   1   3     2.041707176078   121.78570875   181.34019696
 N     19   5   4     2.654221757944   109.19026037   205.27389261
 N     42  19   5     2.306904955869   120.57209660   305.32565347
 N     43  42  19     2.126847656735   171.27465431   183.17636918

---------------------
BASIS SET INFORMATION
---------------------
There are 4 groups of distinct atoms

 Group   1 Type C   : 11s6p2d1f contracted to 5s3p2d1f pattern {62111/411/11/1}
 Group   2 Type N   : 11s6p2d1f contracted to 5s3p2d1f pattern {62111/411/11/1}
 Group   3 Type O   : 11s6p2d1f contracted to 5s3p2d1f pattern {62111/411/11/1}
 Group   4 Type H   : 5s1p contracted to 3s1p pattern {311/1}

Atom   0C    basis set group =>   1
Atom   1C    basis set group =>   1
Atom   2C    basis set group =>   1
Atom   3N    basis set group =>   2
Atom   4C    basis set group =>   1
Atom   5C    basis set group =>   1
Atom   6C    basis set group =>   1
Atom   7C    basis set group =>   1
Atom   8O    basis set group =>   3
Atom   9O    basis set group =>   3
Atom  10C    basis set group =>   1
Atom  11H    basis set group =>   4
Atom  12H    basis set group =>   4
Atom  13H    basis set group =>   4
Atom  14H    basis set group =>   4
Atom  15H    basis set group =>   4
Atom  16H    basis set group =>   4
Atom  17H    basis set group =>   4
Atom  18C    basis set group =>   1
Atom  19C    basis set group =>   1
Atom  20C    basis set group =>   1
Atom  21C    basis set group =>   1
Atom  22C    basis set group =>   1
Atom  23C    basis set group =>   1
Atom  24C    basis set group =>   1
Atom  25C    basis set group =>   1
Atom  26O    basis set group =>   3
Atom  27C    basis set group =>   1
Atom  28N    basis set group =>   2
Atom  29O    basis set group =>   3
Atom  30H    basis set group =>   4
Atom  31H    basis set group =>   4
Atom  32H    basis set group =>   4
Atom  33H    basis set group =>   4
Atom  34H    basis set group =>   4
Atom  35H    basis set group =>   4
Atom  36H    basis set group =>   4
Atom  37H    basis set group =>   4
Atom  38O    basis set group =>   3
Atom  39H    basis set group =>   4
Atom  40H    basis set group =>   4
Atom  41N    basis set group =>   2
Atom  42N    basis set group =>   2
Atom  43N    basis set group =>   2
---------------------------------
AUXILIARY/J BASIS SET INFORMATION
---------------------------------
There are 4 groups of distinct atoms

 Group   1 Type C   : 12s5p4d2f1g contracted to 6s4p3d1f1g pattern {711111/2111/211/2/1}
 Group   2 Type N   : 12s5p4d2f1g contracted to 6s4p3d1f1g pattern {711111/2111/211/2/1}
 Group   3 Type O   : 12s5p4d2f1g contracted to 6s4p3d1f1g pattern {711111/2111/211/2/1}
 Group   4 Type H   : 5s2p1d contracted to 3s1p1d pattern {311/2/1}

Atom   0C    basis set group =>   1
Atom   1C    basis set group =>   1
Atom   2C    basis set group =>   1
Atom   3N    basis set group =>   2
Atom   4C    basis set group =>   1
Atom   5C    basis set group =>   1
Atom   6C    basis set group =>   1
Atom   7C    basis set group =>   1
Atom   8O    basis set group =>   3
Atom   9O    basis set group =>   3
Atom  10C    basis set group =>   1
Atom  11H    basis set group =>   4
Atom  12H    basis set group =>   4
Atom  13H    basis set group =>   4
Atom  14H    basis set group =>   4
Atom  15H    basis set group =>   4
Atom  16H    basis set group =>   4
Atom  17H    basis set group =>   4
Atom  18C    basis set group =>   1
Atom  19C    basis set group =>   1
Atom  20C    basis set group =>   1
Atom  21C    basis set group =>   1
Atom  22C    basis set group =>   1
Atom  23C    basis set group =>   1
Atom  24C    basis set group =>   1
Atom  25C    basis set group =>   1
Atom  26O    basis set group =>   3
Atom  27C    basis set group =>   1
Atom  28N    basis set group =>   2
Atom  29O    basis set group =>   3
Atom  30H    basis set group =>   4
Atom  31H    basis set group =>   4
Atom  32H    basis set group =>   4
Atom  33H    basis set group =>   4
Atom  34H    basis set group =>   4
Atom  35H    basis set group =>   4
Atom  36H    basis set group =>   4
Atom  37H    basis set group =>   4
Atom  38O    basis set group =>   3
Atom  39H    basis set group =>   4
Atom  40H    basis set group =>   4
Atom  41N    basis set group =>   2
Atom  42N    basis set group =>   2
Atom  43N    basis set group =>   2


           ************************************************************
           *        Program running with 24 parallel MPI-processes    *
           *              working on a common directory               *
           ************************************************************
------------------------------------------------------------------------------
                           ORCA GTO INTEGRAL CALCULATION
                           -- RI-GTO INTEGRALS CHOSEN --
------------------------------------------------------------------------------
------------------------------------------------------------------------------
                   ___                                                        
                  /   \      - P O W E R E D   B Y -                         
                 /     \                                                     
                 |  |  |   _    _      __       _____    __    __             
                 |  |  |  | |  | |    /  \     |  _  \  |  |  /  |          
                  \  \/   | |  | |   /    \    | | | |  |  | /  /          
                 / \  \   | |__| |  /  /\  \   | |_| |  |  |/  /          
                |  |  |   |  __  | /  /__\  \  |    /   |      \           
                |  |  |   | |  | | |   __   |  |    \   |  |\   \          
                \     /   | |  | | |  |  |  |  | |\  \  |  | \   \       
                 \___/    |_|  |_| |__|  |__|  |_| \__\ |__|  \__/        
                                                                              
                      - O R C A' S   B I G   F R I E N D -                    
                                      &                                       
                       - I N T E G R A L  F E E D E R -                       
                                                                              
 v1 FN, 2020, v2 2021                                                         
------------------------------------------------------------------------------


Reading SHARK input file TS1_N3/TS1_N3.SHARKINP.tmp ... ok
----------------------
SHARK INTEGRAL PACKAGE
----------------------

Number of atoms                             ...     44
Number of basis functions                   ...    939
Number of shells                            ...    365
Maximum angular momentum                    ...      3
Integral batch strategy                     ... SHARK/LIBINT Hybrid
RI-J (if used) integral strategy            ... SPLIT-RIJ (Revised 2003 algorithm where possible)
Printlevel                                  ...      1
Contraction scheme used                     ... SEGMENTED contraction
Coulomb Range Separation                    ... NOT USED
Exchange Range Separation                   ... NOT USED
Finite Nucleus Model                        ... NOT USED
Auxiliary Coulomb fitting basis             ... AVAILABLE
   # of basis functions in Aux-J            ...   1510
   # of shells in Aux-J                     ...    490
   Maximum angular momentum in Aux-J        ...      4
Auxiliary J/K fitting basis                 ... NOT available
Auxiliary Correlation fitting basis         ... NOT available
Auxiliary 'external' fitting basis          ... NOT available
Integral threshold                          ...     2.500000e-11
Primitive cut-off                           ...     2.500000e-12
Primitive pair pre-selection threshold      ...     2.500000e-12

Calculating pre-screening integrals         ... done (  0.1 sec) Dimension = 365
Organizing shell pair data                  ... done (  0.6 sec)
Shell pair information
Total number of shell pairs                 ...     66795
Shell pairs after pre-screening             ...     48999
Total number of primitive shell pairs       ...    207048
Primitive shell pairs kept                  ...     98654
          la=0 lb=0:  12127 shell pairs
          la=1 lb=0:  13959 shell pairs
          la=1 lb=1:   4014 shell pairs
          la=2 lb=0:   7090 shell pairs
          la=2 lb=1:   4163 shell pairs
          la=2 lb=2:   1098 shell pairs
          la=3 lb=0:   3289 shell pairs
          la=3 lb=1:   1992 shell pairs
          la=3 lb=2:   1013 shell pairs
          la=3 lb=3:    254 shell pairs

Calculating one electron integrals          ... done (  0.1 sec)
Calculating RI/J V-Matrix + Cholesky decomp.... done (  0.2 sec)
Calculating Nuclear repulsion               ... done (  0.0 sec) ENN=   2734.429321182657 Eh

SHARK setup successfully completed in   1.9 seconds

Maximum memory used throughout the entire GTOINT-calculation: 73.8 MB


           ************************************************************
           *        Program running with 24 parallel MPI-processes    *
           *              working on a common directory               *
           ************************************************************
-------------------------------------------------------------------------------
                                 ORCA SCF
-------------------------------------------------------------------------------

------------
SCF SETTINGS
------------
Hamiltonian:
 Density Functional     Method          .... DFT(GTOs)
 Exchange Functional    Exchange        .... PBE
   PBE kappa parameter   XKappa         ....  0.804000
   PBE mue parameter    XMuePBE         ....  0.219520
 Correlation Functional Correlation     .... PBE
   PBE beta parameter  CBetaPBE         ....  0.066725
 LDA part of GGA corr.  LDAOpt          .... PW91-LDA
 Gradients option       PostSCFGGA      .... off
 Hybrid DFT is turned on
   Fraction HF Exchange ScalHFX         ....  0.250000
   Scaling of DF-GGA-X  ScalDFX         ....  0.750000
   Scaling of DF-GGA-C  ScalDFC         ....  1.000000
   Scaling of DF-LDA-C  ScalLDAC        ....  1.000000
   Perturbative correction              ....  0.000000
   Density functional embedding theory  .... OFF
   NL short-range parameter             ....  6.900000
 RI-approximation to the Coulomb term is turned on
   Number of AuxJ basis functions       .... 1510
   RIJ-COSX (HFX calculated with COS-X)).... on


General Settings:
 Integral files         IntName         .... TS1_N3/TS1_N3
 Hartree-Fock type      HFTyp           .... RHF
 Total Charge           Charge          ....    0
 Multiplicity           Mult            ....    1
 Number of Electrons    NEL             ....  194
 Basis Dimension        Dim             ....  939
 Nuclear Repulsion      ENuc            ....   2734.4293211827 Eh

Convergence Acceleration:
 DIIS                   CNVDIIS         .... on
   Start iteration      DIISMaxIt       ....    12
   Startup error        DIISStart       ....  0.200000
   # of expansion vecs  DIISMaxEq       ....     5
   Bias factor          DIISBfac        ....   1.050
   Max. coefficient     DIISMaxC        ....  10.000
 Trust-Rad. Augm. Hess. CNVTRAH         .... auto
   Auto Start mean grad. ratio tolernc. ....  1.125000
   Auto Start start iteration           ....    20
   Auto Start num. interpolation iter.  ....    10
   Max. Number of Micro iterations      ....    16
   Max. Number of Macro iterations      .... Maxiter - #DIIS iter
   Number of Davidson start vectors     ....     2
   Converg. threshold I  (grad. norm)   ....   1.000e-05
   Converg. threshold II (energy diff.) ....   1.000e-08
   Grad. Scal. Fac. for Micro threshold ....   0.100
   Minimum threshold for Micro iter.    ....   0.010
   NR start threshold (gradient norm)   ....   0.001
   Initial trust radius                 ....   0.400
   Minimum AH scaling param. (alpha)    ....   1.000
   Maximum AH scaling param. (alpha)    .... 1000.000
   Orbital update algorithm             .... Taylor
   White noise on init. David. guess    .... on
   Maximum white noise                  ....   0.010
   Quad. conv. algorithm                .... NR
 SOSCF                  CNVSOSCF        .... on
   Start iteration      SOSCFMaxIt      ....   150
   Startup grad/error   SOSCFStart      ....  0.003300
 Level Shifting         CNVShift        .... on
   Level shift para.    LevelShift      ....    0.2500
   Turn off err/grad.   ShiftErr        ....    0.0010
 Zerner damping         CNVZerner       .... off
 Static damping         CNVDamp         .... on
   Fraction old density DampFac         ....    0.7000
   Max. Damping (<1)    DampMax         ....    0.9800
   Min. Damping (>=0)   DampMin         ....    0.0000
   Turn off err/grad.   DampErr         ....    0.1000
 Fernandez-Rico         CNVRico         .... off

SCF Procedure:
 Maximum # iterations   MaxIter         ....   800
 SCF integral mode      SCFMode         .... Direct
   Integral package                     .... SHARK and LIBINT hybrid scheme
 Reset frequency        DirectResetFreq ....    20
 Integral Threshold     Thresh          ....  2.500e-11 Eh
 Primitive CutOff       TCut            ....  2.500e-12 Eh

Convergence Tolerance:
 Convergence Check Mode ConvCheckMode   .... Total+1el-Energy
 Convergence forced     ConvForced      .... 0
 Energy Change          TolE            ....  1.000e-08 Eh
 1-El. energy change                    ....  1.000e-05 Eh
 Orbital Gradient       TolG            ....  1.000e-05
 Orbital Rotation angle TolX            ....  1.000e-05
 DIIS Error             TolErr          ....  5.000e-07


Diagonalization of the overlap matrix:
Smallest eigenvalue                        ... 5.429e-06
Time for diagonalization                   ...    0.290 sec
Threshold for overlap eigenvalues          ... 1.000e-08
Number of eigenvalues below threshold      ... 0
Time for construction of square roots      ...    0.162 sec
Total time needed                          ...    0.458 sec

Time for model grid setup =    0.380 sec

------------------------------
INITIAL GUESS: MODEL POTENTIAL
------------------------------
Loading Hartree-Fock densities                     ... done
Calculating cut-offs                               ... done
Initializing the effective Hamiltonian             ... done
Setting up the integral package (SHARK)            ... done
Starting the Coulomb interaction                   ... done (   0.5 sec)
Reading the grid                                   ... done
Mapping shells                                     ... done
Starting the XC term evaluation                    ... done (   0.3 sec)
  promolecular density results
     # of electrons  =    193.991808860
     EX              =   -165.535687078
     EC              =     -6.600391073
     EX+EC           =   -172.136078151
Transforming the Hamiltonian                       ... done (   0.2 sec)
Diagonalizing the Hamiltonian                      ... done (   0.3 sec)
Back transforming the eigenvectors                 ... done (   0.1 sec)
Now organizing SCF variables                       ... done
                      ------------------
                      INITIAL GUESS DONE (   1.9 sec)
                      ------------------
-------------------
DFT GRID GENERATION
-------------------

General Integration Accuracy     IntAcc      ... 4.388
Radial Grid Type                 RadialGrid  ... OptM3 with GC (2021)
Angular Grid (max. ang.)         AngularGrid ... 4 (Lebedev-302)
Angular grid pruning method      GridPruning ... 4 (adaptive)
Weight generation scheme         WeightScheme... Becke
Basis function cutoff            BFCut       ... 1.0000e-11
Integration weight cutoff        WCut        ... 1.0000e-14
Angular grids for H and He will be reduced by one unit
Partially contracted basis set               ... off
Rotationally invariant grid construction     ... off

Total number of grid points                  ...   214722
Total number of batches                      ...     3379
Average number of points per batch           ...       63
Average number of grid points per atom       ...     4880
Time for grid setup =    1.606 sec

--------------------
COSX GRID GENERATION
--------------------

GRIDX 1
-------
General Integration Accuracy     IntAcc      ... 3.816
Radial Grid Type                 RadialGrid  ... OptM3 with GC (2021)
Angular Grid (max. ang.)         AngularGrid ... 1 (Lebedev-50)
Angular grid pruning method      GridPruning ... 4 (adaptive)
Weight generation scheme         WeightScheme... Becke
Basis function cutoff            BFCut       ... 1.0000e-11
Integration weight cutoff        WCut        ... 1.0000e-14
Angular grids for H and He will be reduced by one unit
Partially contracted basis set               ... on
Rotationally invariant grid construction     ... off

Total number of grid points                  ...    27207
Total number of batches                      ...      447
Average number of points per batch           ...       60
Average number of grid points per atom       ...      618
UseSFitting                                  ... on

GRIDX 2
-------
General Integration Accuracy     IntAcc      ... 4.020
Radial Grid Type                 RadialGrid  ... OptM3 with GC (2021)
Angular Grid (max. ang.)         AngularGrid ... 2 (Lebedev-110)
Angular grid pruning method      GridPruning ... 4 (adaptive)
Weight generation scheme         WeightScheme... Becke
Basis function cutoff            BFCut       ... 1.0000e-11
Integration weight cutoff        WCut        ... 1.0000e-14
Angular grids for H and He will be reduced by one unit
Partially contracted basis set               ... on
Rotationally invariant grid construction     ... off

Total number of grid points                  ...    59336
Total number of batches                      ...      948
Average number of points per batch           ...       62
Average number of grid points per atom       ...     1349
UseSFitting                                  ... on

GRIDX 3
-------
General Integration Accuracy     IntAcc      ... 4.338
Radial Grid Type                 RadialGrid  ... OptM3 with GC (2021)
Angular Grid (max. ang.)         AngularGrid ... 3 (Lebedev-194)
Angular grid pruning method      GridPruning ... 4 (adaptive)
Weight generation scheme         WeightScheme... Becke
Basis function cutoff            BFCut       ... 1.0000e-11
Integration weight cutoff        WCut        ... 1.0000e-14
Angular grids for H and He will be reduced by one unit
Partially contracted basis set               ... on
Rotationally invariant grid construction     ... off

Total number of grid points                  ...   129605
Total number of batches                      ...     2046
Average number of points per batch           ...       63
Average number of grid points per atom       ...     2946
UseSFitting                                  ... on

Time for X-Grid setup             =    2.790 sec


--------------------
CPCM SOLVATION MODEL
--------------------
CPCM parameters:
  Epsilon                                         ...      47.2000
  Refrac                                          ...       1.4790
  Rsolv                                           ...       1.3000
  Surface type                                    ... GAUSSIAN VDW
  Epsilon function type                           ...         CPCM
Radii:
 Radius for C  used is    3.8550 Bohr (=   2.0400 Ang.)
 Radius for N  used is    3.5149 Bohr (=   1.8600 Ang.)
 Radius for O  used is    3.4469 Bohr (=   1.8240 Ang.)
 Radius for H  used is    2.4944 Bohr (=   1.3200 Ang.)
Calculating surface                               ...        done! (  0.0s)
GEPOL surface points                              ...         2192
GEPOL Volume                                      ...    2726.8577
GEPOL Surface-area                                ...    1322.3314
Calculating surface distance matrix               ...        done! (  0.1s)
Performing Cholesky decomposition & store         ...        done! (  0.3s)
Overall time for CPCM initialization              ...                 0.4s
--------------
SCF ITERATIONS
--------------
ITER       Energy         Delta-E        Max-DP      RMS-DP      [F,P]     Damp
               ***  Starting incremental Fock matrix formation  ***
  0  -1306.1966742635   0.000000000000 0.24061293  0.00078874  0.2619449 0.7000
  1  -1306.4518278226  -0.255153559079 0.25079857  0.00069687  0.1039117 0.7000
                               ***Turning on DIIS***
  2  -1306.5524824110  -0.100654588379 0.41212916  0.00125630  0.0341965 0.0000
  3  -1306.7230632011  -0.170580790100 0.20117231  0.00053891  0.0521042 0.0000
  4  -1306.7515887644  -0.028525563355 0.06312283  0.00020759  0.0155237 0.0000
  5  -1306.7538382320  -0.002249467595 0.02359103  0.00006106  0.0046691 0.0000
                      *** Initiating the SOSCF procedure ***
                           *** Shutting down DIIS ***
                      *** Re-Reading the Fockian *** 
                      *** Removing any level shift *** 
ITER      Energy       Delta-E        Grad      Rot      Max-DP    RMS-DP
  6  -1306.75398177  -0.0001435382  0.000430  0.000430  0.005367  0.000021
               *** Restarting incremental Fock matrix formation ***
  7  -1306.75403737  -0.0000555973  0.000268  0.001167  0.001658  0.000021
  8  -1306.75402515   0.0000122206  0.000895  0.000803  0.001108  0.000007
  9  -1306.75404261  -0.0000174652  0.000060  0.000184  0.000621  0.000005
 10  -1306.75404185   0.0000007661  0.000092  0.000120  0.000511  0.000002
 11  -1306.75404303  -0.0000011863  0.000011  0.000093  0.001147  0.000002
 12  -1306.75404300   0.0000000336  0.000018  0.000042  0.000605  0.000001
                  ***Gradient check signals convergence***
              ***Rediagonalizing the Fockian in SOSCF/NRSCF***

               *****************************************************
               *                     SUCCESS                       *
               *           SCF CONVERGED AFTER  13 CYCLES          *
               *****************************************************

Old exchange energy                            =    -42.082892878 Eh
New exchange energy                            =    -42.082905337 Eh
Exchange energy change after final integration =     -0.000012459 Eh
Total energy after final integration           =  -1306.754055530 Eh
Final COS-X integration done in                =    20.907 sec

----------------
TOTAL SCF ENERGY
----------------

Total Energy       :        -1306.75405553 Eh          -35558.58561 eV

Components:
Nuclear Repulsion  :         2734.42932118 Eh           74407.60464 eV
Electronic Energy  :        -4041.18337671 Eh         -109966.19025 eV
One Electron Energy:        -7221.01598025 Eh         -196493.83438 eV
Two Electron Energy:         3179.83260353 Eh           86527.64412 eV
Max COSX asymmetry :            0.00000265 Eh               0.00007 eV
CPCM Dielectric    :           -0.04440223 Eh              -1.20825 eV

Virial components:
Potential Energy   :        -2607.95540086 Eh          -70966.07430 eV
Kinetic Energy     :         1301.20134533 Eh           35407.48869 eV
Virial Ratio       :            2.00426737


DFT components:
N(Alpha)           :       97.000109198026 electrons
N(Beta)            :       97.000109198026 electrons
N(Total)           :      194.000218396051 electrons
E(X)               :     -126.134588495901 Eh       
E(C)               :       -6.592580115363 Eh       
E(XC)              :     -132.727168611265 Eh       
DFET-embed. en.    :        0.000000000000 Eh       
CPCM Solvation Model Properties:
Surface-charge          :           -0.02888124
Charge-correction       :           -0.00015024 Eh              -0.00409 eV
Free-energy (cav+disp)  :  This term is not implemented in the current solvation scheme

---------------
SCF CONVERGENCE
---------------

  Last Energy change         ...   -7.1865e-08  Tolerance :   1.0000e-08
  Last MAX-Density change    ...    1.8874e-15  Tolerance :   1.0000e-07
  Last RMS-Density change    ...    1.3717e-17  Tolerance :   5.0000e-09
  Last Orbital Gradient      ...    2.1331e-06  Tolerance :   1.0000e-05
  Last Orbital Rotation      ...    1.1635e-05  Tolerance :   1.0000e-05

             **** THE GBW FILE WAS UPDATED (TS1_N3/TS1_N3.gbw) ****
             **** DENSITY TS1_N3/TS1_N3.scfp WAS UPDATED ****
             **** ENERGY FILE WAS UPDATED (TS1_N3/TS1_N3.en.tmp) ****
             **** THE GBW FILE WAS UPDATED (TS1_N3/TS1_N3.gbw) ****
             **** DENSITY TS1_N3/TS1_N3.scfp WAS UPDATED ****
----------------
ORBITAL ENERGIES
----------------

  NO   OCC          E(Eh)            E(eV) 
   0   2.0000     -19.267917      -524.3067 
   1   2.0000     -19.249006      -523.7921 
   2   2.0000     -19.206922      -522.6469 
   3   2.0000     -19.204889      -522.5916 
   4   2.0000     -19.204295      -522.5754 
   5   2.0000     -14.583143      -396.8275 
   6   2.0000     -14.561278      -396.2325 
   7   2.0000     -14.479320      -394.0023 
   8   2.0000     -14.452947      -393.2847 
   9   2.0000     -14.440823      -392.9548 
  10   2.0000     -10.367538      -282.1151 
  11   2.0000     -10.305701      -280.4324 
  12   2.0000     -10.302421      -280.3431 
  13   2.0000     -10.301812      -280.3266 
  14   2.0000     -10.292755      -280.0801 
  15   2.0000     -10.290961      -280.0313 
  16   2.0000     -10.272707      -279.5346 
  17   2.0000     -10.268859      -279.4299 
  18   2.0000     -10.268158      -279.4108 
  19   2.0000     -10.259164      -279.1660 
  20   2.0000     -10.246474      -278.8207 
  21   2.0000     -10.241282      -278.6794 
  22   2.0000     -10.240172      -278.6492 
  23   2.0000     -10.229904      -278.3698 
  24   2.0000     -10.229869      -278.3689 
  25   2.0000     -10.225856      -278.2597 
  26   2.0000     -10.221224      -278.1336 
  27   2.0000      -1.229061       -33.4444 
  28   2.0000      -1.184345       -32.2277 
  29   2.0000      -1.159915       -31.5629 
  30   2.0000      -1.112773       -30.2801 
  31   2.0000      -1.071324       -29.1522 
  32   2.0000      -1.055953       -28.7339 
  33   2.0000      -1.046987       -28.4900 
  34   2.0000      -1.025199       -27.8971 
  35   2.0000      -0.902341       -24.5539 
  36   2.0000      -0.881062       -23.9749 
  37   2.0000      -0.864379       -23.5209 
  38   2.0000      -0.824294       -22.4302 
  39   2.0000      -0.817186       -22.2368 
  40   2.0000      -0.791265       -21.5314 
  41   2.0000      -0.780273       -21.2323 
  42   2.0000      -0.753076       -20.4922 
  43   2.0000      -0.727569       -19.7982 
  44   2.0000      -0.712244       -19.3811 
  45   2.0000      -0.693603       -18.8739 
  46   2.0000      -0.682466       -18.5709 
  47   2.0000      -0.666970       -18.1492 
  48   2.0000      -0.631187       -17.1755 
  49   2.0000      -0.616070       -16.7641 
  50   2.0000      -0.607030       -16.5181 
  51   2.0000      -0.577622       -15.7179 
  52   2.0000      -0.573601       -15.6085 
  53   2.0000      -0.559493       -15.2246 
  54   2.0000      -0.556917       -15.1545 
  55   2.0000      -0.548929       -14.9371 
  56   2.0000      -0.543032       -14.7766 
  57   2.0000      -0.537749       -14.6329 
  58   2.0000      -0.527991       -14.3674 
  59   2.0000      -0.522781       -14.2256 
  60   2.0000      -0.519746       -14.1430 
  61   2.0000      -0.514341       -13.9959 
  62   2.0000      -0.507801       -13.8180 
  63   2.0000      -0.501377       -13.6432 
  64   2.0000      -0.491329       -13.3697 
  65   2.0000      -0.487591       -13.2680 
  66   2.0000      -0.484423       -13.1818 
  67   2.0000      -0.479275       -13.0417 
  68   2.0000      -0.470638       -12.8067 
  69   2.0000      -0.467758       -12.7283 
  70   2.0000      -0.461978       -12.5711 
  71   2.0000      -0.446365       -12.1462 
  72   2.0000      -0.445214       -12.1149 
  73   2.0000      -0.431872       -11.7518 
  74   2.0000      -0.426979       -11.6187 
  75   2.0000      -0.411222       -11.1899 
  76   2.0000      -0.405971       -11.0470 
  77   2.0000      -0.400997       -10.9117 
  78   2.0000      -0.392379       -10.6772 
  79   2.0000      -0.390992       -10.6394 
  80   2.0000      -0.383072       -10.4239 
  81   2.0000      -0.380329       -10.3493 
  82   2.0000      -0.372882       -10.1466 
  83   2.0000      -0.357421        -9.7259 
  84   2.0000      -0.346209        -9.4208 
  85   2.0000      -0.346031        -9.4160 
  86   2.0000      -0.334151        -9.0927 
  87   2.0000      -0.332238        -9.0407 
  88   2.0000      -0.327285        -8.9059 
  89   2.0000      -0.312425        -8.5015 
  90   2.0000      -0.309707        -8.4276 
  91   2.0000      -0.304779        -8.2935 
  92   2.0000      -0.296712        -8.0739 
  93   2.0000      -0.282183        -7.6786 
  94   2.0000      -0.271248        -7.3810 
  95   2.0000      -0.240726        -6.5505 
  96   2.0000      -0.205345        -5.5877 
  97   0.0000      -0.072286        -1.9670 
  98   0.0000      -0.039949        -1.0871 
  99   0.0000      -0.027339        -0.7439 
 100   0.0000      -0.014135        -0.3846 
 101   0.0000      -0.009162        -0.2493 
 102   0.0000       0.000278         0.0076 
 103   0.0000       0.005135         0.1397 
 104   0.0000       0.041029         1.1164 
 105   0.0000       0.047695         1.2978 
 106   0.0000       0.057671         1.5693 
 107   0.0000       0.062548         1.7020 
 108   0.0000       0.069623         1.8945 
 109   0.0000       0.079193         2.1549 
 110   0.0000       0.089000         2.4218 
 111   0.0000       0.090148         2.4530 
 112   0.0000       0.094904         2.5825 
 113   0.0000       0.104294         2.8380 
 114   0.0000       0.108902         2.9634 
 115   0.0000       0.110789         3.0147 
 116   0.0000       0.115646         3.1469 
 117   0.0000       0.118433         3.2227 
 118   0.0000       0.122419         3.3312 
 119   0.0000       0.125921         3.4265 
 120   0.0000       0.131743         3.5849 
 121   0.0000       0.142998         3.8912 
 122   0.0000       0.143932         3.9166 
 123   0.0000       0.148048         4.0286 
 124   0.0000       0.148931         4.0526 
 125   0.0000       0.154057         4.1921 
 126   0.0000       0.158887         4.3235 
 127   0.0000       0.161660         4.3990 
 128   0.0000       0.166494         4.5305 
 129   0.0000       0.175448         4.7742 
 130   0.0000       0.185454         5.0465 
 131   0.0000       0.189143         5.1468 
 132   0.0000       0.191758         5.2180 
 133   0.0000       0.203844         5.5469 
 134   0.0000       0.207506         5.6465 
 135   0.0000       0.211982         5.7683 
 136   0.0000       0.215706         5.8697 
 137   0.0000       0.217412         5.9161 
 138   0.0000       0.220304         5.9948 
 139   0.0000       0.224230         6.1016 
 140   0.0000       0.228000         6.2042 
 141   0.0000       0.231571         6.3014 
 142   0.0000       0.236733         6.4418 
 143   0.0000       0.243645         6.6299 
 144   0.0000       0.249185         6.7807 
 145   0.0000       0.249951         6.8015 
 146   0.0000       0.257341         7.0026 
 147   0.0000       0.258875         7.0443 
 148   0.0000       0.262938         7.1549 
 149   0.0000       0.265350         7.2205 
 150   0.0000       0.266994         7.2653 
 151   0.0000       0.274963         7.4821 
 152   0.0000       0.280266         7.6264 
 153   0.0000       0.282650         7.6913 
 154   0.0000       0.286761         7.8032 
 155   0.0000       0.294694         8.0190 
 156   0.0000       0.297369         8.0918 
 157   0.0000       0.299227         8.1424 
 158   0.0000       0.301752         8.2111 
 159   0.0000       0.311839         8.4856 
 160   0.0000       0.315551         8.5866 
 161   0.0000       0.318683         8.6718 
 162   0.0000       0.319537         8.6950 
 163   0.0000       0.323796         8.8109 
 164   0.0000       0.326591         8.8870 
 165   0.0000       0.327629         8.9152 
 166   0.0000       0.338309         9.2058 
 167   0.0000       0.340174         9.2566 
 168   0.0000       0.345752         9.4084 
 169   0.0000       0.350943         9.5496 
 170   0.0000       0.353350         9.6151 
 171   0.0000       0.356379         9.6976 
 172   0.0000       0.360704         9.8152 
 173   0.0000       0.364843         9.9279 
 174   0.0000       0.368109        10.0168 
 175   0.0000       0.372322        10.1314 
 176   0.0000       0.375063        10.2060 
 177   0.0000       0.381143        10.3714 
 178   0.0000       0.385593        10.4925 
 179   0.0000       0.388342        10.5673 
 180   0.0000       0.390859        10.6358 
 181   0.0000       0.394115        10.7244 
 182   0.0000       0.399605        10.8738 
 183   0.0000       0.401579        10.9275 
 184   0.0000       0.410613        11.1733 
 185   0.0000       0.412547        11.2260 
 186   0.0000       0.414824        11.2879 
 187   0.0000       0.422455        11.4956 
 188   0.0000       0.425534        11.5794 
 189   0.0000       0.428768        11.6674 
 190   0.0000       0.429748        11.6940 
 191   0.0000       0.434299        11.8179 
 192   0.0000       0.438924        11.9437 
 193   0.0000       0.441058        12.0018 
 194   0.0000       0.444358        12.0916 
 195   0.0000       0.449238        12.2244 
 196   0.0000       0.452848        12.3226 
 197   0.0000       0.455435        12.3930 
 198   0.0000       0.459296        12.4981 
 199   0.0000       0.463974        12.6254 
 200   0.0000       0.472662        12.8618 
 201   0.0000       0.475126        12.9288 
 202   0.0000       0.477662        12.9978 
 203   0.0000       0.480406        13.0725 
 204   0.0000       0.483789        13.1646 
 205   0.0000       0.486462        13.2373 
 206   0.0000       0.488897        13.3036 
 207   0.0000       0.493802        13.4370 
 208   0.0000       0.501635        13.6502 
 209   0.0000       0.501749        13.6533 
 210   0.0000       0.506951        13.7948 
 211   0.0000       0.510667        13.8960 
 212   0.0000       0.512826        13.9547 
 213   0.0000       0.522031        14.2052 
 214   0.0000       0.524591        14.2748 
 215   0.0000       0.526245        14.3198 
 216   0.0000       0.530229        14.4283 
 217   0.0000       0.532875        14.5003 
 218   0.0000       0.539534        14.6815 
 219   0.0000       0.543543        14.7906 
 220   0.0000       0.550216        14.9722 
 221   0.0000       0.552022        15.0213 
 222   0.0000       0.557987        15.1836 
 223   0.0000       0.560572        15.2539 
 224   0.0000       0.564933        15.3726 
 225   0.0000       0.568883        15.4801 
 226   0.0000       0.583114        15.8673 
 227   0.0000       0.585950        15.9445 
 228   0.0000       0.595146        16.1948 
 229   0.0000       0.607041        16.5184 
 230   0.0000       0.609662        16.5897 
 231   0.0000       0.612453        16.6657 
 232   0.0000       0.618486        16.8299 
 233   0.0000       0.620655        16.8889 
 234   0.0000       0.632871        17.2213 
 235   0.0000       0.649274        17.6676 
 236   0.0000       0.651194        17.7199 
 237   0.0000       0.653514        17.7830 
 238   0.0000       0.655585        17.8394 
 239   0.0000       0.664372        18.0785 
 240   0.0000       0.669469        18.2172 
 241   0.0000       0.670928        18.2569 
 242   0.0000       0.676271        18.4023 
 243   0.0000       0.680485        18.5169 
 244   0.0000       0.683052        18.5868 
 245   0.0000       0.695747        18.9322 
 246   0.0000       0.704772        19.1778 
 247   0.0000       0.709328        19.3018 
 248   0.0000       0.714317        19.4375 
 249   0.0000       0.719403        19.5759 
 250   0.0000       0.720652        19.6099 
 251   0.0000       0.726082        19.7577 
 252   0.0000       0.727977        19.8093 
 253   0.0000       0.737299        20.0629 
 254   0.0000       0.741177        20.1684 
 255   0.0000       0.746928        20.3250 
 256   0.0000       0.755276        20.5521 
 257   0.0000       0.761299        20.7160 
 258   0.0000       0.763373        20.7724 
 259   0.0000       0.771464        20.9926 
 260   0.0000       0.777387        21.1538 
 261   0.0000       0.779732        21.2176 
 262   0.0000       0.781818        21.2743 
 263   0.0000       0.789139        21.4736 
 264   0.0000       0.798064        21.7164 
 265   0.0000       0.809651        22.0317 
 266   0.0000       0.811143        22.0723 
 267   0.0000       0.818445        22.2710 
 268   0.0000       0.825632        22.4666 
 269   0.0000       0.832037        22.6409 
 270   0.0000       0.839488        22.8436 
 271   0.0000       0.846550        23.0358 
 272   0.0000       0.852856        23.2074 
 273   0.0000       0.862326        23.4651 
 274   0.0000       0.866247        23.5718 
 275   0.0000       0.874814        23.8049 
 276   0.0000       0.879184        23.9238 
 277   0.0000       0.880808        23.9680 
 278   0.0000       0.885718        24.1016 
 279   0.0000       0.896247        24.3881 
 280   0.0000       0.899091        24.4655 
 281   0.0000       0.905814        24.6485 
 282   0.0000       0.914371        24.8813 
 283   0.0000       0.918332        24.9891 
 284   0.0000       0.928234        25.2585 
 285   0.0000       0.934643        25.4329 
 286   0.0000       0.937202        25.5026 
 287   0.0000       0.948983        25.8232 
 288   0.0000       0.949128        25.8271 
 289   0.0000       0.952557        25.9204 
 290   0.0000       0.961668        26.1683 
 291   0.0000       0.963776        26.2257 
 292   0.0000       0.968842        26.3635 
 293   0.0000       0.980629        26.6843 
 294   0.0000       0.988548        26.8998 
 295   0.0000       0.993285        27.0287 
 296   0.0000       0.999333        27.1932 
 297   0.0000       1.006905        27.3993 
 298   0.0000       1.016775        27.6679 
 299   0.0000       1.024857        27.8878 
 300   0.0000       1.027687        27.9648 
 301   0.0000       1.031693        28.0738 
 302   0.0000       1.040046        28.3011 
 303   0.0000       1.046392        28.4738 
 304   0.0000       1.059801        28.8387 
 305   0.0000       1.064164        28.9574 
 306   0.0000       1.066835        29.0301 
 307   0.0000       1.080347        29.3977 
 308   0.0000       1.083765        29.4907 
 309   0.0000       1.088027        29.6067 
 310   0.0000       1.092106        29.7177 
 311   0.0000       1.102725        30.0067 
 312   0.0000       1.108271        30.1576 
 313   0.0000       1.115964        30.3669 
 314   0.0000       1.126240        30.6466 
 315   0.0000       1.132489        30.8166 
 316   0.0000       1.140078        31.0231 
 317   0.0000       1.140472        31.0338 
 318   0.0000       1.149006        31.2660 
 319   0.0000       1.154609        31.4185 
 320   0.0000       1.163357        31.6566 
[...]
 23:    206.73   0.000655    3.31  0.000988  ( 0.000410 -0.024548  0.019631)
 24:    228.19   0.006377   32.23  0.008722  ( 0.021664  0.090660  0.005733)
 25:    246.13   0.000595    3.01  0.000755  (-0.016526  0.015741 -0.015297)
 26:    247.89   0.000764    3.86  0.000962  ( 0.005739 -0.028445  0.010943)
 27:    278.49   0.006685   33.79  0.007491  ( 0.068466 -0.052391  0.007670)
 28:    293.49   0.001359    6.87  0.001445  (-0.017667 -0.032685 -0.008024)
 29:    306.05   0.000757    3.83  0.000772  (-0.000647 -0.027782  0.000289)
 30:    309.10   0.002153   10.88  0.002174  ( 0.013563 -0.041132 -0.017269)
 31:    323.97   0.000252    1.27  0.000243  (-0.010584  0.005670 -0.009936)
 32:    368.29   0.002665   13.47  0.002258  ( 0.046821 -0.000762 -0.008061)
 33:    392.29   0.004117   20.81  0.003275  ( 0.003764 -0.054877  0.015794)
 34:    444.63   0.000402    2.03  0.000282  ( 0.008147 -0.012958 -0.006922)
 35:    473.28   0.000639    3.23  0.000421  ( 0.008224 -0.017763 -0.006189)
 36:    485.54   0.001046    5.29  0.000672  (-0.004831  0.025099  0.004372)
 37:    507.97   0.000469    2.37  0.000288  (-0.007689 -0.012507  0.008501)
 38:    528.28   0.003370   17.03  0.001991  ( 0.009696  0.037738 -0.021734)
 39:    553.72   0.004244   21.45  0.002392  ( 0.002369  0.047413 -0.011758)
 40:    571.97   0.001311    6.63  0.000715  ( 0.023159 -0.013262  0.001779)
 41:    572.89   0.009547   48.25  0.005201  (-0.052037 -0.044739 -0.022163)
 42:    588.95   0.004020   20.32  0.002130  (-0.003338 -0.025628  0.038239)
 43:    621.02   0.003548   17.93  0.001783  ( 0.037609  0.001600  0.019132)
 44:    632.55   0.010108   51.08  0.004987  ( 0.008884  0.069338  0.009989)
 45:    646.26   0.006863   34.68  0.003314  (-0.001470 -0.048628 -0.030778)
 46:    669.28   0.005294   26.75  0.002468  (-0.020939  0.041218  0.018192)
 47:    698.70   0.006873   34.73  0.003070  ( 0.015796  0.013835  0.051271)
 48:    706.89   0.021851  110.43  0.009646  ( 0.039796 -0.084914 -0.029193)
 49:    718.91   0.043459  219.62  0.018865  (-0.000643  0.127866  0.050144)
 50:    755.10   0.005686   28.74  0.002350  ( 0.020365  0.003311  0.043868)
 51:    765.58   0.007962   40.23  0.003245  ( 0.018852 -0.048978  0.022158)
 52:    768.89   0.016598   83.88  0.006736  ( 0.018621 -0.079871 -0.003199)
 53:    779.00   0.002643   13.36  0.001059  (-0.017594  0.018342 -0.020318)
 54:    795.77   0.000185    0.93  0.000073  (-0.002027 -0.006957  0.004474)
 55:    825.75   0.001698    8.58  0.000642  (-0.001318  0.020408  0.014951)
 56:    839.42   0.009747   49.26  0.003624  ( 0.035113 -0.048528  0.005973)
 57:    844.68   0.006156   31.11  0.002274  ( 0.038440  0.013020  0.025041)
 58:    871.12   0.004398   22.22  0.001575  (-0.007037 -0.035601 -0.016076)
 59:    880.65   0.005306   26.82  0.001880  ( 0.028045  0.018489  0.027422)
 60:    910.47   0.005284   26.70  0.001811  (-0.025539  0.017016  0.029486)
 61:    937.06   0.008363   42.27  0.002785  (-0.014135 -0.050828  0.001380)
 62:    955.81   0.002880   14.56  0.000940  (-0.011147  0.026855  0.009747)
 63:    969.33   0.000335    1.70  0.000108  (-0.000128  0.007368  0.007327)
 64:    987.49   0.004375   22.11  0.001383  ( 0.006684 -0.031553 -0.018504)
 65:    991.61   0.011755   59.41  0.003699  ( 0.011368 -0.052108 -0.029240)
 66:   1008.41   0.022017  111.26  0.006813  (-0.013230 -0.077598 -0.024836)
 67:   1017.15   0.000877    4.43  0.000269  (-0.000623  0.013071  0.009895)
 68:   1051.43   0.007996   40.41  0.002373  (-0.034207  0.029134  0.018820)
 69:   1056.10   0.002759   13.94  0.000815  (-0.018665 -0.003619  0.021305)
 70:   1071.00   0.011932   60.30  0.003477  (-0.031531  0.004791  0.049595)
 71:   1084.95   0.004220   21.33  0.001214  (-0.004258 -0.003708 -0.034380)
 72:   1093.52   0.019938  100.76  0.005690  (-0.026296 -0.048230 -0.051694)
 73:   1109.43   0.008172   41.30  0.002299  (-0.006445 -0.045299 -0.014324)
 74:   1142.43   0.006083   30.74  0.001662  ( 0.009296 -0.025631  0.030303)
 75:   1155.58   0.024243  122.52  0.006547  (-0.035054  0.044627  0.057676)
 76:   1170.78   0.000378    1.91  0.000101  (-0.000269 -0.008548  0.005253)
 77:   1171.80   0.000235    1.19  0.000063  ( 0.004408 -0.005691 -0.003270)
 78:   1173.63   0.001006    5.08  0.000267  (-0.004379 -0.000156  0.015756)
 79:   1174.64   0.002813   14.22  0.000747  ( 0.012433 -0.022706  0.008788)
 80:   1200.63   0.026527  134.06  0.006895  ( 0.061223 -0.022312 -0.051466)
 81:   1204.06   0.006981   35.28  0.001809  (-0.038951  0.005059 -0.016327)
 82:   1207.60   0.002091   10.57  0.000540  (-0.012517  0.017718  0.008358)
 83:   1208.84   0.000611    3.09  0.000158  (-0.009953 -0.006267  0.004409)
 84:   1231.99   0.003893   19.68  0.000986  (-0.030769 -0.004898 -0.003930)
 85:   1238.55   0.033893  171.28  0.008540  (-0.069242  0.060969  0.005281)
 86:   1261.16   0.024396  123.29  0.006037  ( 0.076860 -0.011294  0.001270)
 87:   1263.48   0.083333  421.13  0.020582  (-0.111535  0.089863  0.008177)
 88:   1282.45   0.010316   52.13  0.002510  (-0.018455  0.010334  0.045418)
 89:   1307.52   0.061277  309.67  0.014625  ( 0.057292  0.045486  0.096300)
 90:   1335.33   0.003208   16.21  0.000750  (-0.022770 -0.010493  0.011007)
 91:   1345.89   0.023221  117.35  0.005384  ( 0.054522  0.002348  0.049051)
 92:   1349.41   0.107033  540.90  0.024752  ( 0.025396 -0.108695 -0.110873)
 93:   1370.27   0.024746  125.06  0.005636  ( 0.058855 -0.042035 -0.020121)
 94:   1378.45   0.016852   85.16  0.003815  ( 0.020579  0.016268  0.055919)
 95:   1387.73   0.005182   26.19  0.001165  (-0.026772  0.005783  0.020376)
 96:   1417.73   0.070902  358.31  0.015607  (-0.029119  0.095340 -0.075293)
 97:   1422.67   0.009873   49.89  0.002166  ( 0.019866 -0.027606 -0.031762)
 98:   1465.14   0.004022   20.33  0.000857  ( 0.001796  0.014438  0.025399)
 99:   1465.61   0.004498   22.73  0.000958  (-0.004781  0.030574 -0.000315)
100:   1469.46   0.011048   55.83  0.002346  (-0.046501  0.001927  0.013425)
101:   1472.10   0.005180   26.18  0.001098  ( 0.022266 -0.014525  0.019783)
102:   1474.60   0.002979   15.05  0.000630  ( 0.003451 -0.012017 -0.021774)
103:   1483.94   0.003182   16.08  0.000669  ( 0.019601  0.010760  0.013004)
104:   1491.87   0.020943  105.84  0.004381  ( 0.038552  0.039559 -0.036465)
105:   1498.99   0.011941   60.34  0.002486  ( 0.018413  0.036340  0.028743)
106:   1506.63   0.074791  377.96  0.015491  (-0.030072  0.098396 -0.070037)
107:   1515.39   0.003278   16.56  0.000675  (-0.016059  0.018703 -0.008200)
108:   1541.13   0.033848  171.05  0.006854  ( 0.047397  0.027721  0.061959)
109:   1601.54   0.042938  216.99  0.008367  (-0.018385 -0.079518  0.041298)
110:   1651.11   0.007135   36.06  0.001349  (-0.004174 -0.009761 -0.035155)
111:   1664.75   0.012192   61.61  0.002285  (-0.033797 -0.020655 -0.026770)
112:   1681.73   0.037016  187.06  0.006869  (-0.081325 -0.014265 -0.007171)
113:   1793.88   0.101986  515.39  0.017741  ( 0.068772  0.067767  0.091758)
114:   2277.87   0.296701  1499.41  0.040648  ( 0.075815 -0.120003  0.143174)
115:   3040.78   0.012263   61.97  0.001259  ( 0.010065 -0.004039 -0.033777)
116:   3074.90   0.006135   31.00  0.000623  (-0.017533  0.014837  0.009751)
117:   3113.46   0.007129   36.03  0.000715  (-0.010326  0.023994 -0.005673)
118:   3113.67   0.001205    6.09  0.000121  ( 0.005720 -0.008405 -0.004171)
119:   3127.43   0.000582    2.94  0.000058  (-0.007618  0.000105 -0.000129)
120:   3159.52   0.003569   18.04  0.000352  (-0.004718 -0.014575  0.010853)
121:   3167.33   0.003437   17.37  0.000339  (-0.016224 -0.006476 -0.005785)
122:   3173.50   0.002012   10.17  0.000198  ( 0.007718 -0.008678 -0.007933)
123:   3186.52   0.000839    4.24  0.000082  (-0.004771 -0.000204  0.007702)
124:   3191.82   0.001968    9.95  0.000192  ( 0.010660  0.001940  0.008663)
125:   3196.29   0.001795    9.07  0.000175  (-0.010318 -0.002467  0.007920)
126:   3206.94   0.001001    5.06  0.000097  ( 0.008593 -0.001609  0.004577)
127:   3213.89   0.003310   16.73  0.000321  ( 0.012229  0.006764  0.011231)
128:   3230.77   0.000333    1.68  0.000032  (-0.003109  0.000198  0.004741)
129:   3233.49   0.000481    2.43  0.000046  ( 0.005378  0.001284  0.003978)
130:   3234.49   0.000041    0.21  0.000004  (-0.000955 -0.000825  0.001542)
131:   3250.64   0.000017    0.09  0.000002  ( 0.001142  0.000540  0.000275)

* The epsilon (eps) is given for a Dirac delta lineshape.
** The dipole moment derivative (T) already includes vibrational overlap.

The first frequency considered to be a vibration is 7
The total number of vibrations considered is 125


--------------------------
THERMOCHEMISTRY AT 298.15K
--------------------------

Temperature         ... 298.15 K
Pressure            ... 1.00 atm
Total Mass          ... 371.35 AMU

Throughout the following assumptions are being made:
  (1) The electronic state is orbitally nondegenerate
  (2) There are no thermally accessible electronically excited states
  (3) Hindered rotations indicated by low frequency modes are not
      treated as such but are treated as vibrations and this may
      cause some error
  (4) All equations used are the standard statistical mechanics
      equations for an ideal gas
  (5) All vibrations are strictly harmonic

freq.      26.68  E(vib)   ...       0.56 
freq.      49.46  E(vib)   ...       0.52 
freq.      59.19  E(vib)   ...       0.51 
freq.      72.53  E(vib)   ...       0.49 
freq.      85.11  E(vib)   ...       0.48 
freq.      88.71  E(vib)   ...       0.47 
freq.      89.42  E(vib)   ...       0.47 
freq.      94.55  E(vib)   ...       0.47 
freq.     114.47  E(vib)   ...       0.44 
freq.     121.17  E(vib)   ...       0.44 
freq.     124.90  E(vib)   ...       0.43 
freq.     136.74  E(vib)   ...       0.42 
freq.     138.96  E(vib)   ...       0.42 
freq.     151.80  E(vib)   ...       0.40 
freq.     179.49  E(vib)   ...       0.37 
freq.     205.13  E(vib)   ...       0.35 
freq.     206.73  E(vib)   ...       0.35 
freq.     228.19  E(vib)   ...       0.32 
freq.     246.13  E(vib)   ...       0.31 
freq.     247.89  E(vib)   ...       0.31 
freq.     278.49  E(vib)   ...       0.28 
freq.     293.49  E(vib)   ...       0.27 
freq.     306.05  E(vib)   ...       0.26 
freq.     309.10  E(vib)   ...       0.26 
freq.     323.97  E(vib)   ...       0.25 
freq.     368.29  E(vib)   ...       0.21 
freq.     392.29  E(vib)   ...       0.20 
freq.     444.63  E(vib)   ...       0.17 
freq.     473.28  E(vib)   ...       0.15 
freq.     485.54  E(vib)   ...       0.15 
freq.     507.97  E(vib)   ...       0.14 
freq.     528.28  E(vib)   ...       0.13 
freq.     553.72  E(vib)   ...       0.12 
freq.     571.97  E(vib)   ...       0.11 
freq.     572.89  E(vib)   ...       0.11 
freq.     588.95  E(vib)   ...       0.10 
freq.     621.02  E(vib)   ...       0.09 
freq.     632.55  E(vib)   ...       0.09 
freq.     646.26  E(vib)   ...       0.09 
freq.     669.28  E(vib)   ...       0.08 
freq.     698.70  E(vib)   ...       0.07 
freq.     706.89  E(vib)   ...       0.07 
freq.     718.91  E(vib)   ...       0.07 
freq.     755.10  E(vib)   ...       0.06 
freq.     765.58  E(vib)   ...       0.06 
freq.     768.89  E(vib)   ...       0.06 
freq.     779.00  E(vib)   ...       0.05 
freq.     795.77  E(vib)   ...       0.05 
freq.     825.75  E(vib)   ...       0.04 
freq.     839.42  E(vib)   ...       0.04 
freq.     844.68  E(vib)   ...       0.04 
freq.     871.12  E(vib)   ...       0.04 
freq.     880.65  E(vib)   ...       0.04 
freq.     910.47  E(vib)   ...       0.03 
freq.     937.06  E(vib)   ...       0.03 
freq.     955.81  E(vib)   ...       0.03 
freq.     969.33  E(vib)   ...       0.03 
freq.     987.49  E(vib)   ...       0.02 
freq.     991.61  E(vib)   ...       0.02 
freq.    1008.41  E(vib)   ...       0.02 
freq.    1017.15  E(vib)   ...       0.02 
freq.    1051.43  E(vib)   ...       0.02 
freq.    1056.10  E(vib)   ...       0.02 
freq.    1071.00  E(vib)   ...       0.02 
freq.    1084.95  E(vib)   ...       0.02 
freq.    1093.52  E(vib)   ...       0.02 
freq.    1109.43  E(vib)   ...       0.02 
freq.    1142.43  E(vib)   ...       0.01 
freq.    1155.58  E(vib)   ...       0.01 
freq.    1170.78  E(vib)   ...       0.01 
freq.    1171.80  E(vib)   ...       0.01 
freq.    1173.63  E(vib)   ...       0.01 
freq.    1174.64  E(vib)   ...       0.01 
freq.    1200.63  E(vib)   ...       0.01 
freq.    1204.06  E(vib)   ...       0.01 
freq.    1207.60  E(vib)   ...       0.01 
freq.    1208.84  E(vib)   ...       0.01 
freq.    1231.99  E(vib)   ...       0.01 
freq.    1238.55  E(vib)   ...       0.01 
freq.    1261.16  E(vib)   ...       0.01 
freq.    1263.48  E(vib)   ...       0.01 
freq.    1282.45  E(vib)   ...       0.01 
freq.    1307.52  E(vib)   ...       0.01 
freq.    1335.33  E(vib)   ...       0.01 
freq.    1345.89  E(vib)   ...       0.01 
freq.    1349.41  E(vib)   ...       0.01 
freq.    1370.27  E(vib)   ...       0.01 
freq.    1378.45  E(vib)   ...       0.01 
freq.    1387.73  E(vib)   ...       0.00 
freq.    1417.73  E(vib)   ...       0.00 
freq.    1422.67  E(vib)   ...       0.00 
freq.    1465.14  E(vib)   ...       0.00 
freq.    1465.61  E(vib)   ...       0.00 
freq.    1469.46  E(vib)   ...       0.00 
freq.    1472.10  E(vib)   ...       0.00 
freq.    1474.60  E(vib)   ...       0.00 
freq.    1483.94  E(vib)   ...       0.00 
freq.    1491.87  E(vib)   ...       0.00 
freq.    1498.99  E(vib)   ...       0.00 
freq.    1506.63  E(vib)   ...       0.00 
freq.    1515.39  E(vib)   ...       0.00 
freq.    1541.13  E(vib)   ...       0.00 
freq.    1601.54  E(vib)   ...       0.00 
freq.    1651.11  E(vib)   ...       0.00 
freq.    1664.75  E(vib)   ...       0.00 
freq.    1681.73  E(vib)   ...       0.00 
freq.    1793.88  E(vib)   ...       0.00 
freq.    2277.87  E(vib)   ...       0.00 
freq.    3040.78  E(vib)   ...       0.00 
freq.    3074.90  E(vib)   ...       0.00 
freq.    3113.46  E(vib)   ...       0.00 
freq.    3113.67  E(vib)   ...       0.00 
freq.    3127.43  E(vib)   ...       0.00 
freq.    3159.52  E(vib)   ...       0.00 
freq.    3167.33  E(vib)   ...       0.00 
freq.    3173.50  E(vib)   ...       0.00 
freq.    3186.52  E(vib)   ...       0.00 
freq.    3191.82  E(vib)   ...       0.00 
freq.    3196.29  E(vib)   ...       0.00 
freq.    3206.94  E(vib)   ...       0.00 
freq.    3213.89  E(vib)   ...       0.00 
freq.    3230.77  E(vib)   ...       0.00 
freq.    3233.49  E(vib)   ...       0.00 
freq.    3234.49  E(vib)   ...       0.00 
freq.    3250.64  E(vib)   ...       0.00 

------------
INNER ENERGY
------------

The inner energy is: U= E(el) + E(ZPE) + E(vib) + E(rot) + E(trans)
    E(el)   - is the total energy from the electronic structure calculation
              = E(kin-el) + E(nuc-el) + E(el-el) + E(nuc-nuc)
    E(ZPE)  - the the zero temperature vibrational energy from the frequency calculation
    E(vib)  - the the finite temperature correction to E(ZPE) due to population
              of excited vibrational states
    E(rot)  - is the rotational thermal energy
    E(trans)- is the translational thermal energy

Summary of contributions to the inner energy U:
Electronic energy                ...  -1306.81510853 Eh
Zero point energy                ...      0.33740388 Eh     211.72 kcal/mol
Thermal vibrational correction   ...      0.02075278 Eh      13.02 kcal/mol
Thermal rotational correction    ...      0.00141627 Eh       0.89 kcal/mol
Thermal translational correction ...      0.00141627 Eh       0.89 kcal/mol
-----------------------------------------------------------------------
Total thermal energy                  -1306.45411932 Eh


Summary of corrections to the electronic energy:
(perhaps to be used in another calculation)
Total thermal correction                  0.02358532 Eh      14.80 kcal/mol
Non-thermal (ZPE) correction              0.33740388 Eh     211.72 kcal/mol
-----------------------------------------------------------------------
Total correction                          0.36098921 Eh     226.52 kcal/mol


--------
ENTHALPY
--------

The enthalpy is H = U + kB*T
                kB is Boltzmann's constant
Total free energy                 ...  -1306.45411932 Eh 
Thermal Enthalpy correction       ...      0.00094421 Eh       0.59 kcal/mol
-----------------------------------------------------------------------
Total Enthalpy                    ...  -1306.45317511 Eh


Note: Only C1 symmetry has been detected, increase convergence thresholds 
      if your molecule has a higher symmetry. Symmetry factor of 1.0 is   
      used for the rotational entropy correction. 
 

Note: Rotational entropy computed according to Herzberg 
Infrared and Raman Spectra, Chapter V,1, Van Nostrand Reinhold, 1945 
Point Group:  C1, Symmetry Number:   1  
Rotational constants in cm-1:     0.010049     0.006492     0.005327 

Vibrational entropy computed according to the QRRHO of S. Grimme
Chem.Eur.J. 2012 18 9955


-------
ENTROPY
-------

The entropy contributions are T*S = T*(S(el)+S(vib)+S(rot)+S(trans))
     S(el)   - electronic entropy
     S(vib)  - vibrational entropy
     S(rot)  - rotational entropy
     S(trans)- translational entropy
The entropies will be listed as multiplied by the temperature to get
units of energy

Electronic entropy                ...      0.00000000 Eh      0.00 kcal/mol
Vibrational entropy               ...      0.03698749 Eh     23.21 kcal/mol
Rotational entropy                ...      0.01653189 Eh     10.37 kcal/mol
Translational entropy             ...      0.02072937 Eh     13.01 kcal/mol
-----------------------------------------------------------------------
Final entropy term                ...      0.07424874 Eh     46.59 kcal/mol

In case the symmetry of your molecule has not been determined correctly
or in case you have a reason to use a different symmetry number we print 
out the resulting rotational entropy values for sn=1,12 :
 --------------------------------------------------------
|  sn= 1 | S(rot)=       0.01653189 Eh     10.37 kcal/mol|
|  sn= 2 | S(rot)=       0.01587743 Eh      9.96 kcal/mol|
|  sn= 3 | S(rot)=       0.01549460 Eh      9.72 kcal/mol|
|  sn= 4 | S(rot)=       0.01522297 Eh      9.55 kcal/mol|
|  sn= 5 | S(rot)=       0.01501229 Eh      9.42 kcal/mol|
|  sn= 6 | S(rot)=       0.01484014 Eh      9.31 kcal/mol|
|  sn= 7 | S(rot)=       0.01469460 Eh      9.22 kcal/mol|
|  sn= 8 | S(rot)=       0.01456852 Eh      9.14 kcal/mol|
|  sn= 9 | S(rot)=       0.01445731 Eh      9.07 kcal/mol|
|  sn=10 | S(rot)=       0.01435783 Eh      9.01 kcal/mol|
|  sn=11 | S(rot)=       0.01426784 Eh      8.95 kcal/mol|
|  sn=12 | S(rot)=       0.01418569 Eh      8.90 kcal/mol|
 --------------------------------------------------------


-------------------
GIBBS FREE ENERGY
-------------------

The Gibbs free energy is G = H - T*S

Total enthalpy                    ...  -1306.45317511 Eh 
Total entropy correction          ...     -0.07424874 Eh    -46.59 kcal/mol
-----------------------------------------------------------------------
Final Gibbs free energy         ...  -1306.52742385 Eh

For completeness - the Gibbs free energy minus the electronic energy
G-E(el)                           ...      0.28768468 Eh    180.52 kcal/mol


Timings for individual modules:

Sum of individual times         ...     4611.830 sec (=  76.864 min)
GTO integral calculation        ...       22.866 sec (=   0.381 min)   0.5 %
SCF iterations                  ...      932.279 sec (=  15.538 min)  20.2 %
SCF Gradient evaluation         ...      224.347 sec (=   3.739 min)   4.9 %
Geometry relaxation             ...        2.081 sec (=   0.035 min)   0.0 %
Analytical frequency calculation...     3430.257 sec (=  57.171 min)  74.4 %
                             ****ORCA TERMINATED NORMALLY****
TOTAL RUN TIME: 0 days 1 hours 17 minutes 12 seconds 674 msec
