
                                 *****************
                                 * O   R   C   A *
                                 *****************

                                            #,                                       
                                            ###                                      
                                            ####                                     
                                            #####                                    
                                            ######                                   
                                           ########,                                 
                                     ,,################,,,,,                         
                               ,,#################################,,                 
                          ,,##########################################,,             
                       ,#########################################, ''#####,          
                    ,#############################################,,   '####,        
                  ,##################################################,,,,####,       
                ,###########''''           ''''###############################       
              ,#####''   ,,,,##########,,,,          '''####'''          '####       
            ,##' ,,,,###########################,,,                        '##       
           ' ,,###''''                  '''############,,,                           
         ,,##''                                '''############,,,,        ,,,,,,###''
      ,#''                                            '''#######################'''  
     '                                                          ''''####''''         
             ,#######,   #######,   ,#######,      ##                                
            ,#'     '#,  ##    ##  ,#'     '#,    #''#        ######   ,####,        
            ##       ##  ##   ,#'  ##            #'  '#       #        #'  '#        
            ##       ##  #######   ##           ,######,      #####,   #    #        
            '#,     ,#'  ##    ##  '#,     ,#' ,#      #,         ##   #,  ,#        
             '#######'   ##     ##  '#######'  #'      '#     #####' # '####'        



                  #######################################################
                  #                        -***-                        #
                  #          Department of theory and spectroscopy      #
                  #    Directorship and core code : Frank Neese         #
                  #        Max Planck Institute fuer Kohlenforschung    #
                  #                Kaiser Wilhelm Platz 1               #
                  #                 D-45470 Muelheim/Ruhr               #
                  #                      Germany                        #
                  #                                                     #
                  #                  All rights reserved                #
                  #                        -***-                        #
                  #######################################################


                         Program Version 5.0.4 -  RELEASE  -


 With contributions from (in alphabetic order):
   Daniel Aravena         : Magnetic Suceptibility
   Michael Atanasov       : Ab Initio Ligand Field Theory (pilot matlab implementation)
   Alexander A. Auer      : GIAO ZORA, VPT2 properties, NMR spectrum
   Ute Becker             : Parallelization
   Giovanni Bistoni       : ED, misc. LED, open-shell LED, HFLD
   Martin Brehm           : Molecular dynamics
   Dmytro Bykov           : SCF Hessian
   Vijay G. Chilkuri      : MRCI spin determinant printing, contributions to CSF-ICE
   Dipayan Datta          : RHF DLPNO-CCSD density
   Achintya Kumar Dutta   : EOM-CC, STEOM-CC
   Dmitry Ganyushin       : Spin-Orbit,Spin-Spin,Magnetic field MRCI
   Miquel Garcia          : C-PCM and meta-GGA Hessian, CC/C-PCM, Gaussian charge scheme
   Yang Guo               : DLPNO-NEVPT2, F12-NEVPT2, CIM, IAO-localization
   Andreas Hansen         : Spin unrestricted coupled pair/coupled cluster methods
   Benjamin Helmich-Paris : MC-RPA, TRAH-SCF, COSX integrals
   Lee Huntington         : MR-EOM, pCC
   Robert Izsak           : Overlap fitted RIJCOSX, COSX-SCS-MP3, EOM
   Marcus Kettner         : VPT2
   Christian Kollmar      : KDIIS, OOCD, Brueckner-CCSD(T), CCSD density, CASPT2, CASPT2-K
   Simone Kossmann        : Meta GGA functionals, TD-DFT gradient, OOMP2, MP2 Hessian
   Martin Krupicka        : Initial AUTO-CI
   Lucas Lang             : DCDCAS
   Marvin Lechner         : AUTO-CI (C++ implementation), FIC-MRCC
   Dagmar Lenk            : GEPOL surface, SMD
   Dimitrios Liakos       : Extrapolation schemes; Compound Job, initial MDCI parallelization
   Dimitrios Manganas     : Further ROCIS development; embedding schemes
   Dimitrios Pantazis     : SARC Basis sets
   Anastasios Papadopoulos: AUTO-CI, single reference methods and gradients
   Taras Petrenko         : DFT Hessian,TD-DFT gradient, ASA, ECA, R-Raman, ABS, FL, XAS/XES, NRVS
   Peter Pinski           : DLPNO-MP2, DLPNO-MP2 Gradient
   Christoph Reimann      : Effective Core Potentials
   Marius Retegan         : Local ZFS, SOC
   Christoph Riplinger    : Optimizer, TS searches, QM/MM, DLPNO-CCSD(T), (RO)-DLPNO pert. Triples
   Tobias Risthaus        : Range-separated hybrids, TD-DFT gradient, RPA, STAB
   Michael Roemelt        : Original ROCIS implementation
   Masaaki Saitow         : Open-shell DLPNO-CCSD energy and density
   Barbara Sandhoefer     : DKH picture change effects
   Avijit Sen             : IP-ROCIS
   Kantharuban Sivalingam : CASSCF convergence, NEVPT2, FIC-MRCI
   Bernardo de Souza      : ESD, SOC TD-DFT
   Georgi Stoychev        : AutoAux, RI-MP2 NMR, DLPNO-MP2 response
   Willem Van den Heuvel  : Paramagnetic NMR
   Boris Wezisla          : Elementary symmetry handling
   Frank Wennmohs         : Technical directorship


 We gratefully acknowledge several colleagues who have allowed us to
 interface, adapt or use parts of their codes:
   Stefan Grimme, W. Hujo, H. Kruse, P. Pracht,  : VdW corrections, initial TS optimization,
                  C. Bannwarth, S. Ehlert          DFT functionals, gCP, sTDA/sTD-DF
   Ed Valeev, F. Pavosevic, A. Kumar             : LibInt (2-el integral package), F12 methods
   Garnet Chan, S. Sharma, J. Yang, R. Olivares  : DMRG
   Ulf Ekstrom                                   : XCFun DFT Library
   Mihaly Kallay                                 : mrcc  (arbitrary order and MRCC methods)
   Jiri Pittner, Ondrej Demel                    : Mk-CCSD
   Frank Weinhold                                : gennbo (NPA and NBO analysis)
   Christopher J. Cramer and Donald G. Truhlar   : smd solvation model
   Lars Goerigk                                  : TD-DFT with DH, B97 family of functionals
   V. Asgeirsson, H. Jonsson                     : NEB implementation
   FAccTs GmbH                                   : IRC, NEB, NEB-TS, DLPNO-Multilevel, CI-OPT
                                                   MM, QMMM, 2- and 3-layer-ONIOM, Crystal-QMMM,
                                                   LR-CPCM, SF, NACMEs, symmetry and pop. for TD-DFT,
                                                   nearIR, NL-DFT gradient (VV10), updates on ESD,
                                                   ML-optimized integration grids
   S Lehtola, MJT Oliveira, MAL Marques          : LibXC Library
   Liviu Ungur et al                             : ANISO software


 Your calculation uses the libint2 library for the computation of 2-el integrals
 For citations please refer to: http://libint.valeyev.net

 Your ORCA version has been built with support for libXC version: 5.1.0
 For citations please refer to: https://tddft.org/programs/libxc/

 This ORCA versions uses:
   CBLAS   interface :  Fast vector & matrix operations
   LAPACKE interface :  Fast linear algebra routines
   SCALAPACK package :  Parallel linear algebra routines
   Shared memory     :  Shared parallel matrices
   BLAS/LAPACK       :  OpenBLAS 0.3.15  USE64BITINT DYNAMIC_ARCH NO_AFFINITY Haswell SINGLE_THREADED
        Core in use  :  Haswell
   Copyright (c) 2011-2014, The OpenBLAS Project


Your calculation utilizes the atom-pairwise dispersion correction
with the Becke-Johnson damping scheme (D3BJ)
Cite in your paper:
S.Grimme, S.Ehrlich, L.Goerigk, J Comput Chem, (2011), 32, 1456–1465 
S.Grimme, J.Antony, S.Ehrlich and H.Krieg, J.Chem.Phys., 132, (2010), 154104 
   

================================================================================

----- Orbital basis set information -----
Your calculation utilizes the basis: def2-TZVP
   F. Weigend and R. Ahlrichs, Phys. Chem. Chem. Phys. 7, 3297 (2005).

----- AuxJ basis set information -----
Your calculation utilizes the auxiliary basis: def2/J
   F. Weigend, Phys. Chem. Chem. Phys. 8, 1057 (2006).

================================================================================
                                        WARNINGS
                       Please study these warnings very carefully!
================================================================================


WARNING: Geometry Optimization
  ===> : Switching off AutoStart
         For restart on a previous wavefunction, please use MOREAD

INFO   : the flag for use of the SHARK integral package has been found!

================================================================================
                                       INPUT FILE
================================================================================
NAME = TS1_4-NO2Ph.inp
|  1> %pal nprocs 28 end
|  2> %maxcore 3500
|  3> !PBE0 D3BJ def2-TZVP TightOpt TightSCF OPTTS FREQ
|  4> !CPCM(dmso)
|  5> %scf
|  6> MaxIter 800
|  7> end
|  8> %geom
|  9> MaxIter 800
| 10> calc_hess True
| 11> MaxStep 0.2
| 12> end
| 13> *xyz 0 1
| 14> C       -3.040198000     -3.428571000      0.970374000
| 15> C       -4.133135000     -2.771720000      0.359755000
| 16> C       -3.981249000     -1.471936000     -0.001521000
| 17> N       -2.836995000     -0.801720000      0.265571000
| 18> C       -1.741330000     -1.398831000      0.843813000
| 19> C       -1.881657000     -2.758442000      1.231201000
| 20> C       -2.549171000      0.487168000     -0.296995000
| 21> C       -2.652181000      1.559539000      0.776967000
| 22> O       -2.901347000      1.346527000      1.935368000
| 23> O       -2.532324000      2.761355000      0.239873000
| 24> C       -2.593832000      3.867669000      1.145077000
| 25> H       -3.139143000     -4.465216000      1.271390000
| 26> H       -4.745478000     -0.901462000     -0.513086000
| 27> H       -1.113656000     -0.730155000      1.419487000
| 28> H       -1.064046000     -3.237896000      1.752494000
| 29> H       -3.328973000      0.729036000     -1.020729000
| 30> H       -1.806980000      3.780830000      1.894753000
| 31> H       -3.567313000      3.902416000      1.633918000
| 32> C        3.605718717     -1.057996740      0.291722694
| 33> C        2.684284740     -1.474238210      1.237258732
| 34> C        1.341457368     -1.462319809      0.907071880
| 35> C        0.914789977     -1.039272514     -0.348887115
| 36> C        1.875524053     -0.647591711     -1.284865703
| 37> C        3.221234723     -0.649237807     -0.974907316
| 38> C       -0.525219248     -0.971597452     -0.737180907
| 39> C       -1.172664000      0.355559000     -1.102722000
| 40> C       -0.262270000      1.552335000     -1.059255000
| 41> C        0.021604000      2.234007000     -2.232466000
| 42> C        0.913129000      3.299134000     -2.258349000
| 43> C        1.532301000      3.691514000     -1.083675000
| 44> C        1.258230000      3.035555000      0.110363000
| 45> C        0.360916000      1.976953000      0.121129000
| 46> O        0.018260000      1.293460000      1.233126000
| 47> C        0.644891000      1.620458000      2.458177000
| 48> N       -0.918908195     -2.040563988     -1.541860267
| 49> O       -0.284668186     -3.104892565     -1.481268310
| 50> H        3.014675575     -1.795244809      2.215309793
| 51> H        0.628774013     -1.781158380      1.654141078
| 52> H        1.561227596     -0.329657866     -2.270946488
| 53> H        3.962960714     -0.338064245     -1.697256546
| 54> H       -1.501814000      0.258424000     -2.136641000
| 55> H       -0.458075000      1.908436000     -3.149740000
| 56> H        1.122526000      3.811087000     -3.189812000
| 57> H        2.235715000      4.516448000     -1.084559000
| 58> H        1.743343000      3.353773000      1.023405000
| 59> H        0.426709000      2.651572000      2.748189000
| 60> H        1.726675000      1.476262000      2.392092000
| 61> H        0.230969000      0.938207000      3.197803000
| 62> O       -1.956324112     -1.943687717     -2.213168797
| 63> H       -2.441126000      4.753864000      0.535054000
| 64> N        5.020216352     -1.049761998      0.638577403
| 65> O        5.811699259     -0.648408971     -0.192270125
| 66> O        5.342357691     -1.443037722      1.742732720
| 67> H       -5.065776000     -3.280768000      0.164346000
| 68> *
| 69> 
| 70>                          ****END OF INPUT****
================================================================================

                       *****************************
                       * Geometry Optimization Run *
                       *****************************

Geometry optimization settings:
Update method            Update   .... Bofill
Choice of coordinates    CoordSys .... Z-matrix Internals
Initial Hessian          InHess   .... Almoef's Model

Convergence Tolerances:
Energy Change            TolE     ....  1.0000e-06 Eh
Max. Gradient            TolMAXG  ....  1.0000e-04 Eh/bohr
RMS Gradient             TolRMSG  ....  3.0000e-05 Eh/bohr
Max. Displacement        TolMAXD  ....  1.0000e-03 bohr
RMS Displacement         TolRMSD  ....  6.0000e-04 bohr
Strict Convergence                ....  False
------------------------------------------------------------------------------
                        ORCA OPTIMIZATION COORDINATE SETUP
------------------------------------------------------------------------------

The optimization will be done in new redundant internal coordinates
Making redundant internal coordinates   ...  (new redundants) done
Following TS mode number                ...     0
Evaluating the initial hessian          ...  (Is done on the fly) done
Evaluating the coordinates              ...  done
Calculating the B-matrix                .... done
Calculating the G-matrix                .... done
Diagonalizing the G-matrix              .... done
Small eigenvalue found = 1.703e-03
Small eigenvalue found = 3.731e-03
Small eigenvalue found = 4.428e-03
Small eigenvalue found = 7.518e-03
Small eigenvalue found = 8.525e-03
Small eigenvalue found = 1.403e-02
Small eigenvalue found = 1.773e-02
Small eigenvalue found = 2.587e-02
The first mode is                       ....  120
The number of degrees of freedom        ....  156

    -----------------------------------------------------------------
                    Redundant Internal Coordinates


    -----------------------------------------------------------------
         Definition                    Initial Value    d2E/dq (diagonal element)
    -----------------------------------------------------------------
      1. B(C   1,C   0)                  1.4138         0.000000   
      2. B(C   2,C   1)                  1.3576         0.000000   
      3. B(N   3,C   2)                  1.3527         0.000000   
      4. B(C   4,N   3)                  1.3753         0.000000   
      5. B(C   5,C   4)                  1.4207         0.000000   
      6. B(C   5,C   0)                  1.3636         0.000000   
      7. B(C   6,N   3)                  1.4355         0.000000   
      8. B(C   7,C   6)                  1.5212         0.000000   
      9. B(O   8,C   7)                  1.2039         0.000000   
     10. B(O   9,C   7)                  1.3218         0.000000   
     11. B(C  10,O   9)                  1.4308         0.000000   
     12. B(H  11,C   0)                  1.0840         0.000000   
     13. B(H  12,C   2)                  1.0822         0.000000   
     14. B(H  13,C   4)                  1.0828         0.000000   
     15. B(H  14,C   5)                  1.0817         0.000000   
     16. B(H  15,C   6)                  1.0910         0.000000   
     17. B(H  16,C  10)                  1.0903         0.000000   
     18. B(H  17,C  10)                  1.0899         0.000000   
     19. B(C  19,C  18)                  1.3843         0.000000   
     20. B(C  20,C  19)                  1.3829         0.000000   
     21. B(C  21,C  20)                  1.3923         0.000000   
     22. B(C  22,C  21)                  1.3973         0.000000   
     23. B(C  23,C  22)                  1.3809         0.000000   
     24. B(C  23,C  18)                  1.3854         0.000000   
     25. B(C  24,C  21)                  1.4930         0.000000   
     26. B(C  25,C  24)                  1.5212         0.000000   
     27. B(C  25,C   6)                  1.6004         0.000000   
     28. B(C  26,C  25)                  1.5043         0.000000   
     29. B(C  27,C  26)                  1.3862         0.000000   
     30. B(C  28,C  27)                  1.3892         0.000000   
     31. B(C  29,C  28)                  1.3846         0.000000   
     32. B(C  30,C  29)                  1.3896         0.000000   
     33. B(C  31,C  30)                  1.3878         0.000000   
     34. B(C  31,C  26)                  1.4007         0.000000   
     35. B(O  32,C  31)                  1.3495         0.000000   
     36. B(C  33,O  32)                  1.4143         0.000000   
     37. B(N  34,C  24)                  1.3947         0.000000   
     38. B(O  35,N  34)                  1.2405         0.000000   
     39. B(H  36,C  19)                  1.0811         0.000000   
     40. B(H  37,C  20)                  1.0806         0.000000   
     41. B(H  38,C  22)                  1.0827         0.000000   
     42. B(H  39,C  23)                  1.0811         0.000000   
     43. B(H  40,C  25)                  1.0894         0.000000   
     44. B(H  41,C  27)                  1.0851         0.000000   
     45. B(H  42,C  28)                  1.0833         0.000000   
     46. B(H  43,C  29)                  1.0841         0.000000   
     47. B(H  44,C  30)                  1.0818         0.000000   
     48. B(H  45,C  33)                  1.0931         0.000000   
     49. B(H  46,C  33)                  1.0934         0.000000   
     50. B(H  47,C  33)                  1.0880         0.000000   
     51. B(O  48,N  34)                  1.2395         0.000000   
     52. B(H  49,C  10)                  1.0866         0.000000   
     53. B(N  50,H  46)                  4.5059         0.000000   
     54. B(N  50,C  18)                  1.4564         0.000000   
     55. B(O  51,N  50)                  1.2157         0.000000   
     56. B(O  52,N  50)                  1.2156         0.000000   
     57. B(H  53,C   1)                  1.0803         0.000000   
     58. A(C   1,C   0,C   5)          120.7371         0.000000   
     59. A(C   1,C   0,H  11)          119.5828         0.000000   
     60. A(C   5,C   0,H  11)          119.6317         0.000000   
     61. A(C   0,C   1,H  53)          121.7739         0.000000   
     62. A(C   0,C   1,C   2)          118.2467         0.000000   
     63. A(C   2,C   1,H  53)          119.9723         0.000000   
     64. A(N   3,C   2,H  12)          115.4362         0.000000   
     65. A(C   1,C   2,H  12)          123.4687         0.000000   
     66. A(C   1,C   2,N   3)          121.0950         0.000000   
     67. A(C   2,N   3,C   4)          122.8072         0.000000   
     68. A(C   4,N   3,C   6)          113.2583         0.000000   
     69. A(C   2,N   3,C   6)          122.4862         0.000000   
     70. A(N   3,C   4,C   5)          116.8381         0.000000   
     71. A(N   3,C   4,H  13)          114.6596         0.000000   
     72. A(C   5,C   4,H  13)          120.2171         0.000000   
     73. A(C   4,C   5,H  14)          118.7464         0.000000   
     74. A(C   0,C   5,C   4)          120.1387         0.000000   
     75. A(C   0,C   5,H  14)          121.1010         0.000000   
     76. A(H  15,C   6,C  25)          107.3981         0.000000   
     77. A(N   3,C   6,H  15)          108.4034         0.000000   
     78. A(C   7,C   6,H  15)          105.2864         0.000000   
     79. A(N   3,C   6,C   7)          110.0421         0.000000   
     80. A(N   3,C   6,C  25)          107.2131         0.000000   
     81. A(C   7,C   6,C  25)          118.1419         0.000000   
     82. A(O   8,C   7,O   9)          124.7933         0.000000   
     83. A(C   6,C   7,O   9)          110.3619         0.000000   
     84. A(C   6,C   7,O   8)          124.6535         0.000000   
     85. A(C   7,O   9,C  10)          116.2355         0.000000   
     86. A(H  16,C  10,H  17)          109.8010         0.000000   
     87. A(O   9,C  10,H  17)          110.2929         0.000000   
     88. A(O   9,C  10,H  16)          110.0240         0.000000   
     89. A(O   9,C  10,H  49)          105.6277         0.000000   
     90. A(H  16,C  10,H  49)          110.4596         0.000000   
     91. A(H  17,C  10,H  49)          110.5679         0.000000   
     92. A(C  19,C  18,N  50)          119.0448         0.000000   
     93. A(C  23,C  18,N  50)          119.0527         0.000000   
     94. A(C  19,C  18,C  23)          121.9025         0.000000   
     95. A(C  18,C  19,C  20)          118.7290         0.000000   
     96. A(C  18,C  19,H  36)          120.2509         0.000000   
     97. A(C  20,C  19,H  36)          121.0189         0.000000   
     98. A(C  19,C  20,H  37)          118.2170         0.000000   
     99. A(C  19,C  20,C  21)          121.0366         0.000000   
    100. A(C  21,C  20,H  37)          120.7436         0.000000   
    101. A(C  20,C  21,C  22)          118.6022         0.000000   
    102. A(C  22,C  21,C  24)          118.4406         0.000000   
    103. A(C  20,C  21,C  24)          122.9542         0.000000   
    104. A(C  21,C  22,C  23)          121.2875         0.000000   
    105. A(C  21,C  22,H  38)          119.5243         0.000000   
    106. A(C  23,C  22,H  38)          119.1869         0.000000   
    107. A(C  22,C  23,H  39)          121.2159         0.000000   
    108. A(C  18,C  23,H  39)          120.3584         0.000000   
    109. A(C  18,C  23,C  22)          118.4255         0.000000   
    110. A(C  25,C  24,N  34)          114.1980         0.000000   
    111. A(C  21,C  24,N  34)          112.8036         0.000000   
    112. A(C  21,C  24,C  25)          120.8336         0.000000   
    113. A(C  24,C  25,C  26)          115.4390         0.000000   
    114. A(C   6,C  25,C  26)          116.1390         0.000000   
    115. A(C   6,C  25,C  24)          108.4714         0.000000   
    116. A(C  26,C  25,H  40)          106.3326         0.000000   
    117. A(C  24,C  25,H  40)          106.1923         0.000000   
    118. A(C   6,C  25,H  40)          103.0192         0.000000   
    119. A(C  27,C  26,C  31)          118.2308         0.000000   
    120. A(C  25,C  26,C  31)          122.3286         0.000000   
    121. A(C  25,C  26,C  27)          119.3854         0.000000   
    122. A(C  26,C  27,C  28)          121.6142         0.000000   
    123. A(C  28,C  27,H  41)          119.8656         0.000000   
    124. A(C  26,C  27,H  41)          118.5127         0.000000   
    125. A(C  27,C  28,C  29)          119.2376         0.000000   
    126. A(C  29,C  28,H  42)          120.6035         0.000000   
    127. A(C  27,C  28,H  42)          120.1583         0.000000   
    128. A(C  28,C  29,C  30)          120.4635         0.000000   
    129. A(C  30,C  29,H  43)          119.1993         0.000000   
    130. A(C  28,C  29,H  43)          120.3371         0.000000   
    131. A(C  29,C  30,C  31)          119.6206         0.000000   
    132. A(C  31,C  30,H  44)          120.5170         0.000000   
    133. A(C  29,C  30,H  44)          119.8623         0.000000   
    134. A(C  30,C  31,O  32)          123.8429         0.000000   
    135. A(C  26,C  31,O  32)          115.3341         0.000000   
    136. A(C  26,C  31,C  30)          120.8222         0.000000   
    137. A(C  31,O  32,C  33)          118.9558         0.000000   
    138. A(H  46,C  33,H  47)          109.5599         0.000000   
    139. A(H  45,C  33,H  47)          109.5844         0.000000   
    140. A(O  32,C  33,H  47)          105.9783         0.000000   
    141. A(H  45,C  33,H  46)          109.7504         0.000000   
    142. A(O  32,C  33,H  46)          110.8256         0.000000   
    143. A(O  32,C  33,H  45)          111.0668         0.000000   
    144. A(C  24,N  34,O  35)          119.0201         0.000000   
    145. A(O  35,N  34,O  48)          121.4307         0.000000   
    146. A(C  24,N  34,O  48)          119.2644         0.000000   
    147. A(O  51,N  50,O  52)          123.7165         0.000000   
    148. A(C  18,N  50,O  52)          118.1565         0.000000   
    149. A(C  18,N  50,O  51)          118.1269         0.000000   
    150. D(C   2,C   1,C   0,H  11)    179.7399         0.000000   
    151. D(H  53,C   1,C   0,H  11)     -1.2345         0.000000   
    152. D(H  53,C   1,C   0,C   5)   -178.6976         0.000000   
    153. D(C   2,C   1,C   0,C   5)      2.2768         0.000000   
    154. D(H  12,C   2,C   1,C   0)    177.2060         0.000000   
    155. D(N   3,C   2,C   1,C   0)     -2.8166         0.000000   
    156. D(N   3,C   2,C   1,H  53)    178.1396         0.000000   
    157. D(H  12,C   2,C   1,H  53)     -1.8377         0.000000   
    158. D(C   6,N   3,C   2,C   1)    168.9811         0.000000   
    159. D(C   4,N   3,C   2,C   1)      3.6458         0.000000   
    160. D(C   6,N   3,C   2,H  12)    -11.0398         0.000000   
    161. D(C   4,N   3,C   2,H  12)   -176.3751         0.000000   
    162. D(C   5,C   4,N   3,C   6)   -170.1520         0.000000   
    163. D(H  13,C   4,N   3,C   2)   -152.1235         0.000000   
    164. D(C   5,C   4,N   3,C   2)     -3.5926         0.000000   
    165. D(H  13,C   4,N   3,C   6)     41.3170         0.000000   
    166. D(C   0,C   5,C   4,H  13)    149.6655         0.000000   
    167. D(H  14,C   5,C   4,H  13)    -28.9937         0.000000   
    168. D(H  14,C   5,C   0,H  11)     -1.2486         0.000000   
    169. D(C   4,C   5,C   0,H  11)   -179.8757         0.000000   
    170. D(H  14,C   5,C   4,N   3)   -175.6933         0.000000   
    171. D(C   0,C   5,C   4,N   3)      2.9660         0.000000   
    172. D(C   4,C   5,C   0,C   1)     -2.4138         0.000000   
    173. D(H  14,C   5,C   0,C   1)    176.2133         0.000000   
    174. D(C  25,C   6,N   3,C   4)     44.4839         0.000000   
    175. D(H  15,C   6,N   3,C   2)     -6.4678         0.000000   
    176. D(H  15,C   6,N   3,C   4)    160.1407         0.000000   
    177. D(C  25,C   6,N   3,C   2)   -122.1246         0.000000   
    178. D(C   7,C   6,N   3,C   4)    -85.2050         0.000000   
    179. D(C   7,C   6,N   3,C   2)    108.1865         0.000000   
    180. D(O   8,C   7,C   6,N   3)      1.9641         0.000000   
    181. D(O   9,C   7,C   6,C  25)     63.2645         0.000000   
    182. D(O   9,C   7,C   6,H  15)    -56.5852         0.000000   
    183. D(O   9,C   7,C   6,N   3)   -173.2062         0.000000   
    184. D(O   8,C   7,C   6,C  25)   -121.5652         0.000000   
    185. D(O   8,C   7,C   6,H  15)    118.5852         0.000000   
    186. D(C  10,O   9,C   7,O   8)      5.6051         0.000000   
    187. D(C  10,O   9,C   7,C   6)   -179.2327         0.000000   
    188. D(H  17,C  10,O   9,C   7)    -62.5694         0.000000   
    189. D(H  49,C  10,O   9,C   7)    177.9336         0.000000   
    190. D(H  16,C  10,O   9,C   7)     58.7072         0.000000   
    191. D(H  36,C  19,C  18,C  23)    179.5122         0.000000   
    192. D(C  20,C  19,C  18,N  50)    179.1374         0.000000   
    193. D(C  20,C  19,C  18,C  23)     -0.8709         0.000000   
    194. D(H  36,C  19,C  18,N  50)     -0.4794         0.000000   
    195. D(H  37,C  20,C  19,H  36)      0.1105         0.000000   
    196. D(H  37,C  20,C  19,C  18)   -179.5033         0.000000   
    197. D(C  21,C  20,C  19,H  36)    179.5027         0.000000   
    198. D(C  21,C  20,C  19,C  18)     -0.1111         0.000000   
    199. D(C  24,C  21,C  20,H  37)      1.1954         0.000000   
    200. D(C  24,C  21,C  20,C  19)   -178.1814         0.000000   
    201. D(C  22,C  21,C  20,H  37)   -179.4520         0.000000   
    202. D(C  22,C  21,C  20,C  19)      1.1711         0.000000   
    203. D(H  38,C  22,C  21,C  24)     -1.5011         0.000000   
    204. D(H  38,C  22,C  21,C  20)    179.1167         0.000000   
    205. D(C  23,C  22,C  21,C  24)    178.0750         0.000000   
    206. D(C  23,C  22,C  21,C  20)     -1.3072         0.000000   
    207. D(C  18,C  23,C  22,C  21)      0.3717         0.000000   
    208. D(H  39,C  23,C  18,N  50)      0.5859         0.000000   
    209. D(H  39,C  23,C  18,C  19)   -179.4057         0.000000   
    210. D(C  22,C  23,C  18,N  50)   -179.2680         0.000000   
    211. D(C  18,C  23,C  22,H  38)    179.9492         0.000000   
    212. D(C  22,C  23,C  18,C  19)      0.7404         0.000000   
    213. D(H  39,C  23,C  22,H  38)      0.0966         0.000000   
    214. D(H  39,C  23,C  22,C  21)   -179.4809         0.000000   
    215. D(N  34,C  24,C  21,C  22)     78.4624         0.000000   
    216. D(N  34,C  24,C  21,C  20)   -102.1840         0.000000   
    217. D(C  25,C  24,C  21,C  22)    -61.7838         0.000000   
    218. D(C  25,C  24,C  21,C  20)    117.5697         0.000000   
    219. D(H  40,C  25,C  24,N  34)    -21.4091         0.000000   
    220. D(H  40,C  25,C  24,C  21)    118.3282         0.000000   
    221. D(C  26,C  25,C  24,N  34)   -138.9507         0.000000   
    222. D(C  26,C  25,C  24,C  21)      0.7866         0.000000   
    223. D(C   6,C  25,C  24,N  34)     88.7315         0.000000   
    224. D(C   6,C  25,C  24,C  21)   -131.5312         0.000000   
    225. D(H  40,C  25,C   6,H  15)    -16.1330         0.000000   
    226. D(H  40,C  25,C   6,C   7)   -134.8790         0.000000   
    227. D(H  40,C  25,C   6,N   3)    100.1898         0.000000   
    228. D(C  26,C  25,C   6,H  15)     99.6513         0.000000   
    229. D(C  26,C  25,C   6,C   7)    -19.0948         0.000000   
    230. D(C  26,C  25,C   6,N   3)   -144.0259         0.000000   
    231. D(C  24,C  25,C   6,H  15)   -128.4049         0.000000   
    232. D(C  24,C  25,C   6,C   7)    112.8490         0.000000   
    233. D(C  24,C  25,C   6,N   3)    -12.0821         0.000000   
    234. D(C  31,C  26,C  25,H  40)   -179.5604         0.000000   
    235. D(C  31,C  26,C  25,C  24)    -62.0974         0.000000   
    236. D(C  31,C  26,C  25,C   6)     66.5296         0.000000   
    237. D(C  27,C  26,C  25,H  40)     -2.3102         0.000000   
    238. D(C  27,C  26,C  25,C  24)    115.1528         0.000000   
    239. D(C  27,C  26,C  25,C   6)   -116.2202         0.000000   
    240. D(H  41,C  27,C  26,C  31)    179.9543         0.000000   
    241. D(H  41,C  27,C  26,C  25)      2.5915         0.000000   
    242. D(C  28,C  27,C  26,C  31)      0.9543         0.000000   
    243. D(C  28,C  27,C  26,C  25)   -176.4085         0.000000   
    244. D(H  42,C  28,C  27,H  41)      0.6143         0.000000   
    245. D(H  42,C  28,C  27,C  26)    179.6011         0.000000   
    246. D(C  29,C  28,C  27,H  41)   -179.0859         0.000000   
    247. D(C  29,C  28,C  27,C  26)     -0.0991         0.000000   
    248. D(H  43,C  29,C  28,H  42)     -0.0775         0.000000   
    249. D(H  43,C  29,C  28,C  27)    179.6213         0.000000   
    250. D(C  30,C  29,C  28,H  42)    179.7883         0.000000   
    251. D(C  30,C  29,C  28,C  27)     -0.5129         0.000000   
    252. D(H  44,C  30,C  29,H  43)      0.2088         0.000000   
    253. D(H  44,C  30,C  29,C  28)   -179.6585         0.000000   
    254. D(C  31,C  30,C  29,H  43)   -179.8918         0.000000   
    255. D(C  31,C  30,C  29,C  28)      0.2410         0.000000   
    256. D(O  32,C  31,C  30,H  44)      0.8837         0.000000   
    257. D(O  32,C  31,C  30,C  29)   -179.0150         0.000000   
    258. D(C  26,C  31,C  30,H  44)   -179.4566         0.000000   
    259. D(C  26,C  31,C  30,C  29)      0.6447         0.000000   
    260. D(O  32,C  31,C  26,C  27)    178.4617         0.000000   
    261. D(O  32,C  31,C  26,C  25)     -4.2577         0.000000   
    262. D(C  30,C  31,C  26,C  27)     -1.2255         0.000000   
    263. D(C  30,C  31,C  26,C  25)    176.0550         0.000000   
    264. D(C  33,O  32,C  31,C  30)     -3.0075         0.000000   
    265. D(C  33,O  32,C  31,C  26)    177.3158         0.000000   
    266. D(H  47,C  33,O  32,C  31)   -178.9901         0.000000   
    267. D(H  46,C  33,O  32,C  31)    -60.2064         0.000000   
    268. D(H  45,C  33,O  32,C  31)     62.0672         0.000000   
    269. D(O  48,N  34,C  24,C  25)    -18.4251         0.000000   
    270. D(O  48,N  34,C  24,C  21)   -161.4120         0.000000   
    271. D(O  35,N  34,C  24,C  25)    167.6151         0.000000   
    272. D(O  35,N  34,C  24,C  21)     24.6282         0.000000   
    273. D(O  52,N  50,C  18,C  23)   -178.2026         0.000000   
    274. D(O  52,N  50,C  18,C  19)      1.7893         0.000000   
    275. D(O  51,N  50,C  18,C  23)      1.8810         0.000000   
    276. D(O  51,N  50,C  18,C  19)   -178.1272         0.000000   
    -----------------------------------------------------------------

Number of atoms                         .... 54
Number of degrees of freedom            .... 276

         *************************************************************
         *                GEOMETRY OPTIMIZATION CYCLE   1            *
         *************************************************************
---------------------------------
CARTESIAN COORDINATES (ANGSTROEM)
---------------------------------
  C     -3.040198   -3.428571    0.970374
  C     -4.133135   -2.771720    0.359755
  C     -3.981249   -1.471936   -0.001521
  N     -2.836995   -0.801720    0.265571
  C     -1.741330   -1.398831    0.843813
  C     -1.881657   -2.758442    1.231201
  C     -2.549171    0.487168   -0.296995
  C     -2.652181    1.559539    0.776967
  O     -2.901347    1.346527    1.935368
  O     -2.532324    2.761355    0.239873
  C     -2.593832    3.867669    1.145077
  H     -3.139143   -4.465216    1.271390
  H     -4.745478   -0.901462   -0.513086
  H     -1.113656   -0.730155    1.419487
  H     -1.064046   -3.237896    1.752494
  H     -3.328973    0.729036   -1.020729
  H     -1.806980    3.780830    1.894753
  H     -3.567313    3.902416    1.633918
  C      3.605719   -1.057997    0.291723
  C      2.684285   -1.474238    1.237259
  C      1.341457   -1.462320    0.907072
  C      0.914790   -1.039273   -0.348887
  C      1.875524   -0.647592   -1.284866
  C      3.221235   -0.649238   -0.974907
  C     -0.525219   -0.971597   -0.737181
  C     -1.172664    0.355559   -1.102722
  C     -0.262270    1.552335   -1.059255
  C      0.021604    2.234007   -2.232466
  C      0.913129    3.299134   -2.258349
  C      1.532301    3.691514   -1.083675
  C      1.258230    3.035555    0.110363
  C      0.360916    1.976953    0.121129
  O      0.018260    1.293460    1.233126
  C      0.644891    1.620458    2.458177
  N     -0.918908   -2.040564   -1.541860
  O     -0.284668   -3.104893   -1.481268
  H      3.014676   -1.795245    2.215310
  H      0.628774   -1.781158    1.654141
  H      1.561228   -0.329658   -2.270946
  H      3.962961   -0.338064   -1.697257
  H     -1.501814    0.258424   -2.136641
  H     -0.458075    1.908436   -3.149740
  H      1.122526    3.811087   -3.189812
  H      2.235715    4.516448   -1.084559
  H      1.743343    3.353773    1.023405
  H      0.426709    2.651572    2.748189
  H      1.726675    1.476262    2.392092
  H      0.230969    0.938207    3.197803
  O     -1.956324   -1.943688   -2.213169
  H     -2.441126    4.753864    0.535054
  N      5.020216   -1.049762    0.638577
  O      5.811699   -0.648409   -0.192270
  O      5.342358   -1.443038    1.742733
  H     -5.065776   -3.280768    0.164346

----------------------------
CARTESIAN COORDINATES (A.U.)
----------------------------
  NO LB      ZA    FRAG     MASS         X           Y           Z
   0 C     6.0000    0    12.011   -5.745142   -6.479060    1.833741
   1 C     6.0000    0    12.011   -7.810493   -5.237792    0.679838
   2 C     6.0000    0    12.011   -7.523470   -2.781556   -0.002874
   3 N     7.0000    0    14.007   -5.361144   -1.515031    0.501856
   4 C     6.0000    0    12.011   -3.290637   -2.643407    1.594575
   5 C     6.0000    0    12.011   -3.555816   -5.212700    2.326633
   6 C     6.0000    0    12.011   -4.817235    0.920614   -0.561239
   7 C     6.0000    0    12.011   -5.011896    2.947102    1.468255
   8 O     8.0000    0    15.999   -5.482751    2.544567    3.657315
   9 O     8.0000    0    15.999   -4.785399    5.218205    0.453294
  10 C     6.0000    0    12.011   -4.901632    7.308835    2.163882
  11 H     1.0000    0     1.008   -5.932121   -8.438035    2.402579
  12 H     1.0000    0     1.008   -8.967654   -1.703516   -0.969592
  13 H     1.0000    0     1.008   -2.104505   -1.379793    2.682442
  14 H     1.0000    0     1.008   -2.010756   -6.118737    3.311734
  15 H     1.0000    0     1.008   -6.290847    1.377678   -1.928898
  16 H     1.0000    0     1.008   -3.414697    7.144733    3.580564
  17 H     1.0000    0     1.008   -6.741245    7.374498    3.087658
  18 C     6.0000    0    12.011    6.813821   -1.999324    0.551276
  19 C     6.0000    0    12.011    5.072563   -2.785906    2.338080
  20 C     6.0000    0    12.011    2.534987   -2.763384    1.714117
  21 C     6.0000    0    12.011    1.728703   -1.963940   -0.659301
  22 C     6.0000    0    12.011    3.544227   -1.223771   -2.428044
  23 C     6.0000    0    12.011    6.087251   -1.226882   -1.842308
  24 C     6.0000    0    12.011   -0.992521   -1.836053   -1.393070
  25 C     6.0000    0    12.011   -2.216014    0.671909   -2.083843
  26 C     6.0000    0    12.011   -0.495618    2.933488   -2.001702
  27 C     6.0000    0    12.011    0.040826    4.221661   -4.218749
  28 C     6.0000    0    12.011    1.725564    6.234460   -4.267661
  29 C     6.0000    0    12.011    2.895629    6.975950   -2.047849
  30 C     6.0000    0    12.011    2.377710    5.736368    0.208556
  31 C     6.0000    0    12.011    0.682032    3.735900    0.228901
  32 O     8.0000    0    15.999    0.034506    2.444285    2.330270
  33 C     6.0000    0    12.011    1.218667    3.062222    4.645281
  34 N     7.0000    0    14.007   -1.736485   -3.856107   -2.913694
  35 O     8.0000    0    15.999   -0.537945   -5.867397   -2.799191
  36 H     1.0000    0     1.008    5.696911   -3.392521    4.186329
  37 H     1.0000    0     1.008    1.188211   -3.365902    3.125874
  38 H     1.0000    0     1.008    2.950293   -0.622963   -4.291467
  39 H     1.0000    0     1.008    7.488910   -0.638849   -3.207350
  40 H     1.0000    0     1.008   -2.838017    0.488351   -4.037666
  41 H     1.0000    0     1.008   -0.865636    3.606421   -5.952146
  42 H     1.0000    0     1.008    2.121267    7.201911   -6.027871
  43 H     1.0000    0     1.008    4.224889    8.534850   -2.049519
  44 H     1.0000    0     1.008    3.294441    6.337712    1.933955
  45 H     1.0000    0     1.008    0.806363    5.010745    5.193325
  46 H     1.0000    0     1.008    3.262943    2.789731    4.520399
  47 H     1.0000    0     1.008    0.436468    1.772954    6.042972
  48 O     8.0000    0    15.999   -3.696917   -3.673037   -4.182283
  49 H     1.0000    0     1.008   -4.613060    8.983501    1.011106
  50 N     7.0000    0    14.007    9.486834   -1.983763    1.206736
  51 O     8.0000    0    15.999   10.982520   -1.225315   -0.363338
  52 O     8.0000    0    15.999   10.095593   -2.726946    3.293288
  53 H     1.0000    0     1.008   -9.572929   -6.199753    0.310569

--------------------------------
INTERNAL COORDINATES (ANGSTROEM)
--------------------------------
 C      0   0   0     0.000000000000     0.00000000     0.00000000
 C      1   0   0     1.413796337996     0.00000000     0.00000000
 C      2   1   0     1.357581729336   118.24665465     0.00000000
 N      3   2   1     1.352717575710   121.09503457   357.18336328
 C      4   3   2     1.375277117206   122.80719677     3.64580153
 C      1   2   3     1.363569158221   120.73713218     2.27681061
 C      4   3   2     1.435463491656   122.48616017   168.98111090
 C      7   4   3     1.521178818938   110.04213649   108.18648951
 O      8   7   4     1.203889814103   124.65349977     1.96414285
 O      8   7   4     1.321815933911   110.36192264   186.79381545
 C     10   8   7     1.430771883382   116.23548063   180.76727142
 H      1   2   3     1.083989668450   119.58283538   179.73992902
 H      3   2   1     1.082213148295   123.46874699   177.20602880
 H      5   4   3     1.082821683163   114.65961727   207.87645941
 H      6   1   2     1.081716357132   121.10104411   176.21332964
 H      7   4   3     1.091046374534   108.40336005   353.53216284
 H     11  10   8     1.090271152879   110.02398454    58.70724770
 H     11  10   8     1.089879871661   110.29286716   297.43062448
 C     14   5   4     4.863314739541   113.42801374   229.73228877
 C     19  14   5     1.384317858902    38.36771312   259.54569745
 C     20  19  14     1.382877708443   118.72901113    20.25294727
 C     21  20  19     1.392281247978   121.03655972   359.88892176
 C     22  21  20     1.397311609277   118.60217686     1.17114094
 C     23  22  21     1.380946819633   121.28749397   358.69280092
 C     22  21  20     1.492976406715   122.95418518   181.81858214
 C     25  22  21     1.521232804553   120.83364828   117.56972996
 C     26  25  22     1.504320248318   115.43897280     0.78659038
 C     27  26  25     1.386248611895   119.38542952   115.15283303
 C     28  27  26     1.389238021882   121.61421223   183.59146434
 C     29  28  27     1.384628122010   119.23759726   359.90092458
 C     30  29  28     1.389648829081   120.46353891   359.48707976
 C     31  30  29     1.387777545486   119.62063326     0.24096681
 O     32  31  30     1.349486251651   123.84293143   180.98497033
 C     33  32  31     1.414335198871   118.95584012   356.99247616
 N     25  22  21     1.394700438979   112.80355589   257.81598383
 O     35  25  22     1.240454390168   119.02008630    24.62819271
 H     20  19  14     1.081104628783   120.25093579   200.63612339
 H     21  20  19     1.080596125040   118.21698508   180.49673676
 H     23  22  21     1.082690864109   119.52426530   179.11669576
 H     24  23  22     1.081098904585   121.21592312   180.51911382
 H     26  25  22     1.089386721640   106.19229189   118.32823579
 H     28  27  26     1.085117509838   118.51267222     2.59154801
 H     29  28  27     1.083312650248   120.15825712   179.60111030
 H     30  29  28     1.084116295057   120.33705722   179.62133686
 H     31  30  29     1.081777709170   119.86225315   180.34154579
 H     34  33  32     1.093117754985   111.06681369    62.06716710
 H     34  33  32     1.093350966660   110.82557471   299.79361362
 H     34  33  32     1.088046170418   105.97833586   181.00992687
 O     35  25  22     1.239464375922   119.26440984   198.58804409
 H     11  10   8     1.086641045143   105.62765968   177.93361630
 N     19  14   5     1.456426983941   152.48110132   216.57396229
 O     51  19  14     1.215663217811   118.12693702   210.81712166
 O     51  19  14     1.215565630248   118.15650997    30.73354374
 H      2   1   3     1.080339658842   121.77386262   179.02559175

---------------------------
INTERNAL COORDINATES (A.U.)
---------------------------
 C      0   0   0     0.000000000000     0.00000000     0.00000000
 C      1   0   0     2.671687887953     0.00000000     0.00000000
 C      2   1   0     2.565457672861   118.24665465     0.00000000
 N      3   2   1     2.556265754635   121.09503457   357.18336328
 C      4   3   2     2.598897109768   122.80719677     3.64580153
 C      1   2   3     2.576772273699   120.73713218     2.27681061
 C      4   3   2     2.712632874471   122.48616017   168.98111090
 C      7   4   3     2.874611368514   110.04213649   108.18648951
 O      8   7   4     2.275022044072   124.65349977     1.96414285
 O      8   7   4     2.497870114545   110.36192264   186.79381545
 C     10   8   7     2.703767019706   116.23548063   180.76727142
 H      1   2   3     2.048443605370   119.58283538   179.73992902
 H      3   2   1     2.045086468806   123.46874699   177.20602880
 H      5   4   3     2.046236433050   114.65961727   207.87645941
 H      6   1   2     2.044147669562   121.10104411   176.21332964
 H      7   4   3     2.061778847277   108.40336005   353.53216284
 H     11  10   8     2.060313890657   110.02398454    58.70724770
 H     11  10   8     2.059574476312   110.29286716   297.43062448
 C     14   5   4     9.190332960794   113.42801374   229.73228877
 C     19  14   5     2.615981635621    38.36771312   259.54569745
 C     20  19  14     2.613260145662   118.72901113    20.25294727
 C     21  20  19     2.631030260072   121.03655972   359.88892176
 C     22  21  20     2.640536265283   118.60217686     1.17114094
 C     23  22  21     2.609611294617   121.28749397   358.69280092
 C     22  21  20     2.821316533097   122.95418518   181.81858214
 C     25  22  21     2.874713386543   120.83364828   117.56972996
 C     26  25  22     2.842753287034   115.43897280     0.78659038
 C     27  26  25     2.619630230010   119.38542952   115.15283303
 C     28  27  26     2.625279396188   121.61421223   183.59146434
 C     29  28  27     2.616567947924   119.23759726   359.90092458
 C     30  29  28     2.626055709287   120.46353891   359.48707976
 C     31  30  29     2.622519495775   119.62063326     0.24096681
 O     32  31  30     2.550159437112   123.84293143   180.98497033
 C     33  32  31     2.672706187432   118.95584012   356.99247616
 N     25  22  21     2.635601868530   112.80355589   257.81598383
 O     35  25  22     2.344119079039   119.02008630    24.62819271
 H     20  19  14     2.042991670515   120.25093579   200.63612339
 H     21  20  19     2.042030737702   118.21698508   180.49673676
 H     23  22  21     2.045989220865   119.52426530   179.11669576
 H     24  23  22     2.042980853347   121.21592312   180.51911382
 H     26  25  22     2.058642557830   106.19229189   118.32823579
 H     28  27  26     2.050574916717   118.51267222     2.59154801
 H     29  28  27     2.047164226381   120.15825712   179.60111030
 H     30  29  28     2.048682894979   120.33705722   179.62133686
 H     31  30  29     2.044263608112   119.86225315   180.34154579
 H     34  33  32     2.065693189049   111.06681369    62.06716710
 H     34  33  32     2.066133895246   110.82557471   299.79361362
 H     34  33  32     2.056109283152   105.97833586   181.00992687
 O     35  25  22     2.342248223243   119.26440984   198.58804409
 H     11  10   8     2.053453981199   105.62765968   177.93361630
 N     19  14   5     2.752248133702   152.48110132   216.57396229
 O     51  19  14     2.297270552745   118.12693702   210.81712166
 O     51  19  14     2.297086138976   118.15650997    30.73354374
 H      2   1   3     2.041546086825   121.77386262   179.02559175

---------------------
BASIS SET INFORMATION
---------------------
There are 4 groups of distinct atoms

 Group   1 Type C   : 11s6p2d1f contracted to 5s3p2d1f pattern {62111/411/11/1}
 Group   2 Type N   : 11s6p2d1f contracted to 5s3p2d1f pattern {62111/411/11/1}
 Group   3 Type O   : 11s6p2d1f contracted to 5s3p2d1f pattern {62111/411/11/1}
 Group   4 Type H   : 5s1p contracted to 3s1p pattern {311/1}

Atom   0C    basis set group =>   1
Atom   1C    basis set group =>   1
Atom   2C    basis set group =>   1
Atom   3N    basis set group =>   2
Atom   4C    basis set group =>   1
Atom   5C    basis set group =>   1
Atom   6C    basis set group =>   1
Atom   7C    basis set group =>   1
Atom   8O    basis set group =>   3
Atom   9O    basis set group =>   3
Atom  10C    basis set group =>   1
Atom  11H    basis set group =>   4
Atom  12H    basis set group =>   4
Atom  13H    basis set group =>   4
Atom  14H    basis set group =>   4
Atom  15H    basis set group =>   4
Atom  16H    basis set group =>   4
Atom  17H    basis set group =>   4
Atom  18C    basis set group =>   1
Atom  19C    basis set group =>   1
Atom  20C    basis set group =>   1
Atom  21C    basis set group =>   1
Atom  22C    basis set group =>   1
Atom  23C    basis set group =>   1
Atom  24C    basis set group =>   1
Atom  25C    basis set group =>   1
Atom  26C    basis set group =>   1
Atom  27C    basis set group =>   1
Atom  28C    basis set group =>   1
Atom  29C    basis set group =>   1
Atom  30C    basis set group =>   1
Atom  31C    basis set group =>   1
Atom  32O    basis set group =>   3
Atom  33C    basis set group =>   1
Atom  34N    basis set group =>   2
Atom  35O    basis set group =>   3
Atom  36H    basis set group =>   4
Atom  37H    basis set group =>   4
Atom  38H    basis set group =>   4
Atom  39H    basis set group =>   4
Atom  40H    basis set group =>   4
Atom  41H    basis set group =>   4
Atom  42H    basis set group =>   4
Atom  43H    basis set group =>   4
Atom  44H    basis set group =>   4
Atom  45H    basis set group =>   4
Atom  46H    basis set group =>   4
Atom  47H    basis set group =>   4
Atom  48O    basis set group =>   3
Atom  49H    basis set group =>   4
Atom  50N    basis set group =>   2
Atom  51O    basis set group =>   3
Atom  52O    basis set group =>   3
Atom  53H    basis set group =>   4
---------------------------------
AUXILIARY/J BASIS SET INFORMATION
---------------------------------
There are 4 groups of distinct atoms

 Group   1 Type C   : 12s5p4d2f1g contracted to 6s4p3d1f1g pattern {711111/2111/211/2/1}
 Group   2 Type N   : 12s5p4d2f1g contracted to 6s4p3d1f1g pattern {711111/2111/211/2/1}
 Group   3 Type O   : 12s5p4d2f1g contracted to 6s4p3d1f1g pattern {711111/2111/211/2/1}
 Group   4 Type H   : 5s2p1d contracted to 3s1p1d pattern {311/2/1}

Atom   0C    basis set group =>   1
Atom   1C    basis set group =>   1
Atom   2C    basis set group =>   1
Atom   3N    basis set group =>   2
Atom   4C    basis set group =>   1
Atom   5C    basis set group =>   1
Atom   6C    basis set group =>   1
Atom   7C    basis set group =>   1
Atom   8O    basis set group =>   3
Atom   9O    basis set group =>   3
Atom  10C    basis set group =>   1
Atom  11H    basis set group =>   4
Atom  12H    basis set group =>   4
Atom  13H    basis set group =>   4
Atom  14H    basis set group =>   4
Atom  15H    basis set group =>   4
Atom  16H    basis set group =>   4
Atom  17H    basis set group =>   4
Atom  18C    basis set group =>   1
Atom  19C    basis set group =>   1
Atom  20C    basis set group =>   1
Atom  21C    basis set group =>   1
Atom  22C    basis set group =>   1
Atom  23C    basis set group =>   1
Atom  24C    basis set group =>   1
Atom  25C    basis set group =>   1
Atom  26C    basis set group =>   1
Atom  27C    basis set group =>   1
Atom  28C    basis set group =>   1
Atom  29C    basis set group =>   1
Atom  30C    basis set group =>   1
Atom  31C    basis set group =>   1
Atom  32O    basis set group =>   3
Atom  33C    basis set group =>   1
Atom  34N    basis set group =>   2
Atom  35O    basis set group =>   3
Atom  36H    basis set group =>   4
Atom  37H    basis set group =>   4
Atom  38H    basis set group =>   4
Atom  39H    basis set group =>   4
Atom  40H    basis set group =>   4
Atom  41H    basis set group =>   4
Atom  42H    basis set group =>   4
Atom  43H    basis set group =>   4
Atom  44H    basis set group =>   4
Atom  45H    basis set group =>   4
Atom  46H    basis set group =>   4
Atom  47H    basis set group =>   4
Atom  48O    basis set group =>   3
Atom  49H    basis set group =>   4
Atom  50N    basis set group =>   2
Atom  51O    basis set group =>   3
Atom  52O    basis set group =>   3
Atom  53H    basis set group =>   4


           ************************************************************
           *        Program running with 28 parallel MPI-processes    *
           *              working on a common directory               *
           ************************************************************
------------------------------------------------------------------------------
                           ORCA GTO INTEGRAL CALCULATION
                           -- RI-GTO INTEGRALS CHOSEN --
------------------------------------------------------------------------------
------------------------------------------------------------------------------
                   ___                                                        
                  /   \      - P O W E R E D   B Y -                         
                 /     \                                                     
                 |  |  |   _    _      __       _____    __    __             
                 |  |  |  | |  | |    /  \     |  _  \  |  |  /  |          
                  \  \/   | |  | |   /    \    | | | |  |  | /  /          
                 / \  \   | |__| |  /  /\  \   | |_| |  |  |/  /          
                |  |  |   |  __  | /  /__\  \  |    /   |      \           
                |  |  |   | |  | | |   __   |  |    \   |  |\   \          
                \     /   | |  | | |  |  |  |  | |\  \  |  | \   \       
                 \___/    |_|  |_| |__|  |__|  |_| \__\ |__|  \__/        
                                                                              
                      - O R C A' S   B I G   F R I E N D -                    
                                      &                                       
                       - I N T E G R A L  F E E D E R -                       
                                                                              
 v1 FN, 2020, v2 2021                                                         
------------------------------------------------------------------------------


Reading SHARK input file TS1_4-NO2Ph.SHARKINP.tmp ... ok
----------------------
SHARK INTEGRAL PACKAGE
----------------------

Number of atoms                             ...     54
Number of basis functions                   ...   1149
Number of shells                            ...    447
Maximum angular momentum                    ...      3
Integral batch strategy                     ... SHARK/LIBINT Hybrid
RI-J (if used) integral strategy            ... SPLIT-RIJ (Revised 2003 algorithm where possible)
Printlevel                                  ...      1
Contraction scheme used                     ... SEGMENTED contraction
Coulomb Range Separation                    ... NOT USED
Exchange Range Separation                   ... NOT USED
Finite Nucleus Model                        ... NOT USED
Auxiliary Coulomb fitting basis             ... AVAILABLE
   # of basis functions in Aux-J            ...   1848
   # of shells in Aux-J                     ...    600
   Maximum angular momentum in Aux-J        ...      4
Auxiliary J/K fitting basis                 ... NOT available
Auxiliary Correlation fitting basis         ... NOT available
Auxiliary 'external' fitting basis          ... NOT available
Integral threshold                          ...     2.500000e-11
Primitive cut-off                           ...     2.500000e-12
Primitive pair pre-selection threshold      ...     2.500000e-12

Calculating pre-screening integrals         ... done (  0.2 sec) Dimension = 447
Organizing shell pair data                  ... done (  1.1 sec)
Shell pair information
Total number of shell pairs                 ...    100128
Shell pairs after pre-screening             ...     68463
Total number of primitive shell pairs       ...    310080
Primitive shell pairs kept                  ...    135487
          la=0 lb=0:  17157 shell pairs
          la=1 lb=0:  19730 shell pairs
          la=1 lb=1:   5655 shell pairs
          la=2 lb=0:   9793 shell pairs
          la=2 lb=1:   5738 shell pairs
          la=2 lb=2:   1464 shell pairs
          la=3 lb=0:   4527 shell pairs
          la=3 lb=1:   2732 shell pairs
          la=3 lb=2:   1331 shell pairs
          la=3 lb=3:    336 shell pairs

Calculating one electron integrals          ... done (  0.2 sec)
Calculating RI/J V-Matrix + Cholesky decomp.... done (  0.4 sec)
Calculating Nuclear repulsion               ... done (  0.0 sec) ENN=   3704.582628328542 Eh

SHARK setup successfully completed in   3.0 seconds

Maximum memory used throughout the entire GTOINT-calculation: 102.3 MB


           ************************************************************
           *        Program running with 28 parallel MPI-processes    *
           *              working on a common directory               *
           ************************************************************
-------------------------------------------------------------------------------
                                 ORCA SCF
-------------------------------------------------------------------------------

------------
SCF SETTINGS
------------
Hamiltonian:
 Density Functional     Method          .... DFT(GTOs)
 Exchange Functional    Exchange        .... PBE
   PBE kappa parameter   XKappa         ....  0.804000
   PBE mue parameter    XMuePBE         ....  0.219520
 Correlation Functional Correlation     .... PBE
   PBE beta parameter  CBetaPBE         ....  0.066725
 LDA part of GGA corr.  LDAOpt          .... PW91-LDA
 Gradients option       PostSCFGGA      .... off
 Hybrid DFT is turned on
   Fraction HF Exchange ScalHFX         ....  0.250000
   Scaling of DF-GGA-X  ScalDFX         ....  0.750000
   Scaling of DF-GGA-C  ScalDFC         ....  1.000000
   Scaling of DF-LDA-C  ScalLDAC        ....  1.000000
   Perturbative correction              ....  0.000000
   Density functional embedding theory  .... OFF
   NL short-range parameter             ....  6.900000
 RI-approximation to the Coulomb term is turned on
   Number of AuxJ basis functions       .... 1848
   RIJ-COSX (HFX calculated with COS-X)).... on


General Settings:
 Integral files         IntName         .... TS1_4-NO2Ph
 Hartree-Fock type      HFTyp           .... RHF
 Total Charge           Charge          ....    0
 Multiplicity           Mult            ....    1
 Number of Electrons    NEL             ....  236
 Basis Dimension        Dim             .... 1149
 Nuclear Repulsion      ENuc            ....   3704.5826283285 Eh

Convergence Acceleration:
 DIIS                   CNVDIIS         .... on
   Start iteration      DIISMaxIt       ....    12
   Startup error        DIISStart       ....  0.200000
   # of expansion vecs  DIISMaxEq       ....     5
   Bias factor          DIISBfac        ....   1.050
   Max. coefficient     DIISMaxC        ....  10.000
 Trust-Rad. Augm. Hess. CNVTRAH         .... auto
   Auto Start mean grad. ratio tolernc. ....  1.125000
   Auto Start start iteration           ....    20
   Auto Start num. interpolation iter.  ....    10
   Max. Number of Micro iterations      ....    16
   Max. Number of Macro iterations      .... Maxiter - #DIIS iter
   Number of Davidson start vectors     ....     2
   Converg. threshold I  (grad. norm)   ....   1.000e-05
   Converg. threshold II (energy diff.) ....   1.000e-08
   Grad. Scal. Fac. for Micro threshold ....   0.100
   Minimum threshold for Micro iter.    ....   0.010
   NR start threshold (gradient norm)   ....   0.001
   Initial trust radius                 ....   0.400
   Minimum AH scaling param. (alpha)    ....   1.000
   Maximum AH scaling param. (alpha)    .... 1000.000
   Orbital update algorithm             .... Taylor
   White noise on init. David. guess    .... on
   Maximum white noise                  ....   0.010
   Quad. conv. algorithm                .... NR
 SOSCF                  CNVSOSCF        .... on
   Start iteration      SOSCFMaxIt      ....   150
   Startup grad/error   SOSCFStart      ....  0.003300
 Level Shifting         CNVShift        .... on
   Level shift para.    LevelShift      ....    0.2500
   Turn off err/grad.   ShiftErr        ....    0.0010
 Zerner damping         CNVZerner       .... off
 Static damping         CNVDamp         .... on
   Fraction old density DampFac         ....    0.7000
   Max. Damping (<1)    DampMax         ....    0.9800
   Min. Damping (>=0)   DampMin         ....    0.0000
   Turn off err/grad.   DampErr         ....    0.1000
 Fernandez-Rico         CNVRico         .... off

SCF Procedure:
 Maximum # iterations   MaxIter         ....   800
 SCF integral mode      SCFMode         .... Direct
   Integral package                     .... SHARK and LIBINT hybrid scheme
 Reset frequency        DirectResetFreq ....    20
 Integral Threshold     Thresh          ....  2.500e-11 Eh
 Primitive CutOff       TCut            ....  2.500e-12 Eh

Convergence Tolerance:
 Convergence Check Mode ConvCheckMode   .... Total+1el-Energy
 Convergence forced     ConvForced      .... 0
 Energy Change          TolE            ....  1.000e-08 Eh
 1-El. energy change                    ....  1.000e-05 Eh
 Orbital Gradient       TolG            ....  1.000e-05
 Orbital Rotation angle TolX            ....  1.000e-05
 DIIS Error             TolErr          ....  5.000e-07


Diagonalization of the overlap matrix:
Smallest eigenvalue                        ... 4.629e-06
Time for diagonalization                   ...    0.478 sec
Threshold for overlap eigenvalues          ... 1.000e-08
Number of eigenvalues below threshold      ... 0
Time for construction of square roots      ...    0.253 sec
Total time needed                          ...    0.741 sec

Time for model grid setup =    0.711 sec

------------------------------
INITIAL GUESS: MODEL POTENTIAL
------------------------------
Loading Hartree-Fock densities                     ... done
Calculating cut-offs                               ... done
Initializing the effective Hamiltonian             ... done
Setting up the integral package (SHARK)            ... done
Starting the Coulomb interaction                   ... done (   1.1 sec)
Reading the grid                                   ... done
Mapping shells                                     ... done
Starting the XC term evaluation                    ... done (   0.5 sec)
  promolecular density results
     # of electrons  =    235.978222562
     EX              =   -200.687463854
     EC              =     -8.045929347
     EX+EC           =   -208.733393201
Transforming the Hamiltonian                       ... done (   0.1 sec)
Diagonalizing the Hamiltonian                      ... done (   0.3 sec)
Back transforming the eigenvectors                 ... done (   0.1 sec)
Now organizing SCF variables                       ... done
                      ------------------
                      INITIAL GUESS DONE (   3.2 sec)
                      ------------------
-------------------
DFT GRID GENERATION
-------------------

General Integration Accuracy     IntAcc      ... 4.388
Radial Grid Type                 RadialGrid  ... OptM3 with GC (2021)
Angular Grid (max. ang.)         AngularGrid ... 4 (Lebedev-302)
Angular grid pruning method      GridPruning ... 4 (adaptive)
Weight generation scheme         WeightScheme... Becke
Basis function cutoff            BFCut       ... 1.0000e-11
Integration weight cutoff        WCut        ... 1.0000e-14
Angular grids for H and He will be reduced by one unit
Partially contracted basis set               ... off
Rotationally invariant grid construction     ... off

Total number of grid points                  ...   262091
Total number of batches                      ...     4123
Average number of points per batch           ...       63
Average number of grid points per atom       ...     4854
Time for grid setup =    2.609 sec

--------------------
COSX GRID GENERATION
--------------------

GRIDX 1
-------
General Integration Accuracy     IntAcc      ... 3.816
Radial Grid Type                 RadialGrid  ... OptM3 with GC (2021)
Angular Grid (max. ang.)         AngularGrid ... 1 (Lebedev-50)
Angular grid pruning method      GridPruning ... 4 (adaptive)
Weight generation scheme         WeightScheme... Becke
Basis function cutoff            BFCut       ... 1.0000e-11
Integration weight cutoff        WCut        ... 1.0000e-14
Angular grids for H and He will be reduced by one unit
Partially contracted basis set               ... on
Rotationally invariant grid construction     ... off

Total number of grid points                  ...    33138
Total number of batches                      ...      542
Average number of points per batch           ...       61
Average number of grid points per atom       ...      614
UseSFitting                                  ... on

GRIDX 2
-------
General Integration Accuracy     IntAcc      ... 4.020
Radial Grid Type                 RadialGrid  ... OptM3 with GC (2021)
Angular Grid (max. ang.)         AngularGrid ... 2 (Lebedev-110)
Angular grid pruning method      GridPruning ... 4 (adaptive)
Weight generation scheme         WeightScheme... Becke
Basis function cutoff            BFCut       ... 1.0000e-11
Integration weight cutoff        WCut        ... 1.0000e-14
Angular grids for H and He will be reduced by one unit
Partially contracted basis set               ... on
Rotationally invariant grid construction     ... off

Total number of grid points                  ...    72076
Total number of batches                      ...     1153
Average number of points per batch           ...       62
Average number of grid points per atom       ...     1335
UseSFitting                                  ... on

GRIDX 3
-------
General Integration Accuracy     IntAcc      ... 4.338
Radial Grid Type                 RadialGrid  ... OptM3 with GC (2021)
Angular Grid (max. ang.)         AngularGrid ... 3 (Lebedev-194)
Angular grid pruning method      GridPruning ... 4 (adaptive)
Weight generation scheme         WeightScheme... Becke
Basis function cutoff            BFCut       ... 1.0000e-11
Integration weight cutoff        WCut        ... 1.0000e-14
Angular grids for H and He will be reduced by one unit
Partially contracted basis set               ... on
Rotationally invariant grid construction     ... off

Total number of grid points                  ...   157201
Total number of batches                      ...     2482
Average number of points per batch           ...       63
Average number of grid points per atom       ...     2911
UseSFitting                                  ... on

Time for X-Grid setup             =    5.294 sec


--------------------
CPCM SOLVATION MODEL
--------------------
CPCM parameters:
  Epsilon                                         ...      47.2000
  Refrac                                          ...       1.4790
  Rsolv                                           ...       1.3000
  Surface type                                    ... GAUSSIAN VDW
  Epsilon function type                           ...         CPCM
Radii:
 Radius for C  used is    3.8550 Bohr (=   2.0400 Ang.)
 Radius for N  used is    3.5149 Bohr (=   1.8600 Ang.)
 Radius for O  used is    3.4469 Bohr (=   1.8240 Ang.)
 Radius for H  used is    2.4944 Bohr (=   1.3200 Ang.)
Calculating surface                               ...        done! (  0.1s)
GEPOL surface points                              ...         2617
GEPOL Volume                                      ...    3301.9813
GEPOL Surface-area                                ...    1546.6814
Calculating surface distance matrix               ...        done! (  0.1s)
Performing Cholesky decomposition & store         ...        done! (  0.9s)
Overall time for CPCM initialization              ...                 1.4s
--------------
SCF ITERATIONS
--------------
ITER       Energy         Delta-E        Max-DP      RMS-DP      [F,P]     Damp
               ***  Starting incremental Fock matrix formation  ***
  0  -1577.7990621292   0.000000000000 0.15142730  0.00069870  0.2766073 0.7000
  1  -1578.1312575840  -0.332195454764 0.12342066  0.00059765  0.1131368 0.7000
                               ***Turning on DIIS***
  2  -1578.2605902567  -0.129332672733 0.14754974  0.00109535  0.0326456 0.0000
  3  -1578.4817361107  -0.221145853936 0.12008858  0.00046962  0.0530899 0.0000
  4  -1578.5179284444  -0.036192333758 0.04317923  0.00018751  0.0177715 0.0000
  5  -1578.5208278154  -0.002899370941 0.01442883  0.00006337  0.0044536 0.0000
                      *** Initiating the SOSCF procedure ***
                           *** Shutting down DIIS ***
                      *** Re-Reading the Fockian *** 
                      *** Removing any level shift *** 
ITER      Energy       Delta-E        Grad      Rot      Max-DP    RMS-DP
  6  -1578.52098930  -0.0001614859  0.000201  0.000201  0.003852  0.000020
               *** Restarting incremental Fock matrix formation ***
  7  -1578.52101170  -0.0000223946  0.000136  0.000573  0.003090  0.000027
  8  -1578.52101034   0.0000013525  0.000287  0.000337  0.000698  0.000006
  9  -1578.52101475  -0.0000044058  0.000060  0.000213  0.000915  0.000005
 10  -1578.52101451   0.0000002416  0.000095  0.000135  0.000449  0.000002
 11  -1578.52101494  -0.0000004291  0.000009  0.000027  0.000282  0.000002
 12  -1578.52101494   0.0000000005  0.000015  0.000030  0.000100  0.000001
                  ***Gradient check signals convergence***
              ***Rediagonalizing the Fockian in SOSCF/NRSCF***

               *****************************************************
               *                     SUCCESS                       *
               *           SCF CONVERGED AFTER  13 CYCLES          *
               *****************************************************

Old exchange energy                            =    -51.041053292 Eh
New exchange energy                            =    -51.041071278 Eh
Exchange energy change after final integration =     -0.000017986 Eh
Total energy after final integration           =  -1578.521032888 Eh
Final COS-X integration done in                =    43.490 sec

----------------
TOTAL SCF ENERGY
----------------

Total Energy       :        -1578.52103289 Eh          -42953.74103 eV

Components:
Nuclear Repulsion  :         3704.58262833 Eh          100806.81824 eV
Electronic Energy  :        -5283.10366122 Eh         -143760.55927 eV
One Electron Energy:        -9524.67356740 Eh         -259179.54420 eV
Two Electron Energy:         4241.56990618 Eh          115418.98493 eV
Max COSX asymmetry :            0.00000247 Eh               0.00007 eV
CPCM Dielectric    :           -0.04747553 Eh              -1.29187 eV

Virial components:
Potential Energy   :        -3150.28917810 Eh          -85723.72665 eV
Kinetic Energy     :         1571.76814521 Eh           42769.98562 eV
Virial Ratio       :            2.00429636


DFT components:
N(Alpha)           :      118.000199076342 electrons
N(Beta)            :      118.000199076342 electrons
N(Total)           :      236.000398152685 electrons
E(X)               :     -152.937515697723 Eh       
E(C)               :       -8.027310878665 Eh       
E(XC)              :     -160.964826576387 Eh       
DFET-embed. en.    :        0.000000000000 Eh       
CPCM Solvation Model Properties:
Surface-charge          :           -0.02969251
Charge-correction       :           -0.00003789 Eh              -0.00103 eV
Free-energy (cav+disp)  :  This term is not implemented in the current solvation scheme

---------------
SCF CONVERGENCE
---------------

  Last Energy change         ...    3.4288e-08  Tolerance :   1.0000e-08
  Last MAX-Density change    ...    1.7764e-15  Tolerance :   1.0000e-07
  Last RMS-Density change    ...    1.2246e-17  Tolerance :   5.0000e-09
  Last Orbital Gradient      ...    1.7998e-06  Tolerance :   1.0000e-05
  Last Orbital Rotation      ...    8.9361e-06  Tolerance :   1.0000e-05

             **** THE GBW FILE WAS UPDATED (TS1_4-NO2Ph.gbw) ****
             **** DENSITY TS1_4-NO2Ph.scfp WAS UPDATED ****
             **** ENERGY FILE WAS UPDATED (TS1_4-NO2Ph.en.tmp) ****
             **** THE GBW FILE WAS UPDATED (TS1_4-NO2Ph.gbw) ****
             **** DENSITY TS1_4-NO2Ph.scfp WAS UPDATED ****
----------------
ORBITAL ENERGIES
----------------

  NO   OCC          E(Eh)            E(eV) 
   0   2.0000     -19.266526      -524.2688 
   1   2.0000     -19.250398      -523.8300 
   2   2.0000     -19.248325      -523.7735 
   3   2.0000     -19.248308      -523.7731 
   4   2.0000     -19.212532      -522.7996 
   5   2.0000     -19.211378      -522.7682 
   6   2.0000     -19.205379      -522.6049 
   7   2.0000     -14.632523      -398.1712 
   8   2.0000     -14.591242      -397.0479 
   9   2.0000     -14.464484      -393.5986 
  10   2.0000     -10.365023      -282.0466 
  11   2.0000     -10.301489      -280.3178 
  12   2.0000     -10.297013      -280.1960 
  13   2.0000     -10.291292      -280.0403 
  14   2.0000     -10.289962      -280.0041 
  15   2.0000     -10.284837      -279.8647 
  16   2.0000     -10.281749      -279.7806 
  17   2.0000     -10.272170      -279.5200 
  18   2.0000     -10.268580      -279.4223 
  19   2.0000     -10.265831      -279.3475 
  20   2.0000     -10.264661      -279.3156 
  21   2.0000     -10.251638      -278.9613 
  22   2.0000     -10.251596      -278.9601 
  23   2.0000     -10.251035      -278.9449 
  24   2.0000     -10.245129      -278.7841 
  25   2.0000     -10.244221      -278.7594 
  26   2.0000     -10.241231      -278.6781 
  27   2.0000     -10.239248      -278.6241 
  28   2.0000     -10.230794      -278.3941 
  29   2.0000     -10.230300      -278.3806 
  30   2.0000     -10.229707      -278.3645 
  31   2.0000     -10.226807      -278.2856 
  32   2.0000     -10.222239      -278.1613 
  33   2.0000      -1.283132       -34.9158 
  34   2.0000      -1.236954       -33.6592 
  35   2.0000      -1.158247       -31.5175 
  36   2.0000      -1.114021       -30.3141 
  37   2.0000      -1.101796       -29.9814 
  38   2.0000      -1.067763       -29.0553 
  39   2.0000      -1.055230       -28.7143 
  40   2.0000      -1.045544       -28.4507 
  41   2.0000      -0.927395       -25.2357 
  42   2.0000      -0.901871       -24.5412 
  43   2.0000      -0.880450       -23.9583 
  44   2.0000      -0.869582       -23.6625 
  45   2.0000      -0.832055       -22.6414 
  46   2.0000      -0.818844       -22.2819 
  47   2.0000      -0.809798       -22.0357 
  48   2.0000      -0.796168       -21.6648 
  49   2.0000      -0.789276       -21.4773 
  50   2.0000      -0.780784       -21.2462 
  51   2.0000      -0.751204       -20.4413 
  52   2.0000      -0.730170       -19.8689 
  53   2.0000      -0.725695       -19.7472 
  54   2.0000      -0.705808       -19.2060 
  55   2.0000      -0.684335       -18.6217 
  56   2.0000      -0.666183       -18.1278 
  57   2.0000      -0.650440       -17.6994 
  58   2.0000      -0.631234       -17.1768 
  59   2.0000      -0.630705       -17.1623 
  60   2.0000      -0.616162       -16.7666 
  61   2.0000      -0.603387       -16.4190 
  62   2.0000      -0.593288       -16.1442 
  63   2.0000      -0.587016       -15.9735 
  64   2.0000      -0.571355       -15.5474 
  65   2.0000      -0.568654       -15.4739 
  66   2.0000      -0.566838       -15.4244 
  67   2.0000      -0.554486       -15.0883 
  68   2.0000      -0.551750       -15.0139 
  69   2.0000      -0.545319       -14.8389 
  70   2.0000      -0.543571       -14.7913 
  71   2.0000      -0.530340       -14.4313 
  72   2.0000      -0.528384       -14.3781 
  73   2.0000      -0.519925       -14.1479 
  74   2.0000      -0.514940       -14.0122 
  75   2.0000      -0.506560       -13.7842 
  76   2.0000      -0.500343       -13.6150 
  77   2.0000      -0.492842       -13.4109 
  78   2.0000      -0.490678       -13.3520 
  79   2.0000      -0.486636       -13.2421 
  80   2.0000      -0.481640       -13.1061 
  81   2.0000      -0.474763       -12.9190 
  82   2.0000      -0.470456       -12.8018 
  83   2.0000      -0.463386       -12.6094 
  84   2.0000      -0.462153       -12.5758 
  85   2.0000      -0.453531       -12.3412 
  86   2.0000      -0.450710       -12.2644 
  87   2.0000      -0.444327       -12.0907 
  88   2.0000      -0.433235       -11.7889 
  89   2.0000      -0.425903       -11.5894 
  90   2.0000      -0.418104       -11.3772 
  91   2.0000      -0.411807       -11.2058 
  92   2.0000      -0.401735       -10.9318 
  93   2.0000      -0.398965       -10.8564 
  94   2.0000      -0.395381       -10.7589 
  95   2.0000      -0.385201       -10.4819 
  96   2.0000      -0.384734       -10.4691 
  97   2.0000      -0.382468       -10.4075 
  98   2.0000      -0.378046       -10.2872 
  99   2.0000      -0.375134       -10.2079 
 100   2.0000      -0.370480       -10.0813 
 101   2.0000      -0.347380        -9.4527 
 102   2.0000      -0.345894        -9.4123 
 103   2.0000      -0.344675        -9.3791 
 104   2.0000      -0.342671        -9.3246 
 105   2.0000      -0.335146        -9.1198 
 106   2.0000      -0.332243        -9.0408 
 107   2.0000      -0.324876        -8.8403 
 108   2.0000      -0.320819        -8.7299 
 109   2.0000      -0.320117        -8.7108 
 110   2.0000      -0.308831        -8.4037 
 111   2.0000      -0.305805        -8.3214 
 112   2.0000      -0.300204        -8.1690 
 113   2.0000      -0.289767        -7.8850 
 114   2.0000      -0.280112        -7.6222 
 115   2.0000      -0.269586        -7.3358 
 116   2.0000      -0.241353        -6.5675 
 117   2.0000      -0.211939        -5.7672 
 118   0.0000      -0.096588        -2.6283 
 119   0.0000      -0.067429        -1.8348 
 120   0.0000      -0.036190        -0.9848 
 121   0.0000      -0.025289        -0.6882 
 122   0.0000      -0.014904        -0.4056 
 123   0.0000      -0.006718        -0.1828 
 124   0.0000      -0.001213        -0.0330 
 125   0.0000       0.005439         0.1480 
 126   0.0000       0.022787         0.6201 
 127   0.0000       0.043245         1.1767 
 128   0.0000       0.056147         1.5278 
 129   0.0000       0.059177         1.6103 
 130   0.0000       0.063003         1.7144 
 131   0.0000       0.072387         1.9698 
 132   0.0000       0.081880         2.2281 
 133   0.0000       0.085442         2.3250 
 134   0.0000       0.088565         2.4100 
 135   0.0000       0.091610         2.4928 
 136   0.0000       0.095970         2.6115 
 137   0.0000       0.101091         2.7508 
 138   0.0000       0.108081         2.9410 
 139   0.0000       0.113950         3.1007 
 140   0.0000       0.114665         3.1202 
 141   0.0000       0.118820         3.2333 
 142   0.0000       0.121924         3.3177 
[...]
 70:    877.21   0.005946   30.05  0.002115  ( 0.027720 -0.030116  0.020973)
 71:    885.38   0.005556   28.08  0.001958  ( 0.036596 -0.019841 -0.015006)
 72:    892.07   0.017182   86.83  0.006011  (-0.072620 -0.024946 -0.010712)
 73:    908.38   0.003833   19.37  0.001317  ( 0.008612  0.029854  0.018742)
 74:    936.66   0.009752   49.28  0.003249  (-0.048927  0.015378  0.024876)
 75:    956.22   0.005076   25.65  0.001656  ( 0.020300 -0.026106 -0.023725)
 76:    966.05   0.005342   26.99  0.001725  ( 0.021261 -0.017586 -0.031051)
 77:    977.13   0.026034  131.57  0.008315  ( 0.053992 -0.041457 -0.060669)
 78:    989.56   0.001061    5.36  0.000335  ( 0.013506 -0.005186 -0.011191)
 79:    997.23   0.011173   56.46  0.003496  ( 0.051683 -0.009056 -0.027262)
 80:    999.53   0.002859   14.45  0.000892  ( 0.023592 -0.004915 -0.017656)
 81:   1003.25   0.000766    3.87  0.000238  ( 0.011668 -0.000075 -0.010107)
 82:   1014.16   0.000128    0.65  0.000040  ( 0.003520  0.003887  0.003468)
 83:   1032.37   0.003067   15.50  0.000927  ( 0.023120  0.007137  0.018481)
 84:   1049.36   0.008179   41.33  0.002432  ( 0.001587 -0.040982 -0.027392)
 85:   1052.12   0.001020    5.15  0.000302  (-0.007040  0.013595  0.008248)
 86:   1064.47   0.009226   46.63  0.002705  ( 0.032345  0.024964  0.032178)
 87:   1071.28   0.006900   34.87  0.002010  (-0.011184 -0.019552 -0.038763)
 88:   1084.48   0.007679   38.81  0.002210  ( 0.008896 -0.007662  0.045518)
 89:   1093.72   0.015899   80.35  0.004536  (-0.023416  0.003343  0.063063)
 90:   1113.29   0.005661   28.61  0.001587  ( 0.016718 -0.032144 -0.016555)
 91:   1135.20   0.001193    6.03  0.000328  (-0.007200 -0.015788  0.005172)
 92:   1140.89   0.011229   56.75  0.003072  ( 0.027200  0.002061  0.048243)
 93:   1141.45   0.021568  109.00  0.005897  (-0.074995  0.004449 -0.015890)
 94:   1156.23   0.005276   26.66  0.001424  (-0.005342 -0.007886 -0.036512)
 95:   1171.65   0.000182    0.92  0.000049  (-0.006034  0.003436 -0.000612)
 96:   1173.51   0.001284    6.49  0.000341  ( 0.005055  0.005285  0.016968)
 97:   1174.18   0.000285    1.44  0.000076  (-0.008001  0.003426  0.000241)
 98:   1177.89   0.004331   21.89  0.001147  (-0.023232  0.024462  0.003056)
 99:   1203.32   0.008385   42.37  0.002174  ( 0.002304 -0.045420 -0.010303)
100:   1206.90   0.003350   16.93  0.000866  (-0.003633 -0.009964 -0.027452)
101:   1207.91   0.005466   27.62  0.001412  (-0.004883  0.035237  0.012105)
102:   1219.56   0.004798   24.25  0.001228  ( 0.029121  0.015319 -0.012039)
103:   1225.92   0.007939   40.12  0.002021  (-0.016576  0.021704  0.035709)
104:   1240.20   0.036973  186.85  0.009303  (-0.023692  0.091355  0.019909)
105:   1242.43   0.009702   49.03  0.002437  (-0.018751  0.039806  0.022378)
106:   1261.17   0.083257  420.75  0.020601  ( 0.018454 -0.140829 -0.020686)
107:   1273.57   0.019921  100.67  0.004881  ( 0.000767 -0.060868 -0.034290)
108:   1306.76   0.069790  352.69  0.016666  ( 0.003353  0.051681 -0.118255)
109:   1316.50   0.005138   25.97  0.001218  (-0.021981  0.010872 -0.024832)
110:   1323.76   0.006330   31.99  0.001492  ( 0.029403 -0.021011 -0.013645)
111:   1335.59   0.002074   10.48  0.000485  (-0.001380 -0.020729  0.007279)
112:   1345.06   0.041692  210.69  0.009673  (-0.009343 -0.060967 -0.076607)
113:   1360.67   0.054029  273.04  0.012391  ( 0.061686 -0.020452 -0.090377)
114:   1371.47   0.041820  211.34  0.009516  (-0.031535  0.081791  0.042797)
115:   1374.59   0.012432   62.82  0.002822  (-0.005272  0.049555 -0.018403)
116:   1383.64   0.019070   96.37  0.004301  ( 0.014647 -0.025381 -0.058672)
117:   1386.93   0.002590   13.09  0.000583  (-0.012100 -0.020863 -0.001047)
118:   1416.24   0.181857  919.03  0.040071  (-0.195360 -0.002134 -0.043607)
119:   1424.56   0.009109   46.03  0.001995  (-0.002936  0.025607  0.036483)
120:   1442.72   0.004360   22.04  0.000943  ( 0.009955 -0.010757 -0.026988)
121:   1464.74   0.004596   23.22  0.000979  ( 0.016318 -0.000498 -0.026694)
122:   1466.21   0.003802   19.21  0.000809  (-0.022297  0.017396  0.003063)
123:   1470.46   0.011428   57.75  0.002425  ( 0.014618  0.046622  0.006169)
124:   1471.96   0.003794   19.17  0.000804  (-0.014172  0.024492 -0.001910)
125:   1477.58   0.004578   23.14  0.000967  (-0.004168 -0.003915 -0.030565)
126:   1482.03   0.002449   12.38  0.000516  (-0.009415 -0.015892  0.013209)
127:   1491.45   0.096863  489.51  0.020267  (-0.119170  0.066122 -0.041154)
128:   1495.67   0.020956  105.90  0.004372  ( 0.057754  0.031512  0.006623)
129:   1500.02   0.014761   74.60  0.003071  (-0.008702  0.022982 -0.049668)
130:   1518.68   0.001636    8.27  0.000336  ( 0.012705  0.013183  0.000951)
131:   1538.75   0.003190   16.12  0.000647  ( 0.023897  0.006112 -0.006202)
132:   1541.31   0.031676  160.08  0.006413  ( 0.007798  0.038111 -0.070000)
133:   1601.04   0.102992  520.48  0.020074  ( 0.021134  0.056295 -0.128292)
134:   1603.03   0.043192  218.28  0.008408  ( 0.091342  0.002340 -0.007715)
135:   1651.25   0.006783   34.28  0.001282  (-0.007510  0.002705 -0.034903)
136:   1660.21   0.018219   92.07  0.003424  (-0.048209 -0.021047  0.025639)
137:   1665.22   0.002812   14.21  0.000527  ( 0.016788  0.015040 -0.004343)
138:   1665.83   0.025137  127.03  0.004709  (-0.001996  0.022950 -0.064640)
139:   1684.26   0.041870  211.59  0.007758  ( 0.035513  0.076493 -0.025407)
140:   1793.58   0.102672  518.86  0.017864  ( 0.044055  0.049139 -0.116225)
141:   3041.45   0.011252   56.86  0.001154  (-0.012845 -0.007559 -0.030535)
142:   3073.69   0.005895   29.79  0.000598  ( 0.002610 -0.020524 -0.013055)
143:   3113.14   0.000527    2.66  0.000053  ( 0.003970 -0.001385 -0.005932)
144:   3115.98   0.007259   36.68  0.000727  (-0.019097  0.017903  0.006464)
145:   3127.14   0.001104    5.58  0.000110  (-0.001890 -0.009941 -0.002784)
146:   3158.22   0.003815   19.28  0.000377  (-0.019102  0.002166 -0.002720)
147:   3166.44   0.003229   16.32  0.000318  (-0.007944 -0.012250  0.010248)
148:   3185.81   0.000951    4.80  0.000093  ( 0.005740  0.004116  0.006575)
149:   3191.25   0.001983   10.02  0.000194  (-0.001725 -0.010126  0.009402)
150:   3196.57   0.001755    8.87  0.000171  ( 0.008598  0.008273  0.005385)
151:   3198.67   0.002605   13.16  0.000254  (-0.000583  0.013197  0.008924)
152:   3205.92   0.000984    4.97  0.000096  (-0.000729 -0.008120  0.005417)
153:   3213.95   0.003364   17.00  0.000327  ( 0.004417  0.010286 -0.014187)
154:   3217.26   0.000177    0.89  0.000017  ( 0.002358 -0.002082  0.002689)
155:   3230.12   0.000286    1.45  0.000028  ( 0.002313  0.003036  0.003620)
156:   3232.20   0.000467    2.36  0.000045  (-0.000362 -0.004882  0.004594)
157:   3233.42   0.000050    0.25  0.000005  (-0.001564  0.000824  0.001300)
158:   3236.79   0.000807    4.08  0.000078  ( 0.000641  0.003838 -0.007918)
159:   3243.88   0.000728    3.68  0.000070  (-0.007277 -0.001827  0.003707)
160:   3248.76   0.000666    3.37  0.000064  ( 0.007780 -0.000018  0.001859)
161:   3249.66   0.000009    0.04  0.000001  ( 0.000013 -0.000599  0.000683)

* The epsilon (eps) is given for a Dirac delta lineshape.
** The dipole moment derivative (T) already includes vibrational overlap.

The first frequency considered to be a vibration is 7
The total number of vibrations considered is 155


--------------------------
THERMOCHEMISTRY AT 298.15K
--------------------------

Temperature         ... 298.15 K
Pressure            ... 1.00 atm
Total Mass          ... 451.44 AMU

Throughout the following assumptions are being made:
  (1) The electronic state is orbitally nondegenerate
  (2) There are no thermally accessible electronically excited states
  (3) Hindered rotations indicated by low frequency modes are not
      treated as such but are treated as vibrations and this may
      cause some error
  (4) All equations used are the standard statistical mechanics
      equations for an ideal gas
  (5) All vibrations are strictly harmonic

freq.      17.19  E(vib)   ...       0.57 
freq.      28.32  E(vib)   ...       0.55 
freq.      33.35  E(vib)   ...       0.55 
freq.      47.75  E(vib)   ...       0.53 
freq.      62.55  E(vib)   ...       0.51 
freq.      79.00  E(vib)   ...       0.49 
freq.      82.12  E(vib)   ...       0.48 
freq.      87.59  E(vib)   ...       0.48 
freq.      90.88  E(vib)   ...       0.47 
freq.      99.75  E(vib)   ...       0.46 
freq.     107.34  E(vib)   ...       0.45 
freq.     118.08  E(vib)   ...       0.44 
freq.     128.40  E(vib)   ...       0.43 
freq.     133.09  E(vib)   ...       0.42 
freq.     138.48  E(vib)   ...       0.42 
freq.     151.13  E(vib)   ...       0.40 
freq.     160.27  E(vib)   ...       0.39 
freq.     162.24  E(vib)   ...       0.39 
freq.     195.80  E(vib)   ...       0.36 
freq.     206.59  E(vib)   ...       0.35 
freq.     214.38  E(vib)   ...       0.34 
freq.     235.21  E(vib)   ...       0.32 
freq.     247.89  E(vib)   ...       0.31 
freq.     260.76  E(vib)   ...       0.30 
freq.     278.04  E(vib)   ...       0.28 
freq.     293.58  E(vib)   ...       0.27 
freq.     294.75  E(vib)   ...       0.27 
freq.     328.70  E(vib)   ...       0.24 
freq.     340.73  E(vib)   ...       0.23 
freq.     353.11  E(vib)   ...       0.22 
freq.     379.28  E(vib)   ...       0.21 
freq.     386.51  E(vib)   ...       0.20 
freq.     419.51  E(vib)   ...       0.18 
freq.     445.94  E(vib)   ...       0.17 
freq.     472.82  E(vib)   ...       0.15 
freq.     484.17  E(vib)   ...       0.15 
freq.     498.98  E(vib)   ...       0.14 
freq.     512.66  E(vib)   ...       0.13 
freq.     531.34  E(vib)   ...       0.13 
freq.     544.09  E(vib)   ...       0.12 
freq.     553.22  E(vib)   ...       0.12 
freq.     573.07  E(vib)   ...       0.11 
freq.     588.23  E(vib)   ...       0.10 
freq.     621.39  E(vib)   ...       0.09 
freq.     632.27  E(vib)   ...       0.09 
freq.     642.95  E(vib)   ...       0.09 
freq.     645.28  E(vib)   ...       0.09 
freq.     670.20  E(vib)   ...       0.08 
freq.     688.76  E(vib)   ...       0.07 
freq.     704.19  E(vib)   ...       0.07 
freq.     725.62  E(vib)   ...       0.06 
freq.     737.86  E(vib)   ...       0.06 
freq.     753.04  E(vib)   ...       0.06 
freq.     766.62  E(vib)   ...       0.06 
freq.     768.12  E(vib)   ...       0.06 
freq.     776.86  E(vib)   ...       0.05 
freq.     793.10  E(vib)   ...       0.05 
freq.     802.96  E(vib)   ...       0.05 
freq.     816.38  E(vib)   ...       0.05 
freq.     827.17  E(vib)   ...       0.04 
freq.     837.51  E(vib)   ...       0.04 
freq.     845.28  E(vib)   ...       0.04 
freq.     868.67  E(vib)   ...       0.04 
freq.     877.21  E(vib)   ...       0.04 
freq.     885.38  E(vib)   ...       0.04 
freq.     892.07  E(vib)   ...       0.03 
freq.     908.38  E(vib)   ...       0.03 
freq.     936.66  E(vib)   ...       0.03 
freq.     956.22  E(vib)   ...       0.03 
freq.     966.05  E(vib)   ...       0.03 
freq.     977.13  E(vib)   ...       0.03 
freq.     989.56  E(vib)   ...       0.02 
freq.     997.23  E(vib)   ...       0.02 
freq.     999.53  E(vib)   ...       0.02 
freq.    1003.25  E(vib)   ...       0.02 
freq.    1014.16  E(vib)   ...       0.02 
freq.    1032.37  E(vib)   ...       0.02 
freq.    1049.36  E(vib)   ...       0.02 
freq.    1052.12  E(vib)   ...       0.02 
freq.    1064.47  E(vib)   ...       0.02 
freq.    1071.28  E(vib)   ...       0.02 
freq.    1084.48  E(vib)   ...       0.02 
freq.    1093.72  E(vib)   ...       0.02 
freq.    1113.29  E(vib)   ...       0.01 
freq.    1135.20  E(vib)   ...       0.01 
freq.    1140.89  E(vib)   ...       0.01 
freq.    1141.45  E(vib)   ...       0.01 
freq.    1156.23  E(vib)   ...       0.01 
freq.    1171.65  E(vib)   ...       0.01 
freq.    1173.51  E(vib)   ...       0.01 
freq.    1174.18  E(vib)   ...       0.01 
freq.    1177.89  E(vib)   ...       0.01 
freq.    1203.32  E(vib)   ...       0.01 
freq.    1206.90  E(vib)   ...       0.01 
freq.    1207.91  E(vib)   ...       0.01 
freq.    1219.56  E(vib)   ...       0.01 
freq.    1225.92  E(vib)   ...       0.01 
freq.    1240.20  E(vib)   ...       0.01 
freq.    1242.43  E(vib)   ...       0.01 
freq.    1261.17  E(vib)   ...       0.01 
freq.    1273.57  E(vib)   ...       0.01 
freq.    1306.76  E(vib)   ...       0.01 
freq.    1316.50  E(vib)   ...       0.01 
freq.    1323.76  E(vib)   ...       0.01 
freq.    1335.59  E(vib)   ...       0.01 
freq.    1345.06  E(vib)   ...       0.01 
freq.    1360.67  E(vib)   ...       0.01 
freq.    1371.47  E(vib)   ...       0.01 
freq.    1374.59  E(vib)   ...       0.01 
freq.    1383.64  E(vib)   ...       0.00 
freq.    1386.93  E(vib)   ...       0.00 
freq.    1416.24  E(vib)   ...       0.00 
freq.    1424.56  E(vib)   ...       0.00 
freq.    1442.72  E(vib)   ...       0.00 
freq.    1464.74  E(vib)   ...       0.00 
freq.    1466.21  E(vib)   ...       0.00 
freq.    1470.46  E(vib)   ...       0.00 
freq.    1471.96  E(vib)   ...       0.00 
freq.    1477.58  E(vib)   ...       0.00 
freq.    1482.03  E(vib)   ...       0.00 
freq.    1491.45  E(vib)   ...       0.00 
freq.    1495.67  E(vib)   ...       0.00 
freq.    1500.02  E(vib)   ...       0.00 
freq.    1518.68  E(vib)   ...       0.00 
freq.    1538.75  E(vib)   ...       0.00 
freq.    1541.31  E(vib)   ...       0.00 
freq.    1601.04  E(vib)   ...       0.00 
freq.    1603.03  E(vib)   ...       0.00 
freq.    1651.25  E(vib)   ...       0.00 
freq.    1660.21  E(vib)   ...       0.00 
freq.    1665.22  E(vib)   ...       0.00 
freq.    1665.83  E(vib)   ...       0.00 
freq.    1684.26  E(vib)   ...       0.00 
freq.    1793.58  E(vib)   ...       0.00 
freq.    3041.45  E(vib)   ...       0.00 
freq.    3073.69  E(vib)   ...       0.00 
freq.    3113.14  E(vib)   ...       0.00 
freq.    3115.98  E(vib)   ...       0.00 
freq.    3127.14  E(vib)   ...       0.00 
freq.    3158.22  E(vib)   ...       0.00 
freq.    3166.44  E(vib)   ...       0.00 
freq.    3185.81  E(vib)   ...       0.00 
freq.    3191.25  E(vib)   ...       0.00 
freq.    3196.57  E(vib)   ...       0.00 
freq.    3198.67  E(vib)   ...       0.00 
freq.    3205.92  E(vib)   ...       0.00 
freq.    3213.95  E(vib)   ...       0.00 
freq.    3217.26  E(vib)   ...       0.00 
freq.    3230.12  E(vib)   ...       0.00 
freq.    3232.20  E(vib)   ...       0.00 
freq.    3233.42  E(vib)   ...       0.00 
freq.    3236.79  E(vib)   ...       0.00 
freq.    3243.88  E(vib)   ...       0.00 
freq.    3248.76  E(vib)   ...       0.00 
freq.    3249.66  E(vib)   ...       0.00 

------------
INNER ENERGY
------------

The inner energy is: U= E(el) + E(ZPE) + E(vib) + E(rot) + E(trans)
    E(el)   - is the total energy from the electronic structure calculation
              = E(kin-el) + E(nuc-el) + E(el-el) + E(nuc-nuc)
    E(ZPE)  - the the zero temperature vibrational energy from the frequency calculation
    E(vib)  - the the finite temperature correction to E(ZPE) due to population
              of excited vibrational states
    E(rot)  - is the rotational thermal energy
    E(trans)- is the translational thermal energy

Summary of contributions to the inner energy U:
Electronic energy                ...  -1578.60202616 Eh
Zero point energy                ...      0.41808733 Eh     262.35 kcal/mol
Thermal vibrational correction   ...      0.02529098 Eh      15.87 kcal/mol
Thermal rotational correction    ...      0.00141627 Eh       0.89 kcal/mol
Thermal translational correction ...      0.00141627 Eh       0.89 kcal/mol
-----------------------------------------------------------------------
Total thermal energy                  -1578.15581531 Eh


Summary of corrections to the electronic energy:
(perhaps to be used in another calculation)
Total thermal correction                  0.02812352 Eh      17.65 kcal/mol
Non-thermal (ZPE) correction              0.41808733 Eh     262.35 kcal/mol
-----------------------------------------------------------------------
Total correction                          0.44621085 Eh     280.00 kcal/mol


--------
ENTHALPY
--------

The enthalpy is H = U + kB*T
                kB is Boltzmann's constant
Total free energy                 ...  -1578.15581531 Eh 
Thermal Enthalpy correction       ...      0.00094421 Eh       0.59 kcal/mol
-----------------------------------------------------------------------
Total Enthalpy                    ...  -1578.15487110 Eh


Note: Only C1 symmetry has been detected, increase convergence thresholds 
      if your molecule has a higher symmetry. Symmetry factor of 1.0 is   
      used for the rotational entropy correction. 
 

Note: Rotational entropy computed according to Herzberg 
Infrared and Raman Spectra, Chapter V,1, Van Nostrand Reinhold, 1945 
Point Group:  C1, Symmetry Number:   1  
Rotational constants in cm-1:     0.006385     0.004164     0.003232 

Vibrational entropy computed according to the QRRHO of S. Grimme
Chem.Eur.J. 2012 18 9955


-------
ENTROPY
-------

The entropy contributions are T*S = T*(S(el)+S(vib)+S(rot)+S(trans))
     S(el)   - electronic entropy
     S(vib)  - vibrational entropy
     S(rot)  - rotational entropy
     S(trans)- translational entropy
The entropies will be listed as multiplied by the temperature to get
units of energy

Electronic entropy                ...      0.00000000 Eh      0.00 kcal/mol
Vibrational entropy               ...      0.04541373 Eh     28.50 kcal/mol
Rotational entropy                ...      0.01719157 Eh     10.79 kcal/mol
Translational entropy             ...      0.02100593 Eh     13.18 kcal/mol
-----------------------------------------------------------------------
Final entropy term                ...      0.08361123 Eh     52.47 kcal/mol

In case the symmetry of your molecule has not been determined correctly
or in case you have a reason to use a different symmetry number we print 
out the resulting rotational entropy values for sn=1,12 :
 --------------------------------------------------------
|  sn= 1 | S(rot)=       0.01719157 Eh     10.79 kcal/mol|
|  sn= 2 | S(rot)=       0.01653712 Eh     10.38 kcal/mol|
|  sn= 3 | S(rot)=       0.01615428 Eh     10.14 kcal/mol|
|  sn= 4 | S(rot)=       0.01588266 Eh      9.97 kcal/mol|
|  sn= 5 | S(rot)=       0.01567197 Eh      9.83 kcal/mol|
|  sn= 6 | S(rot)=       0.01549983 Eh      9.73 kcal/mol|
|  sn= 7 | S(rot)=       0.01535428 Eh      9.63 kcal/mol|
|  sn= 8 | S(rot)=       0.01522820 Eh      9.56 kcal/mol|
|  sn= 9 | S(rot)=       0.01511699 Eh      9.49 kcal/mol|
|  sn=10 | S(rot)=       0.01501751 Eh      9.42 kcal/mol|
|  sn=11 | S(rot)=       0.01492752 Eh      9.37 kcal/mol|
|  sn=12 | S(rot)=       0.01484537 Eh      9.32 kcal/mol|
 --------------------------------------------------------


-------------------
GIBBS FREE ENERGY
-------------------

The Gibbs free energy is G = H - T*S

Total enthalpy                    ...  -1578.15487110 Eh 
Total entropy correction          ...     -0.08361123 Eh    -52.47 kcal/mol
-----------------------------------------------------------------------
Final Gibbs free energy         ...  -1578.23848233 Eh

For completeness - the Gibbs free energy minus the electronic energy
G-E(el)                           ...      0.36354383 Eh    228.13 kcal/mol


Timings for individual modules:

Sum of individual times         ...    18664.401 sec (= 311.073 min)
GTO integral calculation        ...       43.548 sec (=   0.726 min)   0.2 %
SCF iterations                  ...     2630.754 sec (=  43.846 min)  14.1 %
SCF Gradient evaluation         ...      734.421 sec (=  12.240 min)   3.9 %
Geometry relaxation             ...        4.178 sec (=   0.070 min)   0.0 %
Analytical frequency calculation...    15251.501 sec (= 254.192 min)  81.7 %
                             ****ORCA TERMINATED NORMALLY****
TOTAL RUN TIME: 0 days 5 hours 11 minutes 51 seconds 727 msec
