
                                 *****************
                                 * O   R   C   A *
                                 *****************

                                            #,                                       
                                            ###                                      
                                            ####                                     
                                            #####                                    
                                            ######                                   
                                           ########,                                 
                                     ,,################,,,,,                         
                               ,,#################################,,                 
                          ,,##########################################,,             
                       ,#########################################, ''#####,          
                    ,#############################################,,   '####,        
                  ,##################################################,,,,####,       
                ,###########''''           ''''###############################       
              ,#####''   ,,,,##########,,,,          '''####'''          '####       
            ,##' ,,,,###########################,,,                        '##       
           ' ,,###''''                  '''############,,,                           
         ,,##''                                '''############,,,,        ,,,,,,###''
      ,#''                                            '''#######################'''  
     '                                                          ''''####''''         
             ,#######,   #######,   ,#######,      ##                                
            ,#'     '#,  ##    ##  ,#'     '#,    #''#        ######   ,####,        
            ##       ##  ##   ,#'  ##            #'  '#       #        #'  '#        
            ##       ##  #######   ##           ,######,      #####,   #    #        
            '#,     ,#'  ##    ##  '#,     ,#' ,#      #,         ##   #,  ,#        
             '#######'   ##     ##  '#######'  #'      '#     #####' # '####'        



                  #######################################################
                  #                        -***-                        #
                  #          Department of theory and spectroscopy      #
                  #    Directorship and core code : Frank Neese         #
                  #        Max Planck Institute fuer Kohlenforschung    #
                  #                Kaiser Wilhelm Platz 1               #
                  #                 D-45470 Muelheim/Ruhr               #
                  #                      Germany                        #
                  #                                                     #
                  #                  All rights reserved                #
                  #                        -***-                        #
                  #######################################################


                         Program Version 5.0.4 -  RELEASE  -


 With contributions from (in alphabetic order):
   Daniel Aravena         : Magnetic Suceptibility
   Michael Atanasov       : Ab Initio Ligand Field Theory (pilot matlab implementation)
   Alexander A. Auer      : GIAO ZORA, VPT2 properties, NMR spectrum
   Ute Becker             : Parallelization
   Giovanni Bistoni       : ED, misc. LED, open-shell LED, HFLD
   Martin Brehm           : Molecular dynamics
   Dmytro Bykov           : SCF Hessian
   Vijay G. Chilkuri      : MRCI spin determinant printing, contributions to CSF-ICE
   Dipayan Datta          : RHF DLPNO-CCSD density
   Achintya Kumar Dutta   : EOM-CC, STEOM-CC
   Dmitry Ganyushin       : Spin-Orbit,Spin-Spin,Magnetic field MRCI
   Miquel Garcia          : C-PCM and meta-GGA Hessian, CC/C-PCM, Gaussian charge scheme
   Yang Guo               : DLPNO-NEVPT2, F12-NEVPT2, CIM, IAO-localization
   Andreas Hansen         : Spin unrestricted coupled pair/coupled cluster methods
   Benjamin Helmich-Paris : MC-RPA, TRAH-SCF, COSX integrals
   Lee Huntington         : MR-EOM, pCC
   Robert Izsak           : Overlap fitted RIJCOSX, COSX-SCS-MP3, EOM
   Marcus Kettner         : VPT2
   Christian Kollmar      : KDIIS, OOCD, Brueckner-CCSD(T), CCSD density, CASPT2, CASPT2-K
   Simone Kossmann        : Meta GGA functionals, TD-DFT gradient, OOMP2, MP2 Hessian
   Martin Krupicka        : Initial AUTO-CI
   Lucas Lang             : DCDCAS
   Marvin Lechner         : AUTO-CI (C++ implementation), FIC-MRCC
   Dagmar Lenk            : GEPOL surface, SMD
   Dimitrios Liakos       : Extrapolation schemes; Compound Job, initial MDCI parallelization
   Dimitrios Manganas     : Further ROCIS development; embedding schemes
   Dimitrios Pantazis     : SARC Basis sets
   Anastasios Papadopoulos: AUTO-CI, single reference methods and gradients
   Taras Petrenko         : DFT Hessian,TD-DFT gradient, ASA, ECA, R-Raman, ABS, FL, XAS/XES, NRVS
   Peter Pinski           : DLPNO-MP2, DLPNO-MP2 Gradient
   Christoph Reimann      : Effective Core Potentials
   Marius Retegan         : Local ZFS, SOC
   Christoph Riplinger    : Optimizer, TS searches, QM/MM, DLPNO-CCSD(T), (RO)-DLPNO pert. Triples
   Tobias Risthaus        : Range-separated hybrids, TD-DFT gradient, RPA, STAB
   Michael Roemelt        : Original ROCIS implementation
   Masaaki Saitow         : Open-shell DLPNO-CCSD energy and density
   Barbara Sandhoefer     : DKH picture change effects
   Avijit Sen             : IP-ROCIS
   Kantharuban Sivalingam : CASSCF convergence, NEVPT2, FIC-MRCI
   Bernardo de Souza      : ESD, SOC TD-DFT
   Georgi Stoychev        : AutoAux, RI-MP2 NMR, DLPNO-MP2 response
   Willem Van den Heuvel  : Paramagnetic NMR
   Boris Wezisla          : Elementary symmetry handling
   Frank Wennmohs         : Technical directorship


 We gratefully acknowledge several colleagues who have allowed us to
 interface, adapt or use parts of their codes:
   Stefan Grimme, W. Hujo, H. Kruse, P. Pracht,  : VdW corrections, initial TS optimization,
                  C. Bannwarth, S. Ehlert          DFT functionals, gCP, sTDA/sTD-DF
   Ed Valeev, F. Pavosevic, A. Kumar             : LibInt (2-el integral package), F12 methods
   Garnet Chan, S. Sharma, J. Yang, R. Olivares  : DMRG
   Ulf Ekstrom                                   : XCFun DFT Library
   Mihaly Kallay                                 : mrcc  (arbitrary order and MRCC methods)
   Jiri Pittner, Ondrej Demel                    : Mk-CCSD
   Frank Weinhold                                : gennbo (NPA and NBO analysis)
   Christopher J. Cramer and Donald G. Truhlar   : smd solvation model
   Lars Goerigk                                  : TD-DFT with DH, B97 family of functionals
   V. Asgeirsson, H. Jonsson                     : NEB implementation
   FAccTs GmbH                                   : IRC, NEB, NEB-TS, DLPNO-Multilevel, CI-OPT
                                                   MM, QMMM, 2- and 3-layer-ONIOM, Crystal-QMMM,
                                                   LR-CPCM, SF, NACMEs, symmetry and pop. for TD-DFT,
                                                   nearIR, NL-DFT gradient (VV10), updates on ESD,
                                                   ML-optimized integration grids
   S Lehtola, MJT Oliveira, MAL Marques          : LibXC Library
   Liviu Ungur et al                             : ANISO software


 Your calculation uses the libint2 library for the computation of 2-el integrals
 For citations please refer to: http://libint.valeyev.net

 Your ORCA version has been built with support for libXC version: 5.1.0
 For citations please refer to: https://tddft.org/programs/libxc/

 This ORCA versions uses:
   CBLAS   interface :  Fast vector & matrix operations
   LAPACKE interface :  Fast linear algebra routines
   SCALAPACK package :  Parallel linear algebra routines
   Shared memory     :  Shared parallel matrices
   BLAS/LAPACK       :  OpenBLAS 0.3.15  USE64BITINT DYNAMIC_ARCH NO_AFFINITY Haswell SINGLE_THREADED
        Core in use  :  Haswell
   Copyright (c) 2011-2014, The OpenBLAS Project


Your calculation utilizes the atom-pairwise dispersion correction
with the Becke-Johnson damping scheme (D3BJ)
Cite in your paper:
S.Grimme, S.Ehrlich, L.Goerigk, J Comput Chem, (2011), 32, 1456–1465 
S.Grimme, J.Antony, S.Ehrlich and H.Krieg, J.Chem.Phys., 132, (2010), 154104 
   

================================================================================

----- Orbital basis set information -----
Your calculation utilizes the basis: def2-TZVP
   F. Weigend and R. Ahlrichs, Phys. Chem. Chem. Phys. 7, 3297 (2005).

----- AuxJ basis set information -----
Your calculation utilizes the auxiliary basis: def2/J
   F. Weigend, Phys. Chem. Chem. Phys. 8, 1057 (2006).

================================================================================
                                        WARNINGS
                       Please study these warnings very carefully!
================================================================================


WARNING: Geometry Optimization
  ===> : Switching off AutoStart
         For restart on a previous wavefunction, please use MOREAD

INFO   : the flag for use of the SHARK integral package has been found!

================================================================================
                                       INPUT FILE
================================================================================
NAME = TS1_CF3/TS1_CF3.inp
|  1> %pal nprocs 24 end
|  2> ! PBE0 D3BJ def2-TZVP TightSCF OPTTS FREQ TightOpt
|  3> ! CPCM(dmso)
|  4> %scf
|  5> MaxIter 800
|  6> end
|  7> 
|  8> %geom
|  9> MaxIter 800
| 10> MaxStep 0.15
| 11> end
| 12> 
| 13> *xyz 0 1
| 14> C       4.05916400      1.42269000      0.49768100
| 15> C       3.93746900      0.65447400      1.68422500
| 16> C       2.97993600     -0.31629900      1.73566900
| 17> N       2.20251700     -0.59443500      0.65199000
| 18> C       2.26435700      0.15050300     -0.51140100
| 19> C       3.26847200      1.15488300     -0.59082700
| 20> C       0.95695100     -1.32003500      0.80057400
| 21> C       0.92851400     -2.46762100     -0.20380700
| 22> O       1.07277900     -2.36180500     -1.39614400
| 23> O       0.77693000     -3.62719300      0.42084900
| 24> C       0.74727000     -4.79475800     -0.39898200
| 25> H       4.81990800      2.20500800      0.43702400
| 26> H       2.78664000     -0.92371400      2.62145300
| 27> H       1.94417200     -0.37028600     -1.41306200
| 28> H       3.38192800      1.69757100     -1.52986600
| 29> H       0.92109700     -1.76639400      1.80083200
| 30> H      -0.09067200     -4.73897600     -1.10846200
| 31> H       0.61466000     -5.64045500      0.28371300
| 32> C       0.27108700      0.86058000     -0.30316600
| 33> C      -0.13532600     -0.18717000      0.70149700
| 34> C      -1.58805200     -0.60336400      0.66859000
| 35> C      -2.05018000     -1.90322400      0.47412600
| 36> C      -3.41555000     -2.20004600      0.45357700
| 37> C      -4.34263600     -1.17899700      0.62798300
| 38> C      -3.91271300      0.13168100      0.84188500
| 39> C      -2.54578200      0.41737400      0.87759900
| 40> O      -2.04453800      1.64418000      1.11337100
| 41> C      -2.90254400      2.75948600      1.12309300
| 42> N       0.59208100      2.12753800      0.21827900
| 43> O       0.95541200      2.22320800      1.38742800
| 44> H       0.00943000      0.34191600      1.65668900
| 45> H      -1.34754200     -2.72545100      0.34941600
| 46> H      -3.74372200     -3.23012900      0.29932500
| 47> H      -5.41380800     -1.39472900      0.60691500
| 48> H      -4.64528700      0.92535600      0.99232600
| 49> H      -2.25910600      3.64036400      1.23889800
| 50> H      -3.61533500      2.71782800      1.96304400
| 51> H      -3.46176000      2.83926600      0.17642800
| 52> O       0.60419800      3.09080900     -0.54626100
| 53> H       1.68968200     -4.89386100     -0.95518200
| 54> H       4.57257200      0.83658400      2.55082000
| 55> C      -0.34718600      0.91469300     -1.66934800
| 56> F       0.50572900      1.35369700     -2.60945200
| 57> F      -0.72934600     -0.30911900     -2.05216700
| 58> F      -1.43931600      1.69427900     -1.75234400
| 59> *
| 60> 
| 61>                          ****END OF INPUT****
================================================================================

                       *****************************
                       * Geometry Optimization Run *
                       *****************************

Geometry optimization settings:
Update method            Update   .... Bofill
Choice of coordinates    CoordSys .... Z-matrix Internals
Initial Hessian          InHess   .... Almoef's Model

Convergence Tolerances:
Energy Change            TolE     ....  1.0000e-06 Eh
Max. Gradient            TolMAXG  ....  1.0000e-04 Eh/bohr
RMS Gradient             TolRMSG  ....  3.0000e-05 Eh/bohr
Max. Displacement        TolMAXD  ....  1.0000e-03 bohr
RMS Displacement         TolRMSD  ....  6.0000e-04 bohr
Strict Convergence                ....  False
------------------------------------------------------------------------------
                        ORCA OPTIMIZATION COORDINATE SETUP
------------------------------------------------------------------------------

The optimization will be done in new redundant internal coordinates
Making redundant internal coordinates   ...  (new redundants) done
Following TS mode number                ...     0
Evaluating the initial hessian          ...  (Almloef) done
Evaluating the coordinates              ...  done
Calculating the B-matrix                .... done
Calculating the G-matrix                .... done
Diagonalizing the G-matrix              .... done
Small eigenvalue found = 2.667e-03
Small eigenvalue found = 7.074e-03
Small eigenvalue found = 8.014e-03
Small eigenvalue found = 1.013e-02
Small eigenvalue found = 1.185e-02
Small eigenvalue found = 1.642e-02
Small eigenvalue found = 2.033e-02
Small eigenvalue found = 2.597e-02
The first mode is                       ....   95
The number of degrees of freedom        ....  129

    -----------------------------------------------------------------
                    Redundant Internal Coordinates


    -----------------------------------------------------------------
         Definition                    Initial Value    Approx d2E/dq
    -----------------------------------------------------------------
      1. B(C   1,C   0)                  1.4188         0.562172   
      2. B(C   2,C   1)                  1.3645         0.686103   
      3. B(N   3,C   2)                  1.3624         0.619340   
      4. B(C   4,N   3)                  1.3828         0.574520   
      5. B(C   5,C   4)                  1.4224         0.554604   
      6. B(C   5,C   0)                  1.3718         0.668062   
      7. B(C   6,N   3)                  1.4491         0.450320   
      8. B(C   7,C   6)                  1.5253         0.380079   
      9. B(O   8,C   7)                  1.2057         1.101382   
     10. B(O   9,C   7)                  1.3258         0.708405   
     11. B(C  10,O   9)                  1.4270         0.488552   
     12. B(H  11,C   0)                  1.0929         0.356283   
     13. B(H  12,C   2)                  1.0913         0.358388   
     14. B(H  13,C   4)                  1.0894         0.360931   
     15. B(H  14,C   5)                  1.0905         0.359447   
     16. B(H  15,C   6)                  1.0959         0.352355   
     17. B(H  16,C  10)                  1.0994         0.347912   
     18. B(H  17,C  10)                  1.0949         0.353643   
     19. B(C  19,C  18)                  1.5074         0.405892   
     20. B(C  19,C   6)                  1.5768         0.314576   
     21. B(C  20,C  19)                  1.5115         0.399807   
     22. B(C  21,C  20)                  1.3932         0.617488   
     23. B(C  22,C  21)                  1.3974         0.608013   
     24. B(C  23,C  22)                  1.3901         0.624510   
     25. B(C  24,C  23)                  1.3959         0.611458   
     26. B(C  25,C  24)                  1.3969         0.609105   
     27. B(C  25,C  20)                  1.4152         0.569518   
     28. B(O  26,C  25)                  1.3461         0.657617   
     29. B(C  27,O  26)                  1.4072         0.525357   
     30. B(N  28,C  18)                  1.4072         0.525392   
     31. B(O  29,N  28)                  1.2280         0.908691   
     32. B(H  30,C  19)                  1.1015         0.345218   
     33. B(H  31,C  21)                  1.0887         0.361798   
     34. B(H  32,C  22)                  1.0920         0.357405   
     35. B(H  33,C  23)                  1.0929         0.356306   
     36. B(H  34,C  24)                  1.0905         0.359423   
     37. B(H  35,C  27)                  1.0970         0.350981   
     38. B(H  36,C  27)                  1.1024         0.344042   
     39. B(H  37,C  27)                  1.1024         0.344078   
     40. B(O  38,N  28)                  1.2299         0.902616   
     41. B(H  39,C  10)                  1.0988         0.348669   
     42. B(H  40,C   1)                  1.0897         0.360460   
     43. B(C  41,C  18)                  1.5005         0.416262   
     44. B(F  42,C  41)                  1.3431         0.617665   
     45. B(F  43,C  41)                  1.3380         0.629345   
     46. B(F  44,C  41)                  1.3444         0.614796   
     47. A(C   5,C   0,H  11)          119.7969         0.356760   
     48. A(C   1,C   0,H  11)          119.5854         0.346503   
     49. A(C   1,C   0,C   5)          120.5626         0.432255   
     50. A(C   2,C   1,H  40)          119.8604         0.359091   
     51. A(C   0,C   1,C   2)          118.4863         0.434331   
     52. A(C   0,C   1,H  40)          121.6416         0.347183   
     53. A(C   1,C   2,H  12)          123.4276         0.358739   
     54. A(C   1,C   2,N   3)          121.0433         0.439080   
     55. A(N   3,C   2,H  12)          115.5264         0.350392   
     56. A(C   4,N   3,C   6)          113.2306         0.399317   
     57. A(C   2,N   3,C   4)          122.2559         0.422528   
     58. A(C   2,N   3,C   6)          120.7393         0.404638   
     59. A(C   5,C   4,H  13)          119.9221         0.346468   
     60. A(N   3,C   4,H  13)          115.1926         0.346397   
     61. A(N   3,C   4,C   5)          117.3175         0.416996   
     62. A(C   0,C   5,C   4)          120.0284         0.431204   
     63. A(C   0,C   5,H  14)          121.7472         0.357296   
     64. A(C   4,C   5,H  14)          118.2239         0.346229   
     65. A(H  15,C   6,C  19)          109.1056         0.314228   
     66. A(C   7,C   6,C  19)          119.0949         0.353916   
     67. A(N   3,C   6,C  19)          103.2514         0.362016   
     68. A(C   7,C   6,H  15)          107.0952         0.324080   
     69. A(N   3,C   6,C   7)          108.9793         0.373958   
     70. A(N   3,C   6,H  15)          109.0042         0.331268   
     71. A(C   6,C   7,O   9)          110.4823         0.404730   
     72. A(C   6,C   7,O   8)          125.6568         0.437895   
     73. A(O   8,C   7,O   9)          123.8054         0.487391   
     74. A(C   7,O   9,C  10)          116.5713         0.420441   
     75. A(O   9,C  10,H  39)          110.2915         0.335192   
     76. A(H  16,C  10,H  17)          110.4420         0.288454   
     77. A(O   9,C  10,H  17)          106.0376         0.335982   
     78. A(O   9,C  10,H  16)          110.1879         0.335070   
     79. A(H  17,C  10,H  39)          110.4770         0.288552   
     80. A(H  16,C  10,H  39)          109.3679         0.287816   
     81. A(C  19,C  18,N  28)          116.1253         0.388500   
     82. A(N  28,C  18,C  41)          113.5096         0.390215   
     83. A(C  19,C  18,C  41)          121.3845         0.375483   
     84. A(C   6,C  19,C  20)          117.9899         0.356967   
     85. A(C   6,C  19,C  18)          110.7623         0.357885   
     86. A(C  20,C  19,H  30)          106.1077         0.325689   
     87. A(C  18,C  19,H  30)          102.0441         0.326500   
     88. A(C   6,C  19,H  30)          101.5123         0.313188   
     89. A(C  18,C  19,C  20)          115.8486         0.372879   
     90. A(C  21,C  20,C  25)          117.9743         0.427185   
     91. A(C  19,C  20,C  25)          116.6539         0.395498   
     92. A(C  19,C  20,C  21)          125.3617         0.401159   
     93. A(C  22,C  21,H  31)          117.9358         0.352025   
     94. A(C  20,C  21,H  31)          120.4336         0.352947   
     95. A(C  20,C  21,C  22)          121.6229         0.432229   
     96. A(C  23,C  22,H  32)          120.6728         0.352893   
     97. A(C  21,C  22,H  32)          119.7393         0.351299   
     98. A(C  21,C  22,C  23)          119.5878         0.433109   
     99. A(C  24,C  23,H  33)          119.3524         0.351452   
    100. A(C  22,C  23,H  33)          120.4145         0.352709   
    101. A(C  22,C  23,C  24)          120.2313         0.433549   
    102. A(C  25,C  24,H  34)          120.3296         0.351740   
    103. A(C  23,C  24,H  34)          119.8425         0.351970   
    104. A(C  23,C  24,C  25)          119.8238         0.431607   
    105. A(C  24,C  25,O  26)          123.7284         0.434431   
    106. A(C  20,C  25,O  26)          115.5453         0.429217   
    107. A(C  20,C  25,C  24)          120.7253         0.426141   
    108. A(C  25,O  26,C  27)          119.7699         0.420309   
    109. A(H  36,C  27,H  37)          109.2101         0.286719   
    110. A(H  35,C  27,H  37)          109.2740         0.287614   
    111. A(O  26,C  27,H  37)          111.1449         0.338522   
    112. A(H  35,C  27,H  36)          109.2177         0.287610   
    113. A(O  26,C  27,H  36)          111.6878         0.338517   
    114. A(O  26,C  27,H  35)          106.2322         0.339647   
    115. A(C  18,N  28,O  38)          118.4949         0.441946   
    116. A(C  18,N  28,O  29)          119.3686         0.442482   
    117. A(O  29,N  28,O  38)          121.8640         0.485187   
    118. A(F  43,C  41,F  44)          106.3018         0.425127   
    119. A(F  42,C  41,F  44)          106.4466         0.423705   
    120. A(C  18,C  41,F  44)          114.3203         0.399378   
    121. A(F  42,C  41,F  43)          106.2642         0.425481   
    122. A(C  18,C  41,F  43)          110.1932         0.401026   
    123. A(C  18,C  41,F  42)          112.7928         0.399705   
    124. D(C   2,C   1,C   0,H  11)    179.9903         0.021655   
    125. D(H  40,C   1,C   0,C   5)    178.5342         0.021655   
    126. D(C   2,C   1,C   0,C   5)     -2.7142         0.021655   
    127. D(H  40,C   1,C   0,H  11)      1.2387         0.021655   
    128. D(N   3,C   2,C   1,H  40)   -177.8014         0.033045   
    129. D(H  12,C   2,C   1,C   0)   -177.2028         0.033045   
    130. D(H  12,C   2,C   1,H  40)      1.5716         0.033045   
    131. D(N   3,C   2,C   1,C   0)      3.4242         0.033045   
    132. D(C   4,N   3,C   2,H  12)    175.3842         0.031055   
    133. D(C   6,N   3,C   2,H  12)     18.7545         0.031055   
    134. D(C   4,N   3,C   2,C   1)     -5.1957         0.031055   
    135. D(C   6,N   3,C   2,C   1)   -161.8254         0.031055   
    136. D(C   5,C   4,N   3,C   6)    164.0486         0.026442   
    137. D(C   5,C   4,N   3,C   2)      5.8272         0.026442   
    138. D(H  13,C   4,N   3,C   2)    155.5309         0.026442   
    139. D(H  13,C   4,N   3,C   6)    -46.2477         0.026442   
    140. D(H  14,C   5,C   4,H  13)     27.0461         0.021054   
    141. D(C   0,C   5,C   4,H  13)   -153.2205         0.021054   
    142. D(H  14,C   5,C   0,H  11)      0.5981         0.031199   
    143. D(C   0,C   5,C   4,N   3)     -5.0028         0.021054   
    144. D(H  14,C   5,C   0,C   1)   -176.6917         0.031199   
    145. D(H  14,C   5,C   4,N   3)    175.2638         0.021054   
    146. D(C   4,C   5,C   0,H  11)   -179.1256         0.031199   
    147. D(C   4,C   5,C   0,C   1)      3.5846         0.031199   
    148. D(C  19,C   6,N   3,C   4)    -56.0647         0.017300   
    149. D(C  19,C   6,N   3,C   2)    102.5246         0.017300   
    150. D(H  15,C   6,N   3,C   4)   -171.9618         0.017300   
    151. D(C   7,C   6,N   3,C   2)   -129.9387         0.017300   
    152. D(H  15,C   6,N   3,C   2)    -13.3725         0.017300   
    153. D(C   7,C   6,N   3,C   4)     71.4721         0.017300   
    154. D(O   8,C   7,C   6,N   3)    -55.2669         0.010779   
    155. D(O   9,C   7,C   6,C  19)   -119.9469         0.010779   
    156. D(O   9,C   7,C   6,H  15)      4.3190         0.010779   
    157. D(O   9,C   7,C   6,N   3)    122.0972         0.010779   
    158. D(O   8,C   7,C   6,C  19)     62.6890         0.010779   
    159. D(O   8,C   7,C   6,H  15)   -173.0451         0.010779   
    160. D(C  10,O   9,C   7,O   8)     -1.9349         0.037668   
    161. D(C  10,O   9,C   7,C   6)   -179.3574         0.037668   
    162. D(H  39,C  10,O   9,C   7)     60.5222         0.018845   
    163. D(H  17,C  10,O   9,C   7)   -179.8497         0.018845   
    164. D(H  16,C  10,O   9,C   7)    -60.3195         0.018845   
    165. D(H  30,C  19,C  18,C  41)   -149.2731         0.012211   
    166. D(C  20,C  19,C  18,C  41)    -34.5272         0.012211   
    167. D(C  20,C  19,C  18,N  28)    110.5200         0.012211   
    168. D(C   6,C  19,C  18,C  41)    103.3215         0.012211   
    169. D(C   6,C  19,C  18,N  28)   -111.6312         0.012211   
    170. D(H  30,C  19,C   6,H  15)     44.8106         0.008145   
    171. D(H  30,C  19,C   6,C   7)    168.0939         0.008145   
    172. D(H  30,C  19,C   6,N   3)    -71.0142         0.008145   
    173. D(C  20,C  19,C   6,H  15)    -70.5869         0.008145   
    174. D(C  20,C  19,C   6,C   7)     52.6963         0.008145   
    175. D(C  20,C  19,C   6,N   3)    173.5882         0.008145   
    176. D(C  18,C  19,C   6,H  15)    152.5660         0.008145   
    177. D(H  30,C  19,C  18,N  28)     -4.2258         0.012211   
    178. D(C  18,C  19,C   6,N   3)     36.7412         0.008145   
    179. D(C  18,C  19,C   6,C   7)    -84.1507         0.008145   
    180. D(C  25,C  20,C  19,H  30)     53.5579         0.011863   
    181. D(C  25,C  20,C  19,C  18)    -58.8527         0.011863   
    182. D(C  25,C  20,C  19,C   6)    166.4336         0.011863   
    183. D(C  21,C  20,C  19,H  30)   -125.2526         0.011863   
    184. D(C  21,C  20,C  19,C  18)    122.3369         0.011863   
    185. D(C  21,C  20,C  19,C   6)    -12.3768         0.011863   
    186. D(C  22,C  21,C  20,C  19)   -179.7865         0.026371   
    187. D(H  31,C  21,C  20,C  25)   -177.5493         0.026371   
    188. D(H  31,C  21,C  20,C  19)      1.2469         0.026371   
    189. D(C  22,C  21,C  20,C  25)      1.4173         0.026371   
    190. D(H  32,C  22,C  21,H  31)     -0.9744         0.025522   
    191. D(H  32,C  22,C  21,C  20)   -179.9658         0.025522   
    192. D(C  23,C  22,C  21,H  31)    179.1214         0.025522   
    193. D(C  23,C  22,C  21,C  20)      0.1300         0.025522   
    194. D(H  33,C  23,C  22,H  32)     -0.3590         0.027012   
    195. D(H  33,C  23,C  22,C  21)    179.5443         0.027012   
    196. D(C  24,C  23,C  22,H  32)    179.1624         0.027012   
    197. D(C  24,C  23,C  22,C  21)     -0.9343         0.027012   
    198. D(H  34,C  24,C  23,H  33)      0.4110         0.025829   
    199. D(H  34,C  24,C  23,C  22)   -179.1155         0.025829   
    200. D(C  25,C  24,C  23,H  33)    179.6697         0.025829   
    201. D(C  25,C  24,C  23,C  22)      0.1432         0.025829   
    202. D(O  26,C  25,C  24,H  34)      1.0934         0.025619   
    203. D(O  26,C  25,C  24,C  23)   -178.1617         0.025619   
    204. D(C  20,C  25,C  24,H  34)   -179.2883         0.025619   
    205. D(C  20,C  25,C  24,C  23)      1.4566         0.025619   
    206. D(O  26,C  25,C  20,C  21)    177.4406         0.022248   
    207. D(O  26,C  25,C  20,C  19)     -1.4610         0.022248   
    208. D(C  24,C  25,C  20,C  21)     -2.2075         0.022248   
    209. D(C  24,C  25,C  20,C  19)    178.8909         0.022248   
    210. D(C  27,O  26,C  25,C  24)    -10.3982         0.032023   
    211. D(C  27,O  26,C  25,C  20)    169.9655         0.032023   
    212. D(H  37,C  27,O  26,C  25)    -56.0214         0.021901   
    213. D(H  36,C  27,O  26,C  25)     66.2195         0.021901   
    214. D(H  35,C  27,O  26,C  25)   -174.7860         0.021901   
    215. D(O  38,N  28,C  18,C  41)    -14.4321         0.021904   
    216. D(O  38,N  28,C  18,C  19)   -162.1999         0.021904   
    217. D(O  29,N  28,C  18,C  41)    171.4493         0.021904   
    218. D(O  29,N  28,C  18,C  19)     23.6815         0.021904   
    219. D(F  44,C  41,C  18,N  28)    -55.0915         0.012820   
    220. D(F  44,C  41,C  18,C  19)     90.7883         0.012820   
    221. D(F  43,C  41,C  18,N  28)   -174.7235         0.012820   
    222. D(F  43,C  41,C  18,C  19)    -28.8436         0.012820   
    223. D(F  42,C  41,C  18,N  28)     66.7061         0.012820   
    224. D(F  42,C  41,C  18,C  19)   -147.4140         0.012820   
    -----------------------------------------------------------------

Number of atoms                         .... 45
Number of degrees of freedom            .... 224

         *************************************************************
         *                GEOMETRY OPTIMIZATION CYCLE   1            *
         *************************************************************
---------------------------------
CARTESIAN COORDINATES (ANGSTROEM)
---------------------------------
  C      4.059164    1.422690    0.497681
  C      3.937469    0.654474    1.684225
  C      2.979936   -0.316299    1.735669
  N      2.202517   -0.594435    0.651990
  C      2.264357    0.150503   -0.511401
  C      3.268472    1.154883   -0.590827
  C      0.956951   -1.320035    0.800574
  C      0.928514   -2.467621   -0.203807
  O      1.072779   -2.361805   -1.396144
  O      0.776930   -3.627193    0.420849
  C      0.747270   -4.794758   -0.398982
  H      4.819908    2.205008    0.437024
  H      2.786640   -0.923714    2.621453
  H      1.944172   -0.370286   -1.413062
  H      3.381928    1.697571   -1.529866
  H      0.921097   -1.766394    1.800832
  H     -0.090672   -4.738976   -1.108462
  H      0.614660   -5.640455    0.283713
  C      0.271087    0.860580   -0.303166
  C     -0.135326   -0.187170    0.701497
  C     -1.588052   -0.603364    0.668590
  C     -2.050180   -1.903224    0.474126
  C     -3.415550   -2.200046    0.453577
  C     -4.342636   -1.178997    0.627983
  C     -3.912713    0.131681    0.841885
  C     -2.545782    0.417374    0.877599
  O     -2.044538    1.644180    1.113371
  C     -2.902544    2.759486    1.123093
  N      0.592081    2.127538    0.218279
  O      0.955412    2.223208    1.387428
  H      0.009430    0.341916    1.656689
  H     -1.347542   -2.725451    0.349416
  H     -3.743722   -3.230129    0.299325
  H     -5.413808   -1.394729    0.606915
  H     -4.645287    0.925356    0.992326
  H     -2.259106    3.640364    1.238898
  H     -3.615335    2.717828    1.963044
  H     -3.461760    2.839266    0.176428
  O      0.604198    3.090809   -0.546261
  H      1.689682   -4.893861   -0.955182
  H      4.572572    0.836584    2.550820
  C     -0.347186    0.914693   -1.669348
  F      0.505729    1.353697   -2.609452
  F     -0.729346   -0.309119   -2.052167
  F     -1.439316    1.694279   -1.752344

----------------------------
CARTESIAN COORDINATES (A.U.)
----------------------------
  NO LB      ZA    FRAG     MASS         X           Y           Z
   0 C     6.0000    0    12.011    7.670708    2.688494    0.940481
   1 C     6.0000    0    12.011    7.440738    1.236777    3.182724
   2 C     6.0000    0    12.011    5.631263   -0.597718    3.279939
   3 N     7.0000    0    14.007    4.162154   -1.123319    1.232083
   4 C     6.0000    0    12.011    4.279015    0.284409   -0.966408
   5 C     6.0000    0    12.011    6.176517    2.182413   -1.116501
   6 C     6.0000    0    12.011    1.808375   -2.494505    1.512866
   7 C     6.0000    0    12.011    1.754637   -4.663128   -0.385139
   8 O     8.0000    0    15.999    2.027259   -4.463165   -2.638330
   9 O     8.0000    0    15.999    1.468185   -6.854401    0.795289
  10 C     6.0000    0    12.011    1.412136   -9.060779   -0.753967
  11 H     1.0000    0     1.008    9.108306    4.166861    0.825856
  12 H     1.0000    0     1.008    5.265986   -1.745566    4.953828
  13 H     1.0000    0     1.008    3.673953   -0.699739   -2.670300
  14 H     1.0000    0     1.008    6.390918    3.207944   -2.891028
  15 H     1.0000    0     1.008    1.740621   -3.338001    3.403079
  16 H     1.0000    0     1.008   -0.171345   -8.955367   -2.094690
  17 H     1.0000    0     1.008    1.161539  -10.658915    0.536140
  18 C     6.0000    0    12.011    0.512280    1.626261   -0.572901
  19 C     6.0000    0    12.011   -0.255729   -0.353700    1.325637
  20 C     6.0000    0    12.011   -3.000983   -1.140193    1.263452
  21 C     6.0000    0    12.011   -3.874279   -3.596572    0.895968
  22 C     6.0000    0    12.011   -6.454454   -4.157484    0.857136
  23 C     6.0000    0    12.011   -8.206393   -2.227981    1.186716
  24 C     6.0000    0    12.011   -7.393956    0.248841    1.590932
  25 C     6.0000    0    12.011   -4.810831    0.788723    1.658422
  26 O     8.0000    0    15.999   -3.863617    3.107050    2.103966
  27 C     6.0000    0    12.011   -5.485013    5.214673    2.122338
  28 N     7.0000    0    14.007    1.118871    4.020464    0.412488
  29 O     8.0000    0    15.999    1.805467    4.201254    2.621859
  30 H     1.0000    0     1.008    0.017820    0.646128    3.130688
  31 H     1.0000    0     1.008   -2.546485   -5.150356    0.660301
  32 H     1.0000    0     1.008   -7.074609   -6.104059    0.565642
  33 H     1.0000    0     1.008  -10.230614   -2.635656    1.146903
  34 H     1.0000    0     1.008   -8.778320    1.748669    1.875224
  35 H     1.0000    0     1.008   -4.269092    6.879291    2.341178
  36 H     1.0000    0     1.008   -6.831993    5.135951    3.709616
  37 H     1.0000    0     1.008   -6.541778    5.365435    0.333401
  38 O     8.0000    0    15.999    1.141769    5.840783   -1.032284
  39 H     1.0000    0     1.008    3.193036   -9.248057   -1.805032
  40 H     1.0000    0     1.008    8.640909    1.580915    4.820351
  41 C     6.0000    0    12.011   -0.656086    1.728519   -3.154611
  42 F     9.0000    0    18.998    0.955689    2.558117   -4.931150
  43 F     9.0000    0    18.998   -1.378264   -0.584150   -3.878034
  44 F     9.0000    0    18.998   -2.719913    3.201723   -3.311450

--------------------------------
INTERNAL COORDINATES (ANGSTROEM)
--------------------------------
 C      0   0   0     0.000000000000     0.00000000     0.00000000
 C      1   0   0     1.418750210438     0.00000000     0.00000000
 C      2   1   0     1.364520483083   118.48628434     0.00000000
 N      3   2   1     1.362387650817   121.04329009     3.42420292
 C      4   3   2     1.382836009195   122.25593426   354.80429020
 C      1   2   3     1.371774068197   120.56262123   357.28578305
 C      4   3   2     1.449140167621   120.73931710   198.17457691
 C      7   4   3     1.525301112412   108.97932690   230.06134352
 O      8   7   4     1.205685256462   125.65679853   304.73305886
 O      8   7   4     1.325812977224   110.48229947   122.09719975
 C     10   8   7     1.426958518453   116.57130860   180.64255592
 H      1   2   3     1.092900799848   119.58542353   179.99028036
 H      3   2   1     1.091297219137   123.42757491   182.79719508
 H      5   4   3     1.089372376952   115.19263021   155.53089316
 H      6   1   2     1.090493820616   121.74719817   183.30829559
 H      7   4   3     1.095918761935   109.00424197   346.62750029
 H     11  10   8     1.099372683528   110.18786685   299.68049635
 H     11  10   8     1.094925244450   106.03760124   180.15026456
 C      5   4   3     2.126192948454    93.18664495   244.82309052
 C     19   5   4     1.507414784536    94.92777079   343.13525353
 C     20  19   5     1.511526760385   115.84862161   210.88600463
 C     21  20  19     1.393202984235   125.36167022   122.33685456
 C     22  21  20     1.397412178988   121.62286750   180.21350338
 C     23  22  21     1.390124801819   119.58783863     0.12998531
 C     24  23  22     1.395874160237   120.23133321   359.06569069
 C     25  24  23     1.396923884400   119.82375603     0.14322472
 O     26  25  24     1.346063499675   123.72840641   181.83829747
 C     27  26  25     1.407187367395   119.76988528   349.60176996
 N     19   5   4     1.407169005424    97.07275720   100.26814387
 O     29  19   5     1.228035646332   119.36863766   284.63364921
 H     20  19   5     1.101489015740   102.04405679    96.14015284
 H     22  21  20     1.088719423301   120.43360845     1.24693266
 H     23  22  21     1.092044654754   119.73930720   180.03418740
 H     24  23  22     1.092883163944   120.41453877   179.54425646
 H     25  24  23     1.090512340866   119.84246800   180.88446134
 H     28  27  26     1.096981909036   106.23222084   185.21403955
 H     28  27  26     1.102417380599   111.68777744    66.21945397
 H     28  27  26     1.102389225855   111.14492939   303.97856639
 O     29  19   5     1.229861477049   118.49494909    98.75229313
 H     11  10   8     1.098781244085   110.29148905    60.52221494
 H      2   1   3     1.089727840671   121.64156971   181.24846280
 C     19   5   4     1.500547558867   108.00789534   217.84891778
 F     42  19   5     1.343124729896   112.79281565   320.29060319
 F     42  19   5     1.338025584100   110.19318221    78.86092562
 F     42  19   5     1.344392280665   114.32025274   198.49290439

---------------------------
INTERNAL COORDINATES (A.U.)
---------------------------
 C      0   0   0     0.000000000000     0.00000000     0.00000000
 C      1   0   0     2.681049350170     0.00000000     0.00000000
 C      2   1   0     2.578570017153   118.48628434     0.00000000
 N      3   2   1     2.574539548280   121.04329009     3.42420292
 C      4   3   2     2.613181345502   122.25593426   354.80429020
 C      1   2   3     2.592277306507   120.56262123   357.28578305
 C      4   3   2     2.738478046468   120.73931710   198.17457691
 C      7   4   3     2.882401374225   108.97932690   230.06134352
 O      8   7   4     2.278414938420   125.65679853   304.73305886
 O      8   7   4     2.505423431752   110.48229947   122.09719975
 C     10   8   7     2.696560804342   116.57130860   180.64255592
 H      1   2   3     2.065283203257   119.58542353   179.99028036
 H      3   2   1     2.062252874880   123.42757491   182.79719508
 H      5   4   3     2.058615450299   115.19263021   155.53089316
 H      6   1   2     2.060734671697   121.74719817   183.30829559
 H      7   4   3     2.070986325083   109.00424197   346.62750029
 H     11  10   8     2.077513290982   110.18786685   299.68049635
 H     11  10   8     2.069108849127   106.03760124   180.15026456
 C      5   4   3     4.017922380452    93.18664495   244.82309052
 C     19   5   4     2.848601112997    94.92777079   343.13525353
 C     20  19   5     2.856371621222   115.84862161   210.88600463
 C     21  20  19     2.632772089165   125.36167022   122.33685456
 C     22  21  20     2.640726314494   121.62286750   180.21350338
 C     23  22  21     2.626955167410   119.58783863     0.12998531
 C     24  23  22     2.637819880265   120.23133321   359.06569069
 C     25  24  23     2.639803571449   119.82375603     0.14322472
 O     26  25  24     2.543691373252   123.72840641   181.83829747
 C     27  26  25     2.659198743490   119.76988528   349.60176996
 N     19   5   4     2.659164044393    97.07275720   100.26814387
 O     29  19   5     2.320651054260   119.36863766   284.63364921
 H     20  19   5     2.081512579271   102.04405679    96.14015284
 H     22  21  20     2.057381546720   120.43360845     1.24693266
 H     23  22  21     2.063665323498   119.73930720   180.03418740
 H     24  23  22     2.065249876227   120.41453877   179.54425646
 H     25  24  23     2.060769669899   119.84246800   180.88446134
 H     28  27  26     2.072995381945   106.23222084   185.21403955
 H     28  27  26     2.083266934606   111.68777744    66.21945397
 H     28  27  26     2.083213729851   111.14492939   303.97856639
 O     29  19   5     2.324101374283   118.49494909    98.75229313
 H     11  10   8     2.076395632410   110.29148905    60.52221494
 H      2   1   3     2.059287179378   121.64156971   181.24846280
 C     19   5   4     2.835623937183   108.00789534   217.84891778
 F     42  19   5     2.538137903200   112.79281565   320.29060319
 F     42  19   5     2.528501914128   110.19318221    78.86092562
 F     42  19   5     2.540533227015   114.32025274   198.49290439

---------------------
BASIS SET INFORMATION
---------------------
There are 5 groups of distinct atoms

 Group   1 Type C   : 11s6p2d1f contracted to 5s3p2d1f pattern {62111/411/11/1}
 Group   2 Type N   : 11s6p2d1f contracted to 5s3p2d1f pattern {62111/411/11/1}
 Group   3 Type O   : 11s6p2d1f contracted to 5s3p2d1f pattern {62111/411/11/1}
 Group   4 Type H   : 5s1p contracted to 3s1p pattern {311/1}
 Group   5 Type F   : 11s6p2d1f contracted to 5s3p2d1f pattern {62111/411/11/1}

Atom   0C    basis set group =>   1
Atom   1C    basis set group =>   1
Atom   2C    basis set group =>   1
Atom   3N    basis set group =>   2
Atom   4C    basis set group =>   1
Atom   5C    basis set group =>   1
Atom   6C    basis set group =>   1
Atom   7C    basis set group =>   1
Atom   8O    basis set group =>   3
Atom   9O    basis set group =>   3
Atom  10C    basis set group =>   1
Atom  11H    basis set group =>   4
Atom  12H    basis set group =>   4
Atom  13H    basis set group =>   4
Atom  14H    basis set group =>   4
Atom  15H    basis set group =>   4
Atom  16H    basis set group =>   4
Atom  17H    basis set group =>   4
Atom  18C    basis set group =>   1
Atom  19C    basis set group =>   1
Atom  20C    basis set group =>   1
Atom  21C    basis set group =>   1
Atom  22C    basis set group =>   1
Atom  23C    basis set group =>   1
Atom  24C    basis set group =>   1
Atom  25C    basis set group =>   1
Atom  26O    basis set group =>   3
Atom  27C    basis set group =>   1
Atom  28N    basis set group =>   2
Atom  29O    basis set group =>   3
Atom  30H    basis set group =>   4
Atom  31H    basis set group =>   4
Atom  32H    basis set group =>   4
Atom  33H    basis set group =>   4
Atom  34H    basis set group =>   4
Atom  35H    basis set group =>   4
Atom  36H    basis set group =>   4
Atom  37H    basis set group =>   4
Atom  38O    basis set group =>   3
Atom  39H    basis set group =>   4
Atom  40H    basis set group =>   4
Atom  41C    basis set group =>   1
Atom  42F    basis set group =>   5
Atom  43F    basis set group =>   5
Atom  44F    basis set group =>   5
---------------------------------
AUXILIARY/J BASIS SET INFORMATION
---------------------------------
There are 5 groups of distinct atoms

 Group   1 Type C   : 12s5p4d2f1g contracted to 6s4p3d1f1g pattern {711111/2111/211/2/1}
 Group   2 Type N   : 12s5p4d2f1g contracted to 6s4p3d1f1g pattern {711111/2111/211/2/1}
 Group   3 Type O   : 12s5p4d2f1g contracted to 6s4p3d1f1g pattern {711111/2111/211/2/1}
 Group   4 Type H   : 5s2p1d contracted to 3s1p1d pattern {311/2/1}
 Group   5 Type F   : 12s5p4d2f1g contracted to 6s4p3d1f1g pattern {711111/2111/211/2/1}

Atom   0C    basis set group =>   1
Atom   1C    basis set group =>   1
Atom   2C    basis set group =>   1
Atom   3N    basis set group =>   2
Atom   4C    basis set group =>   1
Atom   5C    basis set group =>   1
Atom   6C    basis set group =>   1
Atom   7C    basis set group =>   1
Atom   8O    basis set group =>   3
Atom   9O    basis set group =>   3
Atom  10C    basis set group =>   1
Atom  11H    basis set group =>   4
Atom  12H    basis set group =>   4
Atom  13H    basis set group =>   4
Atom  14H    basis set group =>   4
Atom  15H    basis set group =>   4
Atom  16H    basis set group =>   4
Atom  17H    basis set group =>   4
Atom  18C    basis set group =>   1
Atom  19C    basis set group =>   1
Atom  20C    basis set group =>   1
Atom  21C    basis set group =>   1
Atom  22C    basis set group =>   1
Atom  23C    basis set group =>   1
Atom  24C    basis set group =>   1
Atom  25C    basis set group =>   1
Atom  26O    basis set group =>   3
Atom  27C    basis set group =>   1
Atom  28N    basis set group =>   2
Atom  29O    basis set group =>   3
Atom  30H    basis set group =>   4
Atom  31H    basis set group =>   4
Atom  32H    basis set group =>   4
Atom  33H    basis set group =>   4
Atom  34H    basis set group =>   4
Atom  35H    basis set group =>   4
Atom  36H    basis set group =>   4
Atom  37H    basis set group =>   4
Atom  38O    basis set group =>   3
Atom  39H    basis set group =>   4
Atom  40H    basis set group =>   4
Atom  41C    basis set group =>   1
Atom  42F    basis set group =>   5
Atom  43F    basis set group =>   5
Atom  44F    basis set group =>   5


           ************************************************************
           *        Program running with 24 parallel MPI-processes    *
           *              working on a common directory               *
           ************************************************************
------------------------------------------------------------------------------
                           ORCA GTO INTEGRAL CALCULATION
                           -- RI-GTO INTEGRALS CHOSEN --
------------------------------------------------------------------------------
------------------------------------------------------------------------------
                   ___                                                        
                  /   \      - P O W E R E D   B Y -                         
                 /     \                                                     
                 |  |  |   _    _      __       _____    __    __             
                 |  |  |  | |  | |    /  \     |  _  \  |  |  /  |          
                  \  \/   | |  | |   /    \    | | | |  |  | /  /          
                 / \  \   | |__| |  /  /\  \   | |_| |  |  |/  /          
                |  |  |   |  __  | /  /__\  \  |    /   |      \           
                |  |  |   | |  | | |   __   |  |    \   |  |\   \          
                \     /   | |  | | |  |  |  |  | |\  \  |  | \   \       
                 \___/    |_|  |_| |__|  |__|  |_| \__\ |__|  \__/        
                                                                              
                      - O R C A' S   B I G   F R I E N D -                    
                                      &                                       
                       - I N T E G R A L  F E E D E R -                       
                                                                              
 v1 FN, 2020, v2 2021                                                         
------------------------------------------------------------------------------


Reading SHARK input file TS1_CF3/TS1_CF3.SHARKINP.tmp ... ok
----------------------
SHARK INTEGRAL PACKAGE
----------------------

Number of atoms                             ...     45
Number of basis functions                   ...    970
Number of shells                            ...    376
Maximum angular momentum                    ...      3
Integral batch strategy                     ... SHARK/LIBINT Hybrid
RI-J (if used) integral strategy            ... SPLIT-RIJ (Revised 2003 algorithm where possible)
Printlevel                                  ...      1
Contraction scheme used                     ... SEGMENTED contraction
Coulomb Range Separation                    ... NOT USED
Exchange Range Separation                   ... NOT USED
Finite Nucleus Model                        ... NOT USED
Auxiliary Coulomb fitting basis             ... AVAILABLE
   # of basis functions in Aux-J            ...   1559
   # of shells in Aux-J                     ...    505
   Maximum angular momentum in Aux-J        ...      4
Auxiliary J/K fitting basis                 ... NOT available
Auxiliary Correlation fitting basis         ... NOT available
Auxiliary 'external' fitting basis          ... NOT available
Integral threshold                          ...     2.500000e-11
Primitive cut-off                           ...     2.500000e-12
Primitive pair pre-selection threshold      ...     2.500000e-12

Calculating pre-screening integrals         ... done (  0.1 sec) Dimension = 376
Organizing shell pair data                  ... done (  0.7 sec)
Shell pair information
Total number of shell pairs                 ...     70876
Shell pairs after pre-screening             ...     50426
Total number of primitive shell pairs       ...    220120
Primitive shell pairs kept                  ...    101508
          la=0 lb=0:  12414 shell pairs
          la=1 lb=0:  14354 shell pairs
          la=1 lb=1:   4176 shell pairs
          la=2 lb=0:   7253 shell pairs
          la=2 lb=1:   4332 shell pairs
          la=2 lb=2:   1139 shell pairs
          la=3 lb=0:   3386 shell pairs
          la=3 lb=1:   2071 shell pairs
          la=3 lb=2:   1045 shell pairs
          la=3 lb=3:    256 shell pairs

Calculating one electron integrals          ... done (  0.1 sec)
Calculating RI/J V-Matrix + Cholesky decomp.... done (  0.3 sec)
Calculating Nuclear repulsion               ... done (  0.0 sec) ENN=   3050.487553244061 Eh

SHARK setup successfully completed in   2.8 seconds

Maximum memory used throughout the entire GTOINT-calculation: 76.5 MB


           ************************************************************
           *        Program running with 24 parallel MPI-processes    *
           *              working on a common directory               *
           ************************************************************
-------------------------------------------------------------------------------
                                 ORCA SCF
-------------------------------------------------------------------------------

------------
SCF SETTINGS
------------
Hamiltonian:
 Density Functional     Method          .... DFT(GTOs)
 Exchange Functional    Exchange        .... PBE
   PBE kappa parameter   XKappa         ....  0.804000
   PBE mue parameter    XMuePBE         ....  0.219520
 Correlation Functional Correlation     .... PBE
   PBE beta parameter  CBetaPBE         ....  0.066725
 LDA part of GGA corr.  LDAOpt          .... PW91-LDA
 Gradients option       PostSCFGGA      .... off
 Hybrid DFT is turned on
   Fraction HF Exchange ScalHFX         ....  0.250000
   Scaling of DF-GGA-X  ScalDFX         ....  0.750000
   Scaling of DF-GGA-C  ScalDFC         ....  1.000000
   Scaling of DF-LDA-C  ScalLDAC        ....  1.000000
   Perturbative correction              ....  0.000000
   Density functional embedding theory  .... OFF
   NL short-range parameter             ....  6.900000
 RI-approximation to the Coulomb term is turned on
   Number of AuxJ basis functions       .... 1559
   RIJ-COSX (HFX calculated with COS-X)).... on


General Settings:
 Integral files         IntName         .... TS1_CF3/TS1_CF3
 Hartree-Fock type      HFTyp           .... RHF
 Total Charge           Charge          ....    0
 Multiplicity           Mult            ....    1
 Number of Electrons    NEL             ....  206
 Basis Dimension        Dim             ....  970
 Nuclear Repulsion      ENuc            ....   3050.4875532441 Eh

Convergence Acceleration:
 DIIS                   CNVDIIS         .... on
   Start iteration      DIISMaxIt       ....    12
   Startup error        DIISStart       ....  0.200000
   # of expansion vecs  DIISMaxEq       ....     5
   Bias factor          DIISBfac        ....   1.050
   Max. coefficient     DIISMaxC        ....  10.000
 Trust-Rad. Augm. Hess. CNVTRAH         .... auto
   Auto Start mean grad. ratio tolernc. ....  1.125000
   Auto Start start iteration           ....    20
   Auto Start num. interpolation iter.  ....    10
   Max. Number of Micro iterations      ....    16
   Max. Number of Macro iterations      .... Maxiter - #DIIS iter
   Number of Davidson start vectors     ....     2
   Converg. threshold I  (grad. norm)   ....   1.000e-05
   Converg. threshold II (energy diff.) ....   1.000e-08
   Grad. Scal. Fac. for Micro threshold ....   0.100
   Minimum threshold for Micro iter.    ....   0.010
   NR start threshold (gradient norm)   ....   0.001
   Initial trust radius                 ....   0.400
   Minimum AH scaling param. (alpha)    ....   1.000
   Maximum AH scaling param. (alpha)    .... 1000.000
   Orbital update algorithm             .... Taylor
   White noise on init. David. guess    .... on
   Maximum white noise                  ....   0.010
   Quad. conv. algorithm                .... NR
 SOSCF                  CNVSOSCF        .... on
   Start iteration      SOSCFMaxIt      ....   150
   Startup grad/error   SOSCFStart      ....  0.003300
 Level Shifting         CNVShift        .... on
   Level shift para.    LevelShift      ....    0.2500
   Turn off err/grad.   ShiftErr        ....    0.0010
 Zerner damping         CNVZerner       .... off
 Static damping         CNVDamp         .... on
   Fraction old density DampFac         ....    0.7000
   Max. Damping (<1)    DampMax         ....    0.9800
   Min. Damping (>=0)   DampMin         ....    0.0000
   Turn off err/grad.   DampErr         ....    0.1000
 Fernandez-Rico         CNVRico         .... off

SCF Procedure:
 Maximum # iterations   MaxIter         ....   800
 SCF integral mode      SCFMode         .... Direct
   Integral package                     .... SHARK and LIBINT hybrid scheme
 Reset frequency        DirectResetFreq ....    20
 Integral Threshold     Thresh          ....  2.500e-11 Eh
 Primitive CutOff       TCut            ....  2.500e-12 Eh

Convergence Tolerance:
 Convergence Check Mode ConvCheckMode   .... Total+1el-Energy
 Convergence forced     ConvForced      .... 0
 Energy Change          TolE            ....  1.000e-08 Eh
 1-El. energy change                    ....  1.000e-05 Eh
 Orbital Gradient       TolG            ....  1.000e-05
 Orbital Rotation angle TolX            ....  1.000e-05
 DIIS Error             TolErr          ....  5.000e-07


Diagonalization of the overlap matrix:
Smallest eigenvalue                        ... 5.047e-06
Time for diagonalization                   ...    0.307 sec
Threshold for overlap eigenvalues          ... 1.000e-08
Number of eigenvalues below threshold      ... 0
Time for construction of square roots      ...    0.170 sec
Total time needed                          ...    0.484 sec

Time for model grid setup =    0.391 sec

------------------------------
INITIAL GUESS: MODEL POTENTIAL
------------------------------
Loading Hartree-Fock densities                     ... done
Calculating cut-offs                               ... done
Initializing the effective Hamiltonian             ... done
Setting up the integral package (SHARK)            ... done
Starting the Coulomb interaction                   ... done (   0.5 sec)
Reading the grid                                   ... done
Mapping shells                                     ... done
Starting the XC term evaluation                    ... done (   0.3 sec)
  promolecular density results
     # of electrons  =    205.992664089
     EX              =   -181.030839558
     EC              =     -7.050659893
     EX+EC           =   -188.081499451
Transforming the Hamiltonian                       ... done (   0.2 sec)
Diagonalizing the Hamiltonian                      ... done (   0.3 sec)
Back transforming the eigenvectors                 ... done (   0.1 sec)
Now organizing SCF variables                       ... done
                      ------------------
                      INITIAL GUESS DONE (   2.0 sec)
                      ------------------
-------------------
DFT GRID GENERATION
-------------------

General Integration Accuracy     IntAcc      ... 4.388
Radial Grid Type                 RadialGrid  ... OptM3 with GC (2021)
Angular Grid (max. ang.)         AngularGrid ... 4 (Lebedev-302)
Angular grid pruning method      GridPruning ... 4 (adaptive)
Weight generation scheme         WeightScheme... Becke
Basis function cutoff            BFCut       ... 1.0000e-11
Integration weight cutoff        WCut        ... 1.0000e-14
Angular grids for H and He will be reduced by one unit
Partially contracted basis set               ... off
Rotationally invariant grid construction     ... off

Total number of grid points                  ...   220831
Total number of batches                      ...     3476
Average number of points per batch           ...       63
Average number of grid points per atom       ...     4907
Time for grid setup =    1.576 sec

--------------------
COSX GRID GENERATION
--------------------

GRIDX 1
-------
General Integration Accuracy     IntAcc      ... 3.816
Radial Grid Type                 RadialGrid  ... OptM3 with GC (2021)
Angular Grid (max. ang.)         AngularGrid ... 1 (Lebedev-50)
Angular grid pruning method      GridPruning ... 4 (adaptive)
Weight generation scheme         WeightScheme... Becke
Basis function cutoff            BFCut       ... 1.0000e-11
Integration weight cutoff        WCut        ... 1.0000e-14
Angular grids for H and He will be reduced by one unit
Partially contracted basis set               ... on
Rotationally invariant grid construction     ... off

Total number of grid points                  ...    27945
Total number of batches                      ...      462
Average number of points per batch           ...       60
Average number of grid points per atom       ...      621
UseSFitting                                  ... on

GRIDX 2
-------
General Integration Accuracy     IntAcc      ... 4.020
Radial Grid Type                 RadialGrid  ... OptM3 with GC (2021)
Angular Grid (max. ang.)         AngularGrid ... 2 (Lebedev-110)
Angular grid pruning method      GridPruning ... 4 (adaptive)
Weight generation scheme         WeightScheme... Becke
Basis function cutoff            BFCut       ... 1.0000e-11
Integration weight cutoff        WCut        ... 1.0000e-14
Angular grids for H and He will be reduced by one unit
Partially contracted basis set               ... on
Rotationally invariant grid construction     ... off

Total number of grid points                  ...    61125
Total number of batches                      ...      976
Average number of points per batch           ...       62
Average number of grid points per atom       ...     1358
UseSFitting                                  ... on

GRIDX 3
-------
General Integration Accuracy     IntAcc      ... 4.338
Radial Grid Type                 RadialGrid  ... OptM3 with GC (2021)
Angular Grid (max. ang.)         AngularGrid ... 3 (Lebedev-194)
Angular grid pruning method      GridPruning ... 4 (adaptive)
Weight generation scheme         WeightScheme... Becke
Basis function cutoff            BFCut       ... 1.0000e-11
Integration weight cutoff        WCut        ... 1.0000e-14
Angular grids for H and He will be reduced by one unit
Partially contracted basis set               ... on
Rotationally invariant grid construction     ... off

Total number of grid points                  ...   133691
Total number of batches                      ...     2113
Average number of points per batch           ...       63
Average number of grid points per atom       ...     2971
UseSFitting                                  ... on

Time for X-Grid setup             =    2.951 sec


--------------------
CPCM SOLVATION MODEL
--------------------
CPCM parameters:
  Epsilon                                         ...      47.2000
  Refrac                                          ...       1.4790
  Rsolv                                           ...       1.3000
  Surface type                                    ... GAUSSIAN VDW
  Epsilon function type                           ...         CPCM
Radii:
 Radius for C  used is    3.8550 Bohr (=   2.0400 Ang.)
 Radius for N  used is    3.5149 Bohr (=   1.8600 Ang.)
 Radius for O  used is    3.4469 Bohr (=   1.8240 Ang.)
 Radius for H  used is    2.4944 Bohr (=   1.3200 Ang.)
 Radius for F  used is    3.3335 Bohr (=   1.7640 Ang.)
Calculating surface                               ...        done! (  0.0s)
GEPOL surface points                              ...         2198
GEPOL Volume                                      ...    2772.0658
GEPOL Surface-area                                ...    1308.4829
Calculating surface distance matrix               ...        done! (  0.1s)
Performing Cholesky decomposition & store         ...        done! (  0.4s)
Overall time for CPCM initialization              ...                 0.5s
--------------
SCF ITERATIONS
--------------
ITER       Energy         Delta-E        Max-DP      RMS-DP      [F,P]     Damp
               ***  Starting incremental Fock matrix formation  ***
  0  -1479.5764825231   0.000000000000 0.08764366  0.00058531  0.2736571 0.7000
  1  -1479.8386328419  -0.262150318772 0.07175633  0.00045877  0.1117121 0.7000
                               ***Turning on DIIS***
  2  -1479.9402236414  -0.101590799582 0.10215363  0.00089703  0.0363697 0.0000
  3  -1480.1145620924  -0.174338450987 0.07465607  0.00034284  0.0505580 0.0000
  4  -1480.1431560835  -0.028593991066 0.02580624  0.00016785  0.0197124 0.0000
  5  -1480.1453837846  -0.002227701106 0.01217437  0.00004757  0.0047426 0.0000
                      *** Initiating the SOSCF procedure ***
                           *** Shutting down DIIS ***
                      *** Re-Reading the Fockian *** 
                      *** Removing any level shift *** 
ITER      Energy       Delta-E        Grad      Rot      Max-DP    RMS-DP
  6  -1480.14551326  -0.0001294729  0.000247  0.000247  0.003631  0.000017
               *** Restarting incremental Fock matrix formation ***
  7  -1480.14552227  -0.0000090076  0.000119  0.000460  0.002027  0.000022
  8  -1480.14552164   0.0000006205  0.000262  0.000267  0.001535  0.000006
  9  -1480.14552492  -0.0000032795  0.000026  0.000134  0.000376  0.000004
 10  -1480.14552486   0.0000000601  0.000042  0.000059  0.000125  0.000001
 11  -1480.14552493  -0.0000000706  0.000009  0.000025  0.000277  0.000001
 12  -1480.14552495  -0.0000000177  0.000010  0.000019  0.000111  0.000001
                  ***Gradient check signals convergence***
              ***Rediagonalizing the Fockian in SOSCF/NRSCF***

               *****************************************************
               *                     SUCCESS                       *
               *           SCF CONVERGED AFTER  13 CYCLES          *
               *****************************************************

Old exchange energy                            =    -45.974397642 Eh
New exchange energy                            =    -45.974405591 Eh
Exchange energy change after final integration =     -0.000007949 Eh
Total energy after final integration           =  -1480.145532910 Eh
Final COS-X integration done in                =    21.993 sec

----------------
TOTAL SCF ENERGY
----------------

Total Energy       :        -1480.14553291 Eh          -40276.80758 eV

Components:
Nuclear Repulsion  :         3050.48755324 Eh           83007.98637 eV
Electronic Energy  :        -4530.63308615 Eh         -123284.79395 eV
One Electron Energy:        -8101.40610046 Eh         -220450.46748 eV
Two Electron Energy:         3570.77301430 Eh           97165.67353 eV
Max COSX asymmetry :            0.00000427 Eh               0.00012 eV
CPCM Dielectric    :           -0.03885478 Eh              -1.05729 eV

Virial components:
Potential Energy   :        -2953.87606403 Eh          -80379.05409 eV
Kinetic Energy     :         1473.73053112 Eh           40102.24651 eV
Virial Ratio       :            2.00435290


DFT components:
N(Alpha)           :      103.000029195407 electrons
N(Beta)            :      103.000029195407 electrons
N(Total)           :      206.000058390815 electrons
E(X)               :     -137.756007456805 Eh       
E(C)               :       -7.035839339708 Eh       
E(XC)              :     -144.791846796512 Eh       
DFET-embed. en.    :        0.000000000000 Eh       
CPCM Solvation Model Properties:
Surface-charge          :           -0.02808187
Charge-correction       :           -0.00018644 Eh              -0.00507 eV
Free-energy (cav+disp)  :  This term is not implemented in the current solvation scheme

---------------
SCF CONVERGENCE
---------------

  Last Energy change         ...   -8.5743e-09  Tolerance :   1.0000e-08
  Last MAX-Density change    ...    1.9984e-15  Tolerance :   1.0000e-07
  Last RMS-Density change    ...    1.3547e-17  Tolerance :   5.0000e-09
  Last Orbital Gradient      ...    1.5686e-06  Tolerance :   1.0000e-05
  Last Orbital Rotation      ...    3.9162e-06  Tolerance :   1.0000e-05

             **** THE GBW FILE WAS UPDATED (TS1_CF3/TS1_CF3.gbw) ****
             **** DENSITY TS1_CF3/TS1_CF3.scfp WAS UPDATED ****
             **** ENERGY FILE WAS UPDATED (TS1_CF3/TS1_CF3.en.tmp) ****
             **** THE GBW FILE WAS UPDATED (TS1_CF3/TS1_CF3.gbw) ****
             **** DENSITY TS1_CF3/TS1_CF3.scfp WAS UPDATED ****
----------------
ORBITAL ENERGIES
----------------

  NO   OCC          E(Eh)            E(eV) 
   0   2.0000     -24.804550      -674.9661 
   1   2.0000     -24.800737      -674.8623 
   2   2.0000     -24.799535      -674.8297 
   3   2.0000     -19.274872      -524.4959 
   4   2.0000     -19.245882      -523.7071 
   5   2.0000     -19.218463      -522.9610 
   6   2.0000     -19.216996      -522.9210 
   7   2.0000     -19.215258      -522.8738 
   8   2.0000     -14.602059      -397.3422 
   9   2.0000     -14.476748      -393.9323 
  10   2.0000     -10.475020      -285.0398 
  11   2.0000     -10.373414      -282.2750 
  12   2.0000     -10.307596      -280.4840 
  13   2.0000     -10.306086      -280.4429 
  14   2.0000     -10.293724      -280.1065 
  15   2.0000     -10.292728      -280.0794 
  16   2.0000     -10.282503      -279.8011 
  17   2.0000     -10.277055      -279.6529 
  18   2.0000     -10.270643      -279.4784 
  19   2.0000     -10.268969      -279.4328 
  20   2.0000     -10.259897      -279.1860 
  21   2.0000     -10.248759      -278.8829 
  22   2.0000     -10.247399      -278.8459 
  23   2.0000     -10.241182      -278.6767 
  24   2.0000     -10.234723      -278.5010 
  25   2.0000     -10.232521      -278.4411 
  26   2.0000     -10.229299      -278.3534 
  27   2.0000     -10.225286      -278.2442 
  28   2.0000      -1.353200       -36.8224 
  29   2.0000      -1.262264       -34.3479 
  30   2.0000      -1.257910       -34.2295 
  31   2.0000      -1.250042       -34.0154 
  32   2.0000      -1.165970       -31.7277 
  33   2.0000      -1.112069       -30.2609 
  34   2.0000      -1.074482       -29.2381 
  35   2.0000      -1.067254       -29.0415 
  36   2.0000      -1.051791       -28.6207 
  37   2.0000      -0.903588       -24.5879 
  38   2.0000      -0.879096       -23.9214 
  39   2.0000      -0.869515       -23.6607 
  40   2.0000      -0.820427       -22.3250 
  41   2.0000      -0.816840       -22.2273 
  42   2.0000      -0.793696       -21.5976 
  43   2.0000      -0.777475       -21.1562 
  44   2.0000      -0.756400       -20.5827 
  45   2.0000      -0.738589       -20.0980 
  46   2.0000      -0.721529       -19.6338 
  47   2.0000      -0.706184       -19.2162 
  48   2.0000      -0.690278       -18.7834 
  49   2.0000      -0.666537       -18.1374 
  50   2.0000      -0.646570       -17.5941 
  51   2.0000      -0.629697       -17.1349 
  52   2.0000      -0.618926       -16.8418 
  53   2.0000      -0.618016       -16.8171 
  54   2.0000      -0.614147       -16.7118 
  55   2.0000      -0.603617       -16.4252 
  56   2.0000      -0.578531       -15.7426 
  57   2.0000      -0.566330       -15.4106 
  58   2.0000      -0.561613       -15.2823 
  59   2.0000      -0.554370       -15.0852 
  60   2.0000      -0.551587       -15.0094 
  61   2.0000      -0.536488       -14.5986 
  62   2.0000      -0.525642       -14.3035 
  63   2.0000      -0.524424       -14.2703 
  64   2.0000      -0.518158       -14.0998 
  65   2.0000      -0.509452       -13.8629 
  66   2.0000      -0.504182       -13.7195 
  67   2.0000      -0.501865       -13.6565 
  68   2.0000      -0.494984       -13.4692 
  69   2.0000      -0.491404       -13.3718 
  70   2.0000      -0.488799       -13.3009 
  71   2.0000      -0.485597       -13.2138 
  72   2.0000      -0.475279       -12.9330 
  73   2.0000      -0.468713       -12.7543 
  74   2.0000      -0.463600       -12.6152 
  75   2.0000      -0.454597       -12.3702 
  76   2.0000      -0.450006       -12.2453 
  77   2.0000      -0.446396       -12.1470 
  78   2.0000      -0.446007       -12.1365 
  79   2.0000      -0.435182       -11.8419 
  80   2.0000      -0.430185       -11.7059 
  81   2.0000      -0.426839       -11.6149 
  82   2.0000      -0.419479       -11.4146 
  83   2.0000      -0.408653       -11.1200 
  84   2.0000      -0.405649       -11.0383 
  85   2.0000      -0.399687       -10.8760 
  86   2.0000      -0.389565       -10.6006 
  87   2.0000      -0.387437       -10.5427 
  88   2.0000      -0.383307       -10.4303 
  89   2.0000      -0.378601       -10.3023 
  90   2.0000      -0.367942       -10.0122 
  91   2.0000      -0.348752        -9.4900 
  92   2.0000      -0.340123        -9.2552 
  93   2.0000      -0.338574        -9.2131 
  94   2.0000      -0.334708        -9.1079 
  95   2.0000      -0.326761        -8.8916 
  96   2.0000      -0.321093        -8.7374 
  97   2.0000      -0.314503        -8.5581 
  98   2.0000      -0.310373        -8.4457 
  99   2.0000      -0.295145        -8.0313 
 100   2.0000      -0.270824        -7.3695 
 101   2.0000      -0.240226        -6.5369 
 102   2.0000      -0.224401        -6.1063 
 103   0.0000      -0.068831        -1.8730 
 104   0.0000      -0.047027        -1.2797 
 105   0.0000      -0.018431        -0.5015 
 106   0.0000      -0.015570        -0.4237 
 107   0.0000      -0.002458        -0.0669 
 108   0.0000       0.008761         0.2384 
 109   0.0000       0.048985         1.3330 
 110   0.0000       0.056827         1.5463 
 111   0.0000       0.064253         1.7484 
 112   0.0000       0.069452         1.8899 
 113   0.0000       0.077765         2.1161 
 114   0.0000       0.085522         2.3272 
 115   0.0000       0.092412         2.5147 
 116   0.0000       0.098483         2.6799 
 117   0.0000       0.101720         2.7679 
 118   0.0000       0.107565         2.9270 
 119   0.0000       0.108488         2.9521 
 120   0.0000       0.111173         3.0252 
 121   0.0000       0.113305         3.0832 
 122   0.0000       0.119149         3.2422 
 123   0.0000       0.128760         3.5037 
 124   0.0000       0.133212         3.6249 
 125   0.0000       0.134251         3.6531 
 126   0.0000       0.135964         3.6998 
 127   0.0000       0.138596         3.7714 
 128   0.0000       0.143793         3.9128 
 129   0.0000       0.149474         4.0674 
 130   0.0000       0.153102         4.1661 
 131   0.0000       0.156213         4.2508 
 132   0.0000       0.162267         4.4155 
 133   0.0000       0.166153         4.5213 
 134   0.0000       0.169834         4.6214 
 135   0.0000       0.172878         4.7043 
 136   0.0000       0.176264         4.7964 
 137   0.0000       0.187963         5.1147 
 138   0.0000       0.196714         5.3529 
 139   0.0000       0.201671         5.4877 
 140   0.0000       0.203836         5.5467 
 141   0.0000       0.212924         5.7939 
 142   0.0000       0.214512         5.8372 
 143   0.0000       0.219019         5.9598 
 144   0.0000       0.222175         6.0457 
 145   0.0000       0.226107         6.1527 
 146   0.0000       0.228507         6.2180 
 147   0.0000       0.232595         6.3292 
 148   0.0000       0.235411         6.4058 
 149   0.0000       0.239132         6.5071 
 150   0.0000       0.244897         6.6640 
 151   0.0000       0.245192         6.6720 
 152   0.0000       0.249218         6.7816 
 153   0.0000       0.251350         6.8396 
 154   0.0000       0.258481         7.0336 
 155   0.0000       0.263457         7.1690 
 156   0.0000       0.265797         7.2327 
 157   0.0000       0.271409         7.3854 
 158   0.0000       0.277108         7.5405 
 159   0.0000       0.278729         7.5846 
 160   0.0000       0.284967         7.7544 
 161   0.0000       0.287059         7.8113 
 162   0.0000       0.292353         7.9553 
 163   0.0000       0.293555         7.9880 
 164   0.0000       0.299760         8.1569 
 165   0.0000       0.303449         8.2573 
 166   0.0000       0.310910         8.4603 
 167   0.0000       0.314938         8.5699 
 168   0.0000       0.317998         8.6532 
 169   0.0000       0.320193         8.7129 
 170   0.0000       0.322037         8.7631 
 171   0.0000       0.326808         8.8929 
 172   0.0000       0.329326         8.9614 
 173   0.0000       0.334695         9.1075 
 174   0.0000       0.342076         9.3084 
 175   0.0000       0.348645         9.4871 
 176   0.0000       0.352298         9.5865 
 177   0.0000       0.353999         9.6328 
 178   0.0000       0.362122         9.8538 
 179   0.0000       0.366404         9.9704 
 180   0.0000       0.372511        10.1365 
 181   0.0000       0.375614        10.2210 
 182   0.0000       0.376080        10.2337 
 183   0.0000       0.380541        10.3551 
 184   0.0000       0.385114        10.4795 
 185   0.0000       0.390442        10.6245 
 186   0.0000       0.393824        10.7165 
 187   0.0000       0.398068        10.8320 
 188   0.0000       0.402129        10.9425 
 189   0.0000       0.407331        11.0840 
 190   0.0000       0.410933        11.1821 
 191   0.0000       0.415702        11.3118 
 192   0.0000       0.417808        11.3691 
 193   0.0000       0.422175        11.4880 
 194   0.0000       0.424970        11.5640 
 195   0.0000       0.426694        11.6109 
 196   0.0000       0.435477        11.8499 
 197   0.0000       0.438262        11.9257 
 198   0.0000       0.440958        11.9991 
 199   0.0000       0.444401        12.0928 
 200   0.0000       0.448454        12.2030 
 201   0.0000       0.450956        12.2711 
 202   0.0000       0.454082        12.3562 
 203   0.0000       0.455758        12.4018 
 204   0.0000       0.456104        12.4112 
 205   0.0000       0.464599        12.6424 
 206   0.0000       0.466075        12.6825 
 207   0.0000       0.471111        12.8196 
 208   0.0000       0.477498        12.9934 
 209   0.0000       0.479422        13.0457 
 210   0.0000       0.479945        13.0600 
 211   0.0000       0.485301        13.2057 
 212   0.0000       0.493459        13.4277 
 213   0.0000       0.495978        13.4963 
 214   0.0000       0.501708        13.6522 
 215   0.0000       0.503546        13.7022 
 216   0.0000       0.504231        13.7208 
 217   0.0000       0.511834        13.9277 
 218   0.0000       0.515195        14.0192 
 219   0.0000       0.520724        14.1696 
 220   0.0000       0.524138        14.2625 
 221   0.0000       0.532055        14.4779 
 222   0.0000       0.535698        14.5771 
 223   0.0000       0.541117        14.7246 
 224   0.0000       0.545262        14.8373 
 225   0.0000       0.549854        14.9623 
 226   0.0000       0.557680        15.1753 
 227   0.0000       0.559327        15.2201 
 228   0.0000       0.563941        15.3456 
 229   0.0000       0.570912        15.5353 
 230   0.0000       0.574439        15.6313 
 231   0.0000       0.585135        15.9223 
 232   0.0000       0.587895        15.9974 
 233   0.0000       0.592662        16.1272 
 234   0.0000       0.601717        16.3736 
 235   0.0000       0.605334        16.4720 
 236   0.0000       0.611117        16.6293 
 237   0.0000       0.620052        16.8725 
 238   0.0000       0.620895        16.8954 
 239   0.0000       0.624723        16.9996 
 240   0.0000       0.627721        17.0812 
 241   0.0000       0.635722        17.2989 
 242   0.0000       0.642618        17.4865 
 243   0.0000       0.648897        17.6574 
 244   0.0000       0.655088        17.8259 
 245   0.0000       0.661322        17.9955 
 246   0.0000       0.668550        18.1922 
 247   0.0000       0.674315        18.3491 
 248   0.0000       0.677092        18.4246 
 249   0.0000       0.689014        18.7490 
 250   0.0000       0.696684        18.9577 
 251   0.0000       0.698900        19.0180 
 252   0.0000       0.701606        19.0917 
 253   0.0000       0.705044        19.1852 
 254   0.0000       0.720691        19.6110 
 255   0.0000       0.725915        19.7532 
 256   0.0000       0.727259        19.7897 
 257   0.0000       0.730952        19.8902 
 258   0.0000       0.738480        20.0951 
 259   0.0000       0.742912        20.2157 
 260   0.0000       0.746552        20.3147 
 261   0.0000       0.752738        20.4831 
 262   0.0000       0.757554        20.6141 
 263   0.0000       0.760925        20.7058 
 264   0.0000       0.769715        20.9450 
 265   0.0000       0.771507        20.9938 
 266   0.0000       0.778455        21.1828 
 267   0.0000       0.781504        21.2658 
 268   0.0000       0.786347        21.3976 
 269   0.0000       0.796792        21.6818 
 270   0.0000       0.798963        21.7409 
 271   0.0000       0.803743        21.8709 
 272   0.0000       0.815776        22.1984 
 273   0.0000       0.818067        22.2607 
 274   0.0000       0.828156        22.5353 
 275   0.0000       0.830795        22.6071 
 276   0.0000       0.841586        22.9007 
 277   0.0000       0.849511        23.1164 
 278   0.0000       0.853394        23.2220 
 279   0.0000       0.855862        23.2892 
 280   0.0000       0.870311        23.6824 
 281   0.0000       0.875229        23.8162 
 282   0.0000       0.879639        23.9362 
 283   0.0000       0.883806        24.0496 
 284   0.0000       0.887911        24.1613 
 285   0.0000       0.891667        24.2635 
 286   0.0000       0.898408        24.4469 
 287   0.0000       0.903572        24.5874 
 288   0.0000       0.905526        24.6406 
 289   0.0000       0.915190        24.9036 
 290   0.0000       0.917009        24.9531 
 291   0.0000       0.926335        25.2069 
 292   0.0000       0.932820        25.3833 
 293   0.0000       0.940523        25.5929 
 294   0.0000       0.944889        25.7117 
[...]
 28:    288.58   0.000651    3.29  0.000704  ( 0.005660  0.024876 -0.007263)
 29:    301.49   0.002515   12.71  0.002603  ( 0.017890  0.046235 -0.012067)
 30:    309.86   0.003344   16.90  0.003368  (-0.030692  0.035376 -0.034274)
 31:    316.46   0.000597    3.02  0.000589  ( 0.016896 -0.017149  0.003100)
 32:    361.65   0.002071   10.46  0.001787  ( 0.039629  0.003615  0.014256)
 33:    366.46   0.003861   19.51  0.003288  ( 0.014680  0.054950 -0.007269)
 34:    378.03   0.009476   47.89  0.007822  (-0.053131  0.070007 -0.009928)
 35:    421.14   0.002037   10.30  0.001510  ( 0.022506 -0.017808  0.026190)
 36:    443.70   0.002432   12.29  0.001711  ( 0.004786 -0.040801  0.004801)
 37:    471.20   0.000157    0.79  0.000104  (-0.003085  0.007241  0.006475)
 38:    486.18   0.001867    9.43  0.001198  (-0.001031  0.031610 -0.014069)
 39:    516.07   0.002929   14.80  0.001771  ( 0.022108 -0.016612  0.031726)
 40:    540.35   0.001824    9.22  0.001053  ( 0.011918  0.026372 -0.014696)
 41:    554.58   0.008277   41.83  0.004658  (-0.052207  0.031458 -0.030699)
 42:    566.01   0.000872    4.41  0.000481  ( 0.018556  0.010408  0.005314)
 43:    588.58   0.000910    4.60  0.000482  (-0.016943 -0.012291 -0.006654)
 44:    595.20   0.027665  139.81  0.014505  ( 0.092109 -0.073023  0.026235)
 45:    624.66   0.007457   37.69  0.003725  ( 0.058600 -0.004443 -0.016488)
 46:    635.91   0.008622   43.57  0.004231  ( 0.043359 -0.048142 -0.005792)
 47:    641.42   0.005223   26.40  0.002541  ( 0.001809 -0.029435  0.040883)
 48:    661.56   0.003984   20.14  0.001879  (-0.031654  0.022053  0.019779)
 49:    702.13   0.028144  142.23  0.012509  ( 0.072386 -0.085072  0.005653)
 50:    735.30   0.011933   60.30  0.005064  (-0.048957  0.050930 -0.008576)
 51:    739.53   0.006279   31.73  0.002650  ( 0.022045  0.040388  0.023073)
 52:    757.42   0.009312   47.06  0.003836  (-0.047057  0.006443  0.039757)
 53:    771.53   0.021953  110.94  0.008879  ( 0.030559 -0.036755  0.081207)
 54:    784.00   0.003464   17.50  0.001379  ( 0.027487 -0.021579 -0.012548)
 55:    787.70   0.003798   19.19  0.001505  ( 0.017436  0.028426 -0.019813)
 56:    805.40   0.005906   29.84  0.002288  (-0.014032 -0.044789 -0.009233)
 57:    826.13   0.003856   19.48  0.001456  ( 0.015940 -0.034099  0.006293)
 58:    840.92   0.003222   16.28  0.001196  (-0.030718  0.015605  0.002900)
 59:    852.43   0.006606   33.38  0.002418  (-0.029217 -0.019400 -0.034472)
 60:    864.03   0.006338   32.03  0.002289  (-0.035011  0.029251  0.014414)
 61:    875.81   0.000912    4.61  0.000325  ( 0.006537 -0.010701  0.012956)
 62:    912.98   0.001152    5.82  0.000394  ( 0.005315  0.003710 -0.018758)
 63:    930.63   0.011806   59.66  0.003959  ( 0.020508 -0.049219  0.033401)
 64:    965.37   0.000585    2.95  0.000189  ( 0.002014 -0.012715  0.004821)
 65:    972.18   0.000187    0.94  0.000060  ( 0.003697  0.006028  0.003143)
 66:    987.91   0.014101   71.26  0.004454  ( 0.037284 -0.049762  0.024249)
 67:    994.09   0.026722  135.04  0.008389  (-0.060769  0.043377 -0.053048)
 68:   1003.64   0.001621    8.19  0.000504  ( 0.016338 -0.006473  0.013975)
 69:   1017.42   0.000074    0.38  0.000023  (-0.002541 -0.004019  0.000397)
 70:   1048.68   0.004531   22.90  0.001348  ( 0.000866  0.035507  0.009323)
 71:   1055.70   0.009448   47.75  0.002793  (-0.001288 -0.034219 -0.040252)
 72:   1074.36   0.011404   57.63  0.003313  ( 0.026195 -0.027105 -0.043493)
 73:   1081.33   0.028201  142.52  0.008139  (-0.065614  0.003759 -0.061800)
 74:   1087.26   0.010302   52.06  0.002957  ( 0.016176  0.036089  0.037321)
 75:   1093.77   0.007243   36.60  0.002066  (-0.036218 -0.018290  0.020498)
 76:   1109.51   0.011382   57.52  0.003201  ( 0.015751 -0.018817  0.050982)
 77:   1131.77   0.092779  468.87  0.025582  (-0.146992  0.043143  0.045977)
 78:   1142.89   0.015730   79.49  0.004295  ( 0.009338 -0.040340 -0.050799)
 79:   1166.00   0.046464  234.81  0.012435  ( 0.022788 -0.106107  0.025642)
 80:   1171.51   0.000312    1.58  0.000083  ( 0.003764  0.004673 -0.006860)
 81:   1173.39   0.000299    1.51  0.000080  (-0.007746  0.002804 -0.003421)
 82:   1176.02   0.000921    4.65  0.000244  ( 0.015394 -0.000905 -0.002569)
 83:   1182.42   0.056147  283.74  0.014818  (-0.006214 -0.121343 -0.007454)
 84:   1193.71   0.010007   50.57  0.002616  (-0.041979 -0.026377 -0.012573)
 85:   1195.74   0.006245   31.56  0.001630  ( 0.003028 -0.037757 -0.013965)
 86:   1204.90   0.021756  109.94  0.005635  (-0.056452 -0.048795  0.008176)
 87:   1205.71   0.004355   22.01  0.001127  ( 0.032010 -0.009801  0.002542)
 88:   1215.91   0.001331    6.73  0.000342  ( 0.001748  0.016093 -0.008921)
 89:   1236.37   0.018345   92.71  0.004630  ( 0.021456  0.062170 -0.017464)
 90:   1249.32   0.055617  281.07  0.013893  ( 0.056038  0.103020  0.011795)
 91:   1254.44   0.066124  334.16  0.016449  ( 0.016220  0.107901 -0.067408)
 92:   1299.34   0.051467  260.09  0.012361  (-0.007144  0.095000  0.057313)
 93:   1314.19   0.004978   25.15  0.001182  ( 0.006620 -0.002097  0.033671)
 94:   1327.91   0.023502  118.77  0.005523  (-0.026039 -0.056888 -0.040110)
 95:   1330.74   0.002244   11.34  0.000526  (-0.002492  0.010819 -0.020071)
 96:   1361.64   0.067394  340.58  0.015445  ( 0.006888 -0.123632  0.010636)
 97:   1362.28   0.022675  114.59  0.005194  ( 0.053626  0.041783  0.023932)
 98:   1382.06   0.063806  322.45  0.014407  (-0.069484  0.096671 -0.015292)
 99:   1393.65   0.022408  113.24  0.005018  (-0.000219  0.062378  0.033563)
100:   1402.32   0.022322  112.81  0.004967  ( 0.007211 -0.004107  0.069990)
101:   1434.75   0.012827   64.82  0.002790  ( 0.007505 -0.052277 -0.000815)
102:   1465.08   0.003623   18.31  0.000772  (-0.023313  0.014996  0.001805)
103:   1466.04   0.008694   43.94  0.001851  (-0.014289 -0.037500 -0.015497)
104:   1470.20   0.012900   65.19  0.002738  (-0.020653 -0.048028 -0.002185)
105:   1474.17   0.003071   15.52  0.000650  (-0.003495  0.012676 -0.021845)
106:   1474.71   0.007375   37.27  0.001561  (-0.010104 -0.014434 -0.035359)
107:   1483.84   0.005011   25.32  0.001054  (-0.008067 -0.027914 -0.014479)
108:   1489.35   0.010088   50.98  0.002114  (-0.028864 -0.001816 -0.035740)
109:   1498.76   0.014633   73.95  0.003047  (-0.003268  0.051527  0.019521)
110:   1506.57   0.001754    8.86  0.000363  ( 0.009664  0.001074  0.016395)
111:   1535.48   0.030148  152.35  0.006127  ( 0.010344  0.072452  0.027763)
112:   1553.96   0.128177  647.75  0.025740  ( 0.032033 -0.056792  0.146591)
113:   1598.79   0.022246  112.42  0.004342  (-0.031032  0.026203 -0.051889)
114:   1645.84   0.004732   23.91  0.000897  ( 0.019858 -0.017824 -0.013607)
115:   1664.53   0.011081   56.00  0.002077  (-0.010923 -0.037392 -0.023665)
116:   1687.40   0.035197  177.87  0.006509  (-0.067515 -0.043579 -0.007194)
117:   1797.25   0.083075  419.83  0.014425  ( 0.062424  0.004319 -0.102514)
118:   3038.34   0.012454   62.94  0.001279  (-0.022286  0.021588  0.017789)
119:   3073.62   0.004988   25.21  0.000506  ( 0.003804  0.021020  0.007082)
120:   3110.12   0.007210   36.44  0.000723  ( 0.003458 -0.014423  0.022439)
121:   3117.75   0.004382   22.14  0.000439  ( 0.003585 -0.016206 -0.012771)
122:   3152.06   0.000807    4.08  0.000080  (-0.001570 -0.008709 -0.001249)
123:   3157.94   0.003310   16.73  0.000327  ( 0.014873 -0.007019  0.007527)
124:   3167.08   0.003684   18.62  0.000363  (-0.010498 -0.014088 -0.007368)
125:   3195.33   0.000494    2.50  0.000048  ( 0.006866 -0.000226 -0.001036)
126:   3196.17   0.001779    8.99  0.000174  ( 0.006703  0.006574 -0.009247)
127:   3199.71   0.003860   19.51  0.000376  (-0.004370  0.018760  0.002336)
128:   3206.37   0.000984    4.97  0.000096  (-0.008197 -0.003468  0.004074)
129:   3211.67   0.002962   14.97  0.000288  (-0.012318 -0.010352 -0.005376)
130:   3231.11   0.000562    2.84  0.000054  (-0.005940 -0.002786  0.003353)
131:   3232.43   0.000648    3.27  0.000063  (-0.005536  0.004375  0.003574)
132:   3232.57   0.000080    0.40  0.000008  ( 0.000488  0.002502  0.001091)
133:   3239.16   0.001158    5.85  0.000112  (-0.004049  0.008335  0.005073)
134:   3249.36   0.000007    0.04  0.000001  ( 0.000747  0.000302 -0.000216)

* The epsilon (eps) is given for a Dirac delta lineshape.
** The dipole moment derivative (T) already includes vibrational overlap.

The first frequency considered to be a vibration is 7
The total number of vibrations considered is 128


--------------------------
THERMOCHEMISTRY AT 298.15K
--------------------------

Temperature         ... 298.15 K
Pressure            ... 1.00 atm
Total Mass          ... 398.34 AMU

Throughout the following assumptions are being made:
  (1) The electronic state is orbitally nondegenerate
  (2) There are no thermally accessible electronically excited states
  (3) Hindered rotations indicated by low frequency modes are not
      treated as such but are treated as vibrations and this may
      cause some error
  (4) All equations used are the standard statistical mechanics
      equations for an ideal gas
  (5) All vibrations are strictly harmonic

freq.      17.35  E(vib)   ...       0.57 
freq.      30.40  E(vib)   ...       0.55 
freq.      50.33  E(vib)   ...       0.52 
freq.      62.75  E(vib)   ...       0.51 
freq.      75.77  E(vib)   ...       0.49 
freq.      91.59  E(vib)   ...       0.47 
freq.      95.75  E(vib)   ...       0.47 
freq.      98.29  E(vib)   ...       0.46 
freq.     107.92  E(vib)   ...       0.45 
freq.     115.17  E(vib)   ...       0.44 
freq.     120.61  E(vib)   ...       0.44 
freq.     137.19  E(vib)   ...       0.42 
freq.     150.34  E(vib)   ...       0.40 
freq.     153.53  E(vib)   ...       0.40 
freq.     173.15  E(vib)   ...       0.38 
freq.     192.47  E(vib)   ...       0.36 
freq.     198.52  E(vib)   ...       0.35 
freq.     218.99  E(vib)   ...       0.33 
freq.     230.25  E(vib)   ...       0.32 
freq.     247.76  E(vib)   ...       0.31 
freq.     263.91  E(vib)   ...       0.29 
freq.     288.58  E(vib)   ...       0.27 
freq.     301.49  E(vib)   ...       0.26 
freq.     309.86  E(vib)   ...       0.26 
freq.     316.46  E(vib)   ...       0.25 
freq.     361.65  E(vib)   ...       0.22 
freq.     366.46  E(vib)   ...       0.22 
freq.     378.03  E(vib)   ...       0.21 
freq.     421.14  E(vib)   ...       0.18 
freq.     443.70  E(vib)   ...       0.17 
freq.     471.20  E(vib)   ...       0.15 
freq.     486.18  E(vib)   ...       0.15 
freq.     516.07  E(vib)   ...       0.13 
freq.     540.35  E(vib)   ...       0.12 
freq.     554.58  E(vib)   ...       0.12 
freq.     566.01  E(vib)   ...       0.11 
freq.     588.58  E(vib)   ...       0.10 
freq.     595.20  E(vib)   ...       0.10 
freq.     624.66  E(vib)   ...       0.09 
freq.     635.91  E(vib)   ...       0.09 
freq.     641.42  E(vib)   ...       0.09 
freq.     661.56  E(vib)   ...       0.08 
freq.     702.13  E(vib)   ...       0.07 
freq.     735.30  E(vib)   ...       0.06 
freq.     739.53  E(vib)   ...       0.06 
freq.     757.42  E(vib)   ...       0.06 
freq.     771.53  E(vib)   ...       0.05 
freq.     784.00  E(vib)   ...       0.05 
freq.     787.70  E(vib)   ...       0.05 
freq.     805.40  E(vib)   ...       0.05 
freq.     826.13  E(vib)   ...       0.04 
freq.     840.92  E(vib)   ...       0.04 
freq.     852.43  E(vib)   ...       0.04 
freq.     864.03  E(vib)   ...       0.04 
freq.     875.81  E(vib)   ...       0.04 
freq.     912.98  E(vib)   ...       0.03 
freq.     930.63  E(vib)   ...       0.03 
freq.     965.37  E(vib)   ...       0.03 
freq.     972.18  E(vib)   ...       0.03 
freq.     987.91  E(vib)   ...       0.02 
freq.     994.09  E(vib)   ...       0.02 
freq.    1003.64  E(vib)   ...       0.02 
freq.    1017.42  E(vib)   ...       0.02 
freq.    1048.68  E(vib)   ...       0.02 
freq.    1055.70  E(vib)   ...       0.02 
freq.    1074.36  E(vib)   ...       0.02 
freq.    1081.33  E(vib)   ...       0.02 
freq.    1087.26  E(vib)   ...       0.02 
freq.    1093.77  E(vib)   ...       0.02 
freq.    1109.51  E(vib)   ...       0.02 
freq.    1131.77  E(vib)   ...       0.01 
freq.    1142.89  E(vib)   ...       0.01 
freq.    1166.00  E(vib)   ...       0.01 
freq.    1171.51  E(vib)   ...       0.01 
freq.    1173.39  E(vib)   ...       0.01 
freq.    1176.02  E(vib)   ...       0.01 
freq.    1182.42  E(vib)   ...       0.01 
freq.    1193.71  E(vib)   ...       0.01 
freq.    1195.74  E(vib)   ...       0.01 
freq.    1204.90  E(vib)   ...       0.01 
freq.    1205.71  E(vib)   ...       0.01 
freq.    1215.91  E(vib)   ...       0.01 
freq.    1236.37  E(vib)   ...       0.01 
freq.    1249.32  E(vib)   ...       0.01 
freq.    1254.44  E(vib)   ...       0.01 
freq.    1299.34  E(vib)   ...       0.01 
freq.    1314.19  E(vib)   ...       0.01 
freq.    1327.91  E(vib)   ...       0.01 
freq.    1330.74  E(vib)   ...       0.01 
freq.    1361.64  E(vib)   ...       0.01 
freq.    1362.28  E(vib)   ...       0.01 
freq.    1382.06  E(vib)   ...       0.01 
freq.    1393.65  E(vib)   ...       0.00 
freq.    1402.32  E(vib)   ...       0.00 
freq.    1434.75  E(vib)   ...       0.00 
freq.    1465.08  E(vib)   ...       0.00 
freq.    1466.04  E(vib)   ...       0.00 
freq.    1470.20  E(vib)   ...       0.00 
freq.    1474.17  E(vib)   ...       0.00 
freq.    1474.71  E(vib)   ...       0.00 
freq.    1483.84  E(vib)   ...       0.00 
freq.    1489.35  E(vib)   ...       0.00 
freq.    1498.76  E(vib)   ...       0.00 
freq.    1506.57  E(vib)   ...       0.00 
freq.    1535.48  E(vib)   ...       0.00 
freq.    1553.96  E(vib)   ...       0.00 
freq.    1598.79  E(vib)   ...       0.00 
freq.    1645.84  E(vib)   ...       0.00 
freq.    1664.53  E(vib)   ...       0.00 
freq.    1687.40  E(vib)   ...       0.00 
freq.    1797.25  E(vib)   ...       0.00 
freq.    3038.34  E(vib)   ...       0.00 
freq.    3073.62  E(vib)   ...       0.00 
freq.    3110.12  E(vib)   ...       0.00 
freq.    3117.75  E(vib)   ...       0.00 
freq.    3152.06  E(vib)   ...       0.00 
freq.    3157.94  E(vib)   ...       0.00 
freq.    3167.08  E(vib)   ...       0.00 
freq.    3195.33  E(vib)   ...       0.00 
freq.    3196.17  E(vib)   ...       0.00 
freq.    3199.71  E(vib)   ...       0.00 
freq.    3206.37  E(vib)   ...       0.00 
freq.    3211.67  E(vib)   ...       0.00 
freq.    3231.11  E(vib)   ...       0.00 
freq.    3232.43  E(vib)   ...       0.00 
freq.    3232.57  E(vib)   ...       0.00 
freq.    3239.16  E(vib)   ...       0.00 
freq.    3249.36  E(vib)   ...       0.00 

------------
INNER ENERGY
------------

The inner energy is: U= E(el) + E(ZPE) + E(vib) + E(rot) + E(trans)
    E(el)   - is the total energy from the electronic structure calculation
              = E(kin-el) + E(nuc-el) + E(el-el) + E(nuc-nuc)
    E(ZPE)  - the the zero temperature vibrational energy from the frequency calculation
    E(vib)  - the the finite temperature correction to E(ZPE) due to population
              of excited vibrational states
    E(rot)  - is the rotational thermal energy
    E(trans)- is the translational thermal energy

Summary of contributions to the inner energy U:
Electronic energy                ...  -1480.20819286 Eh
Zero point energy                ...      0.33924191 Eh     212.88 kcal/mol
Thermal vibrational correction   ...      0.02162340 Eh      13.57 kcal/mol
Thermal rotational correction    ...      0.00141627 Eh       0.89 kcal/mol
Thermal translational correction ...      0.00141627 Eh       0.89 kcal/mol
-----------------------------------------------------------------------
Total thermal energy                  -1479.84449501 Eh


Summary of corrections to the electronic energy:
(perhaps to be used in another calculation)
Total thermal correction                  0.02445594 Eh      15.35 kcal/mol
Non-thermal (ZPE) correction              0.33924191 Eh     212.88 kcal/mol
-----------------------------------------------------------------------
Total correction                          0.36369785 Eh     228.22 kcal/mol


--------
ENTHALPY
--------

The enthalpy is H = U + kB*T
                kB is Boltzmann's constant
Total free energy                 ...  -1479.84449501 Eh 
Thermal Enthalpy correction       ...      0.00094421 Eh       0.59 kcal/mol
-----------------------------------------------------------------------
Total Enthalpy                    ...  -1479.84355080 Eh


Note: Only C1 symmetry has been detected, increase convergence thresholds 
      if your molecule has a higher symmetry. Symmetry factor of 1.0 is   
      used for the rotational entropy correction. 
 

Note: Rotational entropy computed according to Herzberg 
Infrared and Raman Spectra, Chapter V,1, Van Nostrand Reinhold, 1945 
Point Group:  C1, Symmetry Number:   1  
Rotational constants in cm-1:     0.007995     0.006200     0.005040 

Vibrational entropy computed according to the QRRHO of S. Grimme
Chem.Eur.J. 2012 18 9955


-------
ENTROPY
-------

The entropy contributions are T*S = T*(S(el)+S(vib)+S(rot)+S(trans))
     S(el)   - electronic entropy
     S(vib)  - vibrational entropy
     S(rot)  - rotational entropy
     S(trans)- translational entropy
The entropies will be listed as multiplied by the temperature to get
units of energy

Electronic entropy                ...      0.00000000 Eh      0.00 kcal/mol
Vibrational entropy               ...      0.03874577 Eh     24.31 kcal/mol
Rotational entropy                ...      0.01668771 Eh     10.47 kcal/mol
Translational entropy             ...      0.02082871 Eh     13.07 kcal/mol
-----------------------------------------------------------------------
Final entropy term                ...      0.07626219 Eh     47.86 kcal/mol

In case the symmetry of your molecule has not been determined correctly
or in case you have a reason to use a different symmetry number we print 
out the resulting rotational entropy values for sn=1,12 :
 --------------------------------------------------------
|  sn= 1 | S(rot)=       0.01668771 Eh     10.47 kcal/mol|
|  sn= 2 | S(rot)=       0.01603326 Eh     10.06 kcal/mol|
|  sn= 3 | S(rot)=       0.01565042 Eh      9.82 kcal/mol|
|  sn= 4 | S(rot)=       0.01537880 Eh      9.65 kcal/mol|
|  sn= 5 | S(rot)=       0.01516811 Eh      9.52 kcal/mol|
|  sn= 6 | S(rot)=       0.01499597 Eh      9.41 kcal/mol|
|  sn= 7 | S(rot)=       0.01485042 Eh      9.32 kcal/mol|
|  sn= 8 | S(rot)=       0.01472434 Eh      9.24 kcal/mol|
|  sn= 9 | S(rot)=       0.01461313 Eh      9.17 kcal/mol|
|  sn=10 | S(rot)=       0.01451366 Eh      9.11 kcal/mol|
|  sn=11 | S(rot)=       0.01442367 Eh      9.05 kcal/mol|
|  sn=12 | S(rot)=       0.01434151 Eh      9.00 kcal/mol|
 --------------------------------------------------------


-------------------
GIBBS FREE ENERGY
-------------------

The Gibbs free energy is G = H - T*S

Total enthalpy                    ...  -1479.84355080 Eh 
Total entropy correction          ...     -0.07626219 Eh    -47.86 kcal/mol
-----------------------------------------------------------------------
Final Gibbs free energy         ...  -1479.91981299 Eh

For completeness - the Gibbs free energy minus the electronic energy
G-E(el)                           ...      0.28837987 Eh    180.96 kcal/mol


Timings for individual modules:

Sum of individual times         ...    16747.481 sec (= 279.125 min)
GTO integral calculation        ...      180.175 sec (=   3.003 min)   1.1 %
SCF iterations                  ...     9931.817 sec (= 165.530 min)  59.3 %
SCF Gradient evaluation         ...     2523.465 sec (=  42.058 min)  15.1 %
Geometry relaxation             ...       10.170 sec (=   0.170 min)   0.1 %
Analytical frequency calculation...     4101.854 sec (=  68.364 min)  24.5 %
                             ****ORCA TERMINATED NORMALLY****
TOTAL RUN TIME: 0 days 4 hours 41 minutes 56 seconds 677 msec
