
                                 *****************
                                 * O   R   C   A *
                                 *****************

                                            #,                                       
                                            ###                                      
                                            ####                                     
                                            #####                                    
                                            ######                                   
                                           ########,                                 
                                     ,,################,,,,,                         
                               ,,#################################,,                 
                          ,,##########################################,,             
                       ,#########################################, ''#####,          
                    ,#############################################,,   '####,        
                  ,##################################################,,,,####,       
                ,###########''''           ''''###############################       
              ,#####''   ,,,,##########,,,,          '''####'''          '####       
            ,##' ,,,,###########################,,,                        '##       
           ' ,,###''''                  '''############,,,                           
         ,,##''                                '''############,,,,        ,,,,,,###''
      ,#''                                            '''#######################'''  
     '                                                          ''''####''''         
             ,#######,   #######,   ,#######,      ##                                
            ,#'     '#,  ##    ##  ,#'     '#,    #''#        ######   ,####,        
            ##       ##  ##   ,#'  ##            #'  '#       #        #'  '#        
            ##       ##  #######   ##           ,######,      #####,   #    #        
            '#,     ,#'  ##    ##  '#,     ,#' ,#      #,         ##   #,  ,#        
             '#######'   ##     ##  '#######'  #'      '#     #####' # '####'        



                  #######################################################
                  #                        -***-                        #
                  #          Department of theory and spectroscopy      #
                  #    Directorship and core code : Frank Neese         #
                  #        Max Planck Institute fuer Kohlenforschung    #
                  #                Kaiser Wilhelm Platz 1               #
                  #                 D-45470 Muelheim/Ruhr               #
                  #                      Germany                        #
                  #                                                     #
                  #                  All rights reserved                #
                  #                        -***-                        #
                  #######################################################


                         Program Version 5.0.4 -  RELEASE  -


 With contributions from (in alphabetic order):
   Daniel Aravena         : Magnetic Suceptibility
   Michael Atanasov       : Ab Initio Ligand Field Theory (pilot matlab implementation)
   Alexander A. Auer      : GIAO ZORA, VPT2 properties, NMR spectrum
   Ute Becker             : Parallelization
   Giovanni Bistoni       : ED, misc. LED, open-shell LED, HFLD
   Martin Brehm           : Molecular dynamics
   Dmytro Bykov           : SCF Hessian
   Vijay G. Chilkuri      : MRCI spin determinant printing, contributions to CSF-ICE
   Dipayan Datta          : RHF DLPNO-CCSD density
   Achintya Kumar Dutta   : EOM-CC, STEOM-CC
   Dmitry Ganyushin       : Spin-Orbit,Spin-Spin,Magnetic field MRCI
   Miquel Garcia          : C-PCM and meta-GGA Hessian, CC/C-PCM, Gaussian charge scheme
   Yang Guo               : DLPNO-NEVPT2, F12-NEVPT2, CIM, IAO-localization
   Andreas Hansen         : Spin unrestricted coupled pair/coupled cluster methods
   Benjamin Helmich-Paris : MC-RPA, TRAH-SCF, COSX integrals
   Lee Huntington         : MR-EOM, pCC
   Robert Izsak           : Overlap fitted RIJCOSX, COSX-SCS-MP3, EOM
   Marcus Kettner         : VPT2
   Christian Kollmar      : KDIIS, OOCD, Brueckner-CCSD(T), CCSD density, CASPT2, CASPT2-K
   Simone Kossmann        : Meta GGA functionals, TD-DFT gradient, OOMP2, MP2 Hessian
   Martin Krupicka        : Initial AUTO-CI
   Lucas Lang             : DCDCAS
   Marvin Lechner         : AUTO-CI (C++ implementation), FIC-MRCC
   Dagmar Lenk            : GEPOL surface, SMD
   Dimitrios Liakos       : Extrapolation schemes; Compound Job, initial MDCI parallelization
   Dimitrios Manganas     : Further ROCIS development; embedding schemes
   Dimitrios Pantazis     : SARC Basis sets
   Anastasios Papadopoulos: AUTO-CI, single reference methods and gradients
   Taras Petrenko         : DFT Hessian,TD-DFT gradient, ASA, ECA, R-Raman, ABS, FL, XAS/XES, NRVS
   Peter Pinski           : DLPNO-MP2, DLPNO-MP2 Gradient
   Christoph Reimann      : Effective Core Potentials
   Marius Retegan         : Local ZFS, SOC
   Christoph Riplinger    : Optimizer, TS searches, QM/MM, DLPNO-CCSD(T), (RO)-DLPNO pert. Triples
   Tobias Risthaus        : Range-separated hybrids, TD-DFT gradient, RPA, STAB
   Michael Roemelt        : Original ROCIS implementation
   Masaaki Saitow         : Open-shell DLPNO-CCSD energy and density
   Barbara Sandhoefer     : DKH picture change effects
   Avijit Sen             : IP-ROCIS
   Kantharuban Sivalingam : CASSCF convergence, NEVPT2, FIC-MRCI
   Bernardo de Souza      : ESD, SOC TD-DFT
   Georgi Stoychev        : AutoAux, RI-MP2 NMR, DLPNO-MP2 response
   Willem Van den Heuvel  : Paramagnetic NMR
   Boris Wezisla          : Elementary symmetry handling
   Frank Wennmohs         : Technical directorship


 We gratefully acknowledge several colleagues who have allowed us to
 interface, adapt or use parts of their codes:
   Stefan Grimme, W. Hujo, H. Kruse, P. Pracht,  : VdW corrections, initial TS optimization,
                  C. Bannwarth, S. Ehlert          DFT functionals, gCP, sTDA/sTD-DF
   Ed Valeev, F. Pavosevic, A. Kumar             : LibInt (2-el integral package), F12 methods
   Garnet Chan, S. Sharma, J. Yang, R. Olivares  : DMRG
   Ulf Ekstrom                                   : XCFun DFT Library
   Mihaly Kallay                                 : mrcc  (arbitrary order and MRCC methods)
   Jiri Pittner, Ondrej Demel                    : Mk-CCSD
   Frank Weinhold                                : gennbo (NPA and NBO analysis)
   Christopher J. Cramer and Donald G. Truhlar   : smd solvation model
   Lars Goerigk                                  : TD-DFT with DH, B97 family of functionals
   V. Asgeirsson, H. Jonsson                     : NEB implementation
   FAccTs GmbH                                   : IRC, NEB, NEB-TS, DLPNO-Multilevel, CI-OPT
                                                   MM, QMMM, 2- and 3-layer-ONIOM, Crystal-QMMM,
                                                   LR-CPCM, SF, NACMEs, symmetry and pop. for TD-DFT,
                                                   nearIR, NL-DFT gradient (VV10), updates on ESD,
                                                   ML-optimized integration grids
   S Lehtola, MJT Oliveira, MAL Marques          : LibXC Library
   Liviu Ungur et al                             : ANISO software


 Your calculation uses the libint2 library for the computation of 2-el integrals
 For citations please refer to: http://libint.valeyev.net

 Your ORCA version has been built with support for libXC version: 5.1.0
 For citations please refer to: https://tddft.org/programs/libxc/

 This ORCA versions uses:
   CBLAS   interface :  Fast vector & matrix operations
   LAPACKE interface :  Fast linear algebra routines
   SCALAPACK package :  Parallel linear algebra routines
   Shared memory     :  Shared parallel matrices
   BLAS/LAPACK       :  OpenBLAS 0.3.15  USE64BITINT DYNAMIC_ARCH NO_AFFINITY Haswell SINGLE_THREADED
        Core in use  :  Haswell
   Copyright (c) 2011-2014, The OpenBLAS Project


Your calculation utilizes the atom-pairwise dispersion correction
with the Becke-Johnson damping scheme (D3BJ)
Cite in your paper:
S.Grimme, S.Ehrlich, L.Goerigk, J Comput Chem, (2011), 32, 1456–1465 
S.Grimme, J.Antony, S.Ehrlich and H.Krieg, J.Chem.Phys., 132, (2010), 154104 
   

================================================================================

----- Orbital basis set information -----
Your calculation utilizes the basis: def2-TZVP
   F. Weigend and R. Ahlrichs, Phys. Chem. Chem. Phys. 7, 3297 (2005).

----- AuxJ basis set information -----
Your calculation utilizes the auxiliary basis: def2/J
   F. Weigend, Phys. Chem. Chem. Phys. 8, 1057 (2006).

================================================================================
                                        WARNINGS
                       Please study these warnings very carefully!
================================================================================


WARNING: Geometry Optimization
  ===> : Switching off AutoStart
         For restart on a previous wavefunction, please use MOREAD

INFO   : the flag for use of the SHARK integral package has been found!

================================================================================
                                       INPUT FILE
================================================================================
NAME = TS1_CHCHNMe2/TS1_CHCHNMe2.inp
|  1> %pal nprocs 24 end
|  2> %maxcore 3500
|  3> ! PBE0 D3BJ def2-TZVP TightSCF OPTTS FREQ TightOpt
|  4> ! CPCM(dmso)
|  5> %scf
|  6> MaxIter 800
|  7> end
|  8> %geom
|  9> MaxIter 800
| 10> MaxStep 0.2
| 11> end
| 12> *xyz 0 1
| 13> 
| 14> C       4.10600600      0.26875000      0.50105400
| 15> C       4.06308700      1.22942500     -0.53822300
| 16> C       2.84928400      1.67736800     -0.95077900
| 17> N       1.71086500      1.27268300     -0.34547200
| 18> C       1.70078100      0.34764400      0.67264000
| 19> C       2.96032500     -0.14369200      1.11153500
| 20> C       0.40680600      1.52353400     -0.90016400
| 21> C      -0.24045700      2.70776000     -0.20165600
| 22> O       0.26862800      3.34326300      0.68555800
| 23> O      -1.38979900      3.01395900     -0.78106000
| 24> C      -2.10464400      4.11960900     -0.22239800
| 25> H       5.06367500     -0.10973900      0.84002500
| 26> H       2.71983200      2.36646800     -1.77543400
| 27> H       0.89401500      0.44888600      1.38758500
| 28> H       2.97910700     -0.82778200      1.94935000
| 29> H       0.53865200      1.84822100     -1.93394200
| 30> H      -1.51231900      5.03129100     -0.29940800
| 31> H      -2.34203400      3.92152200      0.82303900
| 32> C       0.43153700     -0.96326300     -0.27580200
| 33> C      -0.38871200      0.13748800     -0.94200600
| 34> C      -1.83699400      0.17867700     -0.53056600
| 35> C      -2.79863600     -0.22078500     -1.44639400
| 36> C      -4.15165300     -0.23576000     -1.13127900
| 37> C      -4.55498300      0.15905200      0.13204400
| 38> C      -3.61718800      0.56501300      1.07323700
| 39> C      -2.26864400      0.57493700      0.74265800
| 40> O      -1.29424400      0.95814200      1.59466900
| 41> C      -1.65386500      1.39601700      2.89045200
| 42> N       1.40377200     -1.48581100     -1.12916200
| 43> O       1.69231400     -0.85441500     -2.16594800
| 44> H      -0.39652400     -0.10800100     -2.00235300
| 45> H      -2.47383000     -0.52792700     -2.43513700
| 46> H      -4.87864600     -0.55267300     -1.86929100
| 47> H      -5.60567800      0.15523100      0.39904200
| 48> H      -3.94249900      0.87096400      2.05831900
| 49> H      -0.72380700      1.67682400      3.38027400
| 50> H      -2.13719300      0.59321300      3.45399600
| 51> H      -2.31819900      2.26284100      2.84221900
| 52> O       2.05006600     -2.49022500     -0.79195400
| 53> H      -3.01574100      4.20585100     -0.80831000
| 54> H       4.96189800      1.59025200     -1.01685400
| 55> C      -0.17339500     -1.81844200      0.73631200
| 56> H      -1.19958500     -1.56783400      0.96284500
| 57> C       0.41134300     -2.78689700      1.47467800
| 58> H       1.43101600     -3.09238800      1.28298500
| 59> N      -0.18138500     -3.44745800      2.51449400
| 60> C      -1.56469600     -3.18684200      2.81149200
| 61> H      -1.72594900     -2.11669800      2.96275700
| 62> H      -2.23612100     -3.52017600      2.00542800
| 63> H      -1.83771100     -3.71047300      3.72770100
| 64> C       0.28518000     -4.78212100      2.81011300
| 65> H      -0.19230700     -5.54120500      2.17390700
| 66> H       1.36343300     -4.83429700      2.65285300
| 67> H       0.07207700     -5.02671400      3.85261300
| 68> *
| 69> 
| 70>                          ****END OF INPUT****
================================================================================

                       *****************************
                       * Geometry Optimization Run *
                       *****************************

Geometry optimization settings:
Update method            Update   .... Bofill
Choice of coordinates    CoordSys .... Z-matrix Internals
Initial Hessian          InHess   .... Almoef's Model

Convergence Tolerances:
Energy Change            TolE     ....  1.0000e-06 Eh
Max. Gradient            TolMAXG  ....  1.0000e-04 Eh/bohr
RMS Gradient             TolRMSG  ....  3.0000e-05 Eh/bohr
Max. Displacement        TolMAXD  ....  1.0000e-03 bohr
RMS Displacement         TolRMSD  ....  6.0000e-04 bohr
Strict Convergence                ....  False
------------------------------------------------------------------------------
                        ORCA OPTIMIZATION COORDINATE SETUP
------------------------------------------------------------------------------

The optimization will be done in new redundant internal coordinates
Making redundant internal coordinates   ...  (new redundants) done
Following TS mode number                ...     0
Evaluating the initial hessian          ...  (Almloef) done
Evaluating the coordinates              ...  done
Calculating the B-matrix                .... done
Calculating the G-matrix                .... done
Diagonalizing the G-matrix              .... done
Small eigenvalue found = 2.963e-03
Small eigenvalue found = 4.937e-03
Small eigenvalue found = 5.496e-03
Small eigenvalue found = 8.847e-03
Small eigenvalue found = 1.030e-02
Small eigenvalue found = 1.484e-02
Small eigenvalue found = 1.742e-02
Small eigenvalue found = 2.499e-02
Small eigenvalue found = 2.870e-02
The first mode is                       ....  112
The number of degrees of freedom        ....  156

    -----------------------------------------------------------------
                    Redundant Internal Coordinates


    -----------------------------------------------------------------
         Definition                    Initial Value    Approx d2E/dq
    -----------------------------------------------------------------
      1. B(C   1,C   0)                  1.4159         0.568044   
      2. B(C   2,C   1)                  1.3580         0.702728   
      3. B(N   3,C   2)                  1.3514         0.644954   
      4. B(C   4,N   3)                  1.3756         0.589937   
      5. B(C   5,C   4)                  1.4214         0.556645   
      6. B(C   5,C   0)                  1.3621         0.692172   
      7. B(C   6,N   3)                  1.4392         0.467138   
      8. B(C   7,C   6)                  1.5196         0.388091   
      9. B(O   8,C   7)                  1.2042         1.107268   
     10. B(O   9,C   7)                  1.3230         0.715640   
     11. B(C  10,O   9)                  1.4302         0.482709   
     12. B(H  11,C   0)                  1.0841         0.367982   
     13. B(H  12,C   2)                  1.0824         0.370244   
     14. B(H  13,C   4)                  1.0827         0.369870   
     15. B(H  14,C   5)                  1.0818         0.371129   
     16. B(H  15,C   6)                  1.0916         0.358043   
     17. B(H  16,C  10)                  1.0899         0.360195   
     18. B(H  17,C  10)                  1.0902         0.359839   
     19. B(C  19,C  18)                  1.5259         0.379281   
     20. B(C  19,C   6)                  1.5987         0.290289   
     21. B(C  20,C  19)                  1.5062         0.407776   
     22. B(C  21,C  20)                  1.3867         0.632309   
     23. B(C  22,C  21)                  1.3893         0.626387   
     24. B(C  23,C  22)                  1.3837         0.639501   
     25. B(C  24,C  23)                  1.3893         0.626444   
     26. B(C  25,C  24)                  1.3885         0.628233   
     27. B(C  25,C  20)                  1.4016         0.598762   
     28. B(O  26,C  25)                  1.3499         0.648419   
     29. B(C  27,O  26)                  1.4143         0.511893   
     30. B(N  28,C  18)                  1.3952         0.549054   
     31. B(O  29,N  28)                  1.2477         0.845254   
     32. B(H  30,C  19)                  1.0884         0.362194   
     33. B(H  31,C  21)                  1.0851         0.366637   
     34. B(H  32,C  22)                  1.0833         0.369026   
     35. B(H  33,C  23)                  1.0841         0.367997   
     36. B(H  34,C  24)                  1.0816         0.371410   
     37. B(H  35,C  27)                  1.0880         0.362730   
     38. B(H  36,C  27)                  1.0935         0.355536   
     39. B(H  37,C  27)                  1.0932         0.355913   
     40. B(O  38,N  28)                  1.2411         0.866208   
     41. B(H  39,C  10)                  1.0867         0.364547   
     42. B(H  40,C   1)                  1.0803         0.373102   
     43. B(C  41,C  18)                  1.4566         0.489217   
     44. B(H  42,C  41)                  1.0804         0.373075   
     45. B(C  43,C  41)                  1.3509         0.721231   
     46. B(H  44,C  43)                  1.0816         0.371420   
     47. B(N  45,C  43)                  1.3671         0.608774   
     48. B(C  46,N  45)                  1.4386         0.468034   
     49. B(H  47,H  36)                  2.7846         0.000136   
     50. B(H  47,C  46)                  1.0927         0.356487   
     51. B(H  48,C  46)                  1.1008         0.346149   
     52. B(H  49,C  46)                  1.0900         0.360060   
     53. B(C  50,N  45)                  1.4444         0.458168   
     54. B(H  51,C  50)                  1.0995         0.347715   
     55. B(H  52,H  14)                  4.3769         0.000000   
     56. B(H  52,C  50)                  1.0909         0.358899   
     57. B(H  53,C  50)                  1.0918         0.357716   
     58. A(C   1,C   0,C   5)          120.5911         0.435835   
     59. A(C   1,C   0,H  11)          119.5479         0.349004   
     60. A(C   5,C   0,H  11)          119.8120         0.360898   
     61. A(C   0,C   1,C   2)          118.2862         0.437025   
     62. A(C   0,C   1,H  40)          121.7743         0.349818   
     63. A(C   2,C   1,H  40)          119.9248         0.362686   
     64. A(N   3,C   2,H  12)          115.5405         0.354751   
     65. A(C   1,C   2,H  12)          123.2527         0.362210   
     66. A(C   1,C   2,N   3)          121.2059         0.444226   
     67. A(C   4,N   3,C   6)          113.3175         0.403784   
     68. A(C   2,N   3,C   4)          122.6199         0.427625   
     69. A(C   2,N   3,C   6)          122.5818         0.410201   
     70. A(C   5,C   4,H  13)          119.2552         0.348113   
     71. A(N   3,C   4,C   5)          117.0305         0.419242   
     72. A(N   3,C   4,H  13)          115.5498         0.349382   
     73. A(C   0,C   5,C   4)          120.1492         0.434247   
     74. A(C   0,C   5,H  14)          121.5996         0.361423   
     75. A(C   4,C   5,H  14)          118.2358         0.348313   
     76. A(H  15,C   6,C  19)          107.0502         0.310972   
     77. A(C   7,C   6,C  19)          118.4066         0.350372   
     78. A(N   3,C   6,C  19)          108.0512         0.359330   
     79. A(N   3,C   6,C   7)          110.1586         0.377693   
     80. A(C   7,C   6,H  15)          104.7720         0.326050   
     81. A(N   3,C   6,H  15)          107.9041         0.334174   
     82. A(C   6,C   7,O   9)          110.4305         0.406955   
     83. A(C   6,C   7,O   8)          124.7389         0.439969   
     84. A(O   8,C   7,O   9)          124.5937         0.488790   
     85. A(C   7,O   9,C  10)          116.2342         0.420301   
     86. A(O   9,C  10,H  39)          105.6525         0.337009   
     87. A(H  16,C  10,H  17)          109.7596         0.290818   
     88. A(O   9,C  10,H  17)          110.0562         0.336281   
     89. A(O   9,C  10,H  16)          110.3289         0.336336   
     90. A(H  17,C  10,H  39)          110.4200         0.291368   
     91. A(H  16,C  10,H  39)          110.5589         0.291413   
     92. A(C  19,C  18,N  28)          112.1938         0.386894   
     93. A(N  28,C  18,C  41)          119.6381         0.404559   
     94. A(C  19,C  18,C  41)          120.2424         0.381622   
     95. A(C   6,C  19,C  20)          116.5920         0.353316   
     96. A(C   6,C  19,C  18)          110.2748         0.349018   
     97. A(C  20,C  19,H  30)          105.3903         0.329346   
     98. A(C  18,C  19,H  30)          105.4558         0.325438   
     99. A(C   6,C  19,H  30)          102.9805         0.311552   
    100. A(C  18,C  19,C  20)          114.6683         0.369807   
    101. A(C  21,C  20,C  25)          117.8921         0.432881   
    102. A(C  19,C  20,C  25)          123.5061         0.400379   
    103. A(C  19,C  20,C  21)          118.5889         0.404245   
    104. A(C  22,C  21,H  31)          119.6786         0.354601   
    105. A(C  20,C  21,H  31)          118.4070         0.355167   
    106. A(C  20,C  21,C  22)          121.9144         0.436410   
    107. A(C  23,C  22,H  32)          120.6537         0.356242   
    108. A(C  21,C  22,H  32)          120.1442         0.354992   
    109. A(C  21,C  22,C  23)          119.2020         0.437300   
    110. A(C  24,C  23,H  33)          119.2357         0.354829   
    111. A(C  22,C  23,H  33)          120.4225         0.356073   
    112. A(C  22,C  23,C  24)          120.3418         0.437307   
    113. A(C  25,C  24,H  34)          120.4599         0.355557   
    114. A(C  23,C  24,H  34)          119.7788         0.355385   
    115. A(C  23,C  24,C  25)          119.7613         0.435909   
    116. A(C  24,C  25,O  26)          123.5604         0.435750   
    117. A(C  20,C  25,O  26)          115.5511         0.431999   
    118. A(C  20,C  25,C  24)          120.8883         0.432378   
    119. A(C  25,O  26,C  27)          118.8578         0.417320   
    120. A(H  36,C  27,H  37)          109.6505         0.289725   
    121. A(H  35,C  27,H  37)          109.5538         0.290638   
    122. A(O  26,C  27,H  37)          111.0762         0.338967   
    123. A(H  35,C  27,H  36)          109.5911         0.290589   
    124. A(O  26,C  27,H  36)          110.9334         0.338907   
    125. A(O  26,C  27,H  35)          105.9636         0.340042   
    126. A(C  18,N  28,O  38)          119.9881         0.442176   
    127. A(C  18,N  28,O  29)          118.6763         0.440224   
    128. A(O  29,N  28,O  38)          120.9898         0.475135   
    129. A(H  42,C  41,C  43)          117.5695         0.364296   
    130. A(C  18,C  41,C  43)          128.3824         0.427439   
    131. A(C  18,C  41,H  42)          113.8279         0.341142   
    132. A(H  44,C  43,N  45)          114.0221         0.351490   
    133. A(C  41,C  43,N  45)          125.0609         0.441683   
    134. A(C  41,C  43,H  44)          120.9094         0.364019   
    135. A(C  46,N  45,C  50)          115.8313         0.386408   
    136. A(C  43,N  45,C  50)          117.5222         0.404643   
    137. A(C  43,N  45,C  46)          119.1037         0.406169   
    138. A(H  48,C  46,H  49)          108.4975         0.289037   
    139. A(H  47,C  46,H  49)          108.4897         0.290374   
    140. A(N  45,C  46,H  49)          109.1070         0.334593   
    141. A(H  47,C  46,H  48)          107.9337         0.288586   
    142. A(N  45,C  46,H  48)          112.3632         0.332412   
    143. A(N  45,C  46,H  47)          110.3575         0.334039   
    144. A(H  52,C  50,H  53)          108.6538         0.290384   
    145. A(H  51,C  50,H  53)          108.2439         0.288946   
    146. A(N  45,C  50,H  53)          109.8386         0.333050   
    147. A(H  51,C  50,H  52)          108.2279         0.289096   
    148. A(N  45,C  50,H  52)          109.5088         0.333233   
    149. A(N  45,C  50,H  51)          112.2850         0.331489   
    150. D(H  40,C   1,C   0,C   5)    178.2834         0.022128   
    151. D(C   2,C   1,C   0,C   5)     -3.1142         0.022128   
    152. D(H  40,C   1,C   0,H  11)      0.8331         0.022128   
    153. D(C   2,C   1,C   0,H  11)    179.4356         0.022128   
    154. D(N   3,C   2,C   1,H  40)   -178.0879         0.034803   
    155. D(H  12,C   2,C   1,H  40)      2.2812         0.034803   
    156. D(N   3,C   2,C   1,C   0)      3.2829         0.034803   
    157. D(H  12,C   2,C   1,C   0)   -176.3480         0.034803   
    158. D(C   4,N   3,C   2,H  12)    176.6363         0.033901   
    159. D(C   6,N   3,C   2,H  12)     11.4528         0.033901   
    160. D(C   4,N   3,C   2,C   1)     -3.0217         0.033901   
    161. D(C   6,N   3,C   2,C   1)   -168.2051         0.033901   
    162. D(C   5,C   4,N   3,C   6)    168.7488         0.027977   
    163. D(C   5,C   4,N   3,C   2)      2.3194         0.027977   
    164. D(H  13,C   4,N   3,C   2)    150.7484         0.027977   
    165. D(H  13,C   4,N   3,C   6)    -42.8223         0.027977   
    166. D(H  14,C   5,C   4,H  13)     29.2638         0.021215   
    167. D(C   0,C   5,C   4,H  13)   -149.3325         0.021215   
    168. D(H  14,C   5,C   0,H  11)      1.4718         0.033680   
    169. D(C   0,C   5,C   4,N   3)     -2.1124         0.021215   
    170. D(H  14,C   5,C   0,C   1)   -175.9717         0.033680   
    171. D(H  14,C   5,C   4,N   3)    176.4839         0.021215   
    172. D(C   4,C   5,C   0,H  11)   -179.9801         0.033680   
    173. D(C   4,C   5,C   0,C   1)      2.5763         0.033680   
    174. D(C  19,C   6,N   3,C   4)    -37.7956         0.018639   
    175. D(C  19,C   6,N   3,C   2)    128.6396         0.018639   
    176. D(H  15,C   6,N   3,C   4)   -153.2235         0.018639   
    177. D(C   7,C   6,N   3,C   2)   -100.6189         0.018639   
    178. D(H  15,C   6,N   3,C   2)     13.2118         0.018639   
    179. D(C   7,C   6,N   3,C   4)     92.9458         0.018639   
    180. D(O   8,C   7,C   6,N   3)      0.1292         0.011211   
    181. D(O   9,C   7,C   6,C  19)    -60.2390         0.011211   
    182. D(O   9,C   7,C   6,H  15)     58.9279         0.011211   
    183. D(O   9,C   7,C   6,N   3)    174.7438         0.011211   
    184. D(O   8,C   7,C   6,C  19)    125.1464         0.011211   
    185. D(O   8,C   7,C   6,H  15)   -115.6867         0.011211   
    186. D(C  10,O   9,C   7,O   8)     -5.1567         0.038519   
    187. D(C  10,O   9,C   7,C   6)   -179.7808         0.038519   
    188. D(H  39,C  10,O   9,C   7)   -178.9640         0.018386   
    189. D(H  17,C  10,O   9,C   7)    -59.7534         0.018386   
    190. D(H  16,C  10,O   9,C   7)     61.5161         0.018386   
    191. D(H  30,C  19,C  18,C  41)   -119.2855         0.010737   
    192. D(C  20,C  19,C  18,C  41)     -3.8185         0.010737   
    193. D(C  20,C  19,C  18,N  28)    145.0602         0.010737   
    194. D(C   6,C  19,C  18,C  41)    130.1917         0.010737   
    195. D(C   6,C  19,C  18,N  28)    -80.9295         0.010737   
    196. D(H  30,C  19,C   6,H  15)      8.8442         0.007090   
    197. D(H  30,C  19,C   6,C   7)    126.8184         0.007090   
    198. D(H  30,C  19,C   6,N   3)   -107.1421         0.007090   
    199. D(C  20,C  19,C   6,H  15)   -105.9879         0.007090   
    200. D(C  20,C  19,C   6,C   7)     11.9863         0.007090   
    201. D(C  20,C  19,C   6,N   3)    138.0258         0.007090   
    202. D(C  18,C  19,C   6,H  15)    120.9736         0.007090   
    203. D(H  30,C  19,C  18,N  28)     29.5932         0.010737   
    204. D(C  18,C  19,C   6,N   3)      4.9873         0.007090   
    205. D(C  18,C  19,C   6,C   7)   -121.0522         0.007090   
    206. D(C  25,C  20,C  19,H  30)   -174.3623         0.012321   
    207. D(C  25,C  20,C  19,C  18)     70.1328         0.012321   
    208. D(C  25,C  20,C  19,C   6)    -60.8887         0.012321   
    209. D(C  21,C  20,C  19,H  30)      6.9744         0.012321   
    210. D(C  21,C  20,C  19,C  18)   -108.5305         0.012321   
    211. D(C  21,C  20,C  19,C   6)    120.4480         0.012321   
    212. D(C  22,C  21,C  20,C  19)    178.6955         0.027734   
    213. D(H  31,C  21,C  20,C  25)    179.9142         0.027734   
    214. D(H  31,C  21,C  20,C  19)     -1.3468         0.027734   
    215. D(C  22,C  21,C  20,C  25)     -0.0434         0.027734   
    216. D(H  32,C  22,C  21,H  31)      0.0054         0.027185   
    217. D(H  32,C  22,C  21,C  20)    179.9625         0.027185   
    218. D(C  23,C  22,C  21,H  31)   -179.9409         0.027185   
    219. D(C  23,C  22,C  21,C  20)      0.0162         0.027185   
    220. D(H  33,C  23,C  22,H  32)      0.0426         0.028411   
    221. D(H  33,C  23,C  22,C  21)    179.9887         0.028411   
    222. D(C  24,C  23,C  22,H  32)   -179.9620         0.028411   
    223. D(C  24,C  23,C  22,C  21)     -0.0159         0.028411   
    224. D(H  34,C  24,C  23,H  33)      0.0489         0.027190   
    225. D(H  34,C  24,C  23,C  22)   -179.9465         0.027190   
    226. D(C  25,C  24,C  23,H  33)   -179.9602         0.027190   
    227. D(C  25,C  24,C  23,C  22)      0.0443         0.027190   
    228. D(O  26,C  25,C  24,H  34)     -0.2161         0.027355   
    229. D(O  26,C  25,C  24,C  23)    179.7931         0.027355   
    230. D(C  20,C  25,C  24,H  34)    179.9177         0.027355   
    231. D(C  20,C  25,C  24,C  23)     -0.0731         0.027355   
    232. D(O  26,C  25,C  20,C  21)   -179.8047         0.024710   
    233. D(O  26,C  25,C  20,C  19)      1.5233         0.024710   
    234. D(C  24,C  25,C  20,C  21)      0.0718         0.024710   
    235. D(C  24,C  25,C  20,C  19)   -178.6002         0.024710   
    236. D(C  27,O  26,C  25,C  24)     -1.0562         0.031061   
    237. D(C  27,O  26,C  25,C  20)    178.8166         0.031061   
    238. D(H  37,C  27,O  26,C  25)    -59.4838         0.020749   
    239. D(H  36,C  27,O  26,C  25)     62.7437         0.020749   
    240. D(H  35,C  27,O  26,C  25)   -178.3862         0.020749   
    241. D(O  38,N  28,C  18,C  41)    -22.6301         0.024023   
    242. D(O  38,N  28,C  18,C  19)   -171.7181         0.024023   
    243. D(O  29,N  28,C  18,C  41)    164.0538         0.024023   
    244. D(O  29,N  28,C  18,C  19)     14.9658         0.024023   
    245. D(C  43,C  41,C  18,N  28)     37.1755         0.016296   
    246. D(C  43,C  41,C  18,C  19)   -176.2323         0.016296   
    247. D(H  42,C  41,C  18,N  28)   -148.4095         0.016296   
    248. D(H  42,C  41,C  18,C  19)     -1.8173         0.016296   
    249. D(N  45,C  43,C  41,H  42)     -2.1095         0.036827   
    250. D(N  45,C  43,C  41,C  18)    172.1265         0.036827   
    251. D(H  44,C  43,C  41,H  42)    178.9514         0.036827   
    252. D(H  44,C  43,C  41,C  18)     -6.8126         0.036827   
    253. D(C  50,N  45,C  43,H  44)    -27.6760         0.029926   
    254. D(C  50,N  45,C  43,C  41)    153.3205         0.029926   
    255. D(C  46,N  45,C  43,H  44)   -176.1481         0.029926   
    256. D(C  46,N  45,C  43,C  41)      4.8484         0.029926   
    257. D(H  49,C  46,N  45,C  50)     37.1802         0.018713   
    258. D(H  49,C  46,N  45,C  43)   -173.8318         0.018713   
    259. D(H  48,C  46,N  45,C  50)    -83.1903         0.018713   
    260. D(H  48,C  46,N  45,C  43)     65.7978         0.018713   
    261. D(H  47,C  46,N  45,C  50)    156.2924         0.018713   
    262. D(H  47,C  46,N  45,C  43)    -54.7195         0.018713   
    263. D(H  53,C  50,N  45,C  46)    -54.4645         0.017917   
    264. D(H  53,C  50,N  45,C  43)    156.0403         0.017917   
    265. D(H  52,C  50,N  45,C  46)   -173.7106         0.017917   
    266. D(H  52,C  50,N  45,C  43)     36.7942         0.017917   
    267. D(H  51,C  50,N  45,C  46)     66.0355         0.017917   
    268. D(H  51,C  50,N  45,C  43)    -83.4597         0.017917   
    -----------------------------------------------------------------

Number of atoms                         .... 54
Number of degrees of freedom            .... 268

         *************************************************************
         *                GEOMETRY OPTIMIZATION CYCLE   1            *
         *************************************************************
---------------------------------
CARTESIAN COORDINATES (ANGSTROEM)
---------------------------------
  C      4.106006    0.268750    0.501054
  C      4.063087    1.229425   -0.538223
  C      2.849284    1.677368   -0.950779
  N      1.710865    1.272683   -0.345472
  C      1.700781    0.347644    0.672640
  C      2.960325   -0.143692    1.111535
  C      0.406806    1.523534   -0.900164
  C     -0.240457    2.707760   -0.201656
  O      0.268628    3.343263    0.685558
  O     -1.389799    3.013959   -0.781060
  C     -2.104644    4.119609   -0.222398
  H      5.063675   -0.109739    0.840025
  H      2.719832    2.366468   -1.775434
  H      0.894015    0.448886    1.387585
  H      2.979107   -0.827782    1.949350
  H      0.538652    1.848221   -1.933942
  H     -1.512319    5.031291   -0.299408
  H     -2.342034    3.921522    0.823039
  C      0.431537   -0.963263   -0.275802
  C     -0.388712    0.137488   -0.942006
  C     -1.836994    0.178677   -0.530566
  C     -2.798636   -0.220785   -1.446394
  C     -4.151653   -0.235760   -1.131279
  C     -4.554983    0.159052    0.132044
  C     -3.617188    0.565013    1.073237
  C     -2.268644    0.574937    0.742658
  O     -1.294244    0.958142    1.594669
  C     -1.653865    1.396017    2.890452
  N      1.403772   -1.485811   -1.129162
  O      1.692314   -0.854415   -2.165948
  H     -0.396524   -0.108001   -2.002353
  H     -2.473830   -0.527927   -2.435137
  H     -4.878646   -0.552673   -1.869291
  H     -5.605678    0.155231    0.399042
  H     -3.942499    0.870964    2.058319
  H     -0.723807    1.676824    3.380274
  H     -2.137193    0.593213    3.453996
  H     -2.318199    2.262841    2.842219
  O      2.050066   -2.490225   -0.791954
  H     -3.015741    4.205851   -0.808310
  H      4.961898    1.590252   -1.016854
  C     -0.173395   -1.818442    0.736312
  H     -1.199585   -1.567834    0.962845
  C      0.411343   -2.786897    1.474678
  H      1.431016   -3.092388    1.282985
  N     -0.181385   -3.447458    2.514494
  C     -1.564696   -3.186842    2.811492
  H     -1.725949   -2.116698    2.962757
  H     -2.236121   -3.520176    2.005428
  H     -1.837711   -3.710473    3.727701
  C      0.285180   -4.782121    2.810113
  H     -0.192307   -5.541205    2.173907
  H      1.363433   -4.834297    2.652853
  H      0.072077   -5.026714    3.852613

----------------------------
CARTESIAN COORDINATES (A.U.)
----------------------------
  NO LB      ZA    FRAG     MASS         X           Y           Z
   0 C     6.0000    0    12.011    7.759227    0.507864    0.946855
   1 C     6.0000    0    12.011    7.678122    2.323277   -1.017094
   2 C     6.0000    0    12.011    5.384366    3.169766   -1.796712
   3 N     7.0000    0    14.007    3.233066    2.405022   -0.652847
   4 C     6.0000    0    12.011    3.214010    0.656952    1.271105
   5 C     6.0000    0    12.011    5.594204   -0.271539    2.100497
   6 C     6.0000    0    12.011    0.768752    2.879062   -1.701063
   7 C     6.0000    0    12.011   -0.454398    5.116925   -0.381075
   8 O     8.0000    0    15.999    0.507633    6.317851    1.295517
   9 O     8.0000    0    15.999   -2.626339    5.695557   -1.475989
  10 C     6.0000    0    12.011   -3.977201    7.784933   -0.420271
  11 H     1.0000    0     1.008    9.568959   -0.207377    1.587417
  12 H     1.0000    0     1.008    5.139738    4.471976   -3.355084
  13 H     1.0000    0     1.008    1.689444    0.848272    2.622156
  14 H     1.0000    0     1.008    5.629696   -1.564281    3.683738
  15 H     1.0000    0     1.008    1.017905    3.492632   -3.654621
  16 H     1.0000    0     1.008   -2.857869    9.507762   -0.565799
  17 H     1.0000    0     1.008   -4.425803    7.410603    1.555318
  18 C     6.0000    0    12.011    0.815487   -1.820303   -0.521190
  19 C     6.0000    0    12.011   -0.734559    0.259815   -1.780133
  20 C     6.0000    0    12.011   -3.471416    0.337651   -1.002624
  21 C     6.0000    0    12.011   -5.288656   -0.417223   -2.733289
  22 C     6.0000    0    12.011   -7.845487   -0.445522   -2.137807
  23 C     6.0000    0    12.011   -8.607670    0.300565    0.249527
  24 C     6.0000    0    12.011   -6.835495    1.067720    2.028124
  25 C     6.0000    0    12.011   -4.287116    1.086473    1.403420
  26 O     8.0000    0    15.999   -2.445767    1.810626    3.013488
  27 C     6.0000    0    12.011   -3.125352    2.638090    5.462163
  28 N     7.0000    0    14.007    2.652745   -2.807776   -2.133807
  29 O     8.0000    0    15.999    3.198010   -1.614610   -4.093049
  30 H     1.0000    0     1.008   -0.749322   -0.204092   -3.783899
  31 H     1.0000    0     1.008   -4.674861   -0.997637   -4.601742
  32 H     1.0000    0     1.008   -9.219305   -1.044401   -3.532448
  33 H     1.0000    0     1.008  -10.593196    0.293344    0.754080
  34 H     1.0000    0     1.008   -7.450243    1.645883    3.889659
  35 H     1.0000    0     1.008   -1.367797    3.168738    6.387792
  36 H     1.0000    0     1.008   -4.038709    1.121010    6.527107
  37 H     1.0000    0     1.008   -4.380761    4.276150    5.371016
  38 O     8.0000    0    15.999    3.874063   -4.705843   -1.496576
  39 H     1.0000    0     1.008   -5.698925    7.947907   -1.527485
  40 H     1.0000    0     1.008    9.376628    3.005141   -1.921576
  41 C     6.0000    0    12.011   -0.327669   -3.436357    1.391428
  42 H     1.0000    0     1.008   -2.266887   -2.962777    1.819513
  43 C     6.0000    0    12.011    0.777326   -5.266472    2.786738
  44 H     1.0000    0     1.008    2.704228   -5.843766    2.424490
  45 N     7.0000    0    14.007   -0.342768   -6.514751    4.751705
  46 C     6.0000    0    12.011   -2.956847   -6.022259    5.312950
  47 H     1.0000    0     1.008   -3.261571   -3.999980    5.598799
  48 H     1.0000    0     1.008   -4.225656   -6.652169    3.789710
  49 H     1.0000    0     1.008   -3.472771   -7.011778    7.044334
  50 C     6.0000    0    12.011    0.538912   -9.036899    5.310344
  51 H     1.0000    0     1.008   -0.363408  -10.471360    4.108089
  52 H     1.0000    0     1.008    2.576515   -9.135497    5.013166
  53 H     1.0000    0     1.008    0.136206   -9.499113    7.280383

--------------------------------
INTERNAL COORDINATES (ANGSTROEM)
--------------------------------
 C      0   0   0     0.000000000000     0.00000000     0.00000000
 C      1   0   0     1.415922024306     0.00000000     0.00000000
 C      2   1   0     1.358003353160   118.28623620     0.00000000
 N      3   2   1     1.351356478889   121.20591437     3.28289092
 C      4   3   2     1.375627450701   122.61992488   356.97834410
 C      1   2   3     1.362123492377   120.59109405   356.88583446
 C      4   3   2     1.439159238773   122.58182734   191.79490625
 C      7   4   3     1.519622991504   110.15859400   259.38105179
 O      8   7   4     1.204234313591   124.73892976     0.12922341
 O      8   7   4     1.323047185773   110.43045219   174.74382385
 C     10   8   7     1.430233731517   116.23417220   180.21924093
 H      1   2   3     1.084105703113   119.54792409   179.43555856
 H      3   2   1     1.082438219636   123.25265151   183.65198785
 H      5   4   3     1.082713108051   115.54984395   150.74840440
 H      6   1   2     1.081788272191   121.59958289   184.02825498
 H      7   4   3     1.091559420723   107.90407886    13.21175272
 H     11  10   8     1.089928215457   110.32887374    61.51608431
 H     11  10   8     1.090197685119   110.05622068   300.24662135
 C      5   4   3     2.056453189730    95.26970500   237.16617835
 C     19   5   4     1.525873178091    94.20286740   324.75204456
 C     20  19   5     1.506154095319   114.66832448   242.42897264
 C     21  20  19     1.386746606699   118.58892087   251.46953910
 C     22  21  20     1.389307999019   121.91435931   178.69553242
 C     23  22  21     1.383667809329   119.20203359     0.00000000
 C     24  23  22     1.389283289612   120.34182892     0.00000000
 C     25  24  23     1.388507069104   119.76134426     0.04433337
 O     26  25  24     1.349897839152   123.56044061   179.79312626
 C     27  26  25     1.414254348537   118.85779802   358.94379940
 N     19   5   4     1.395177622071    95.20672432    77.52154419
 O     29  19   5     1.247734989642   118.67631881   278.26659212
 H     20  19   5     1.088421626427   105.45579800   126.96200244
 H     22  21  20     1.085102698296   118.40699191   358.65315282
 H     23  22  21     1.083334843787   120.14420243   179.96246677
 H     24  23  22     1.084095251844   120.42251215   179.98866437
 H     25  24  23     1.081582085579   119.77875533   180.05347044
 H     28  27  26     1.088019322575   105.96358585   181.61381571
 H     28  27  26     1.093472476991   110.93335693    62.74365421
 H     28  27  26     1.093183393956   111.07617911   300.51615530
 O     29  19   5     1.241069157258   119.98809466    91.58269854
 H     11  10   8     1.086659237165   105.65247936   181.03597930
 H      2   1   3     1.080344839304   121.77425365   181.39751916
 C     19   5   4     1.456587997912   108.06646266   201.02898939
 H     42  19   5     1.080364515269   113.82786869   104.40776929
 C     42  19   5     1.350928556817   128.38235231   289.99281365
 H     44  42  19     1.081574770536   120.90939580   353.18736078
 N     44  42  19     1.367071552831   125.06091021   172.12650284
 C     46  44  42     1.438637492276   119.10373295     4.84838917
 H     47  46  44     1.092745080506   110.35752469   305.28050823
 H     47  46  44     1.100755312627   112.36320329    65.79777271
 H     47  46  44     1.090030066589   109.10699362   186.16824775
 C     46  44  42     1.444437196958   117.52218455   153.32050376
 H     51  46  44     1.099527366036   112.28504438   276.54026848
 H     51  46  44     1.090909058806   109.50877228    36.79420847
 H     51  46  44     1.091808075743   109.83860337   156.04027069

---------------------------
INTERNAL COORDINATES (A.U.)
---------------------------
 C      0   0   0     0.000000000000     0.00000000     0.00000000
 C      1   0   0     2.675704852926     0.00000000     0.00000000
 C      2   1   0     2.566254426419   118.28623620     0.00000000
 N      3   2   1     2.553693654400   121.20591437     3.28289092
 C      4   3   2     2.599559144128   122.61992488   356.97834410
 C      1   2   3     2.574040361173   120.59109405   356.88583446
 C      4   3   2     2.719616824384   122.58182734   191.79490625
 C      7   4   3     2.871671280754   110.15859400   259.38105179
 O      8   7   4     2.275673053758   124.73892976     0.12922341
 O      8   7   4     2.500196843366   110.43045219   174.74382385
 C     10   8   7     2.702750060063   116.23417220   180.21924093
 H      1   2   3     2.048662879106   119.54792409   179.43555856
 H      3   2   1     2.045511792002   123.25265151   183.65198785
 H      5   4   3     2.046031255823   115.54984395   150.74840440
 H      6   1   2     2.044283569328   121.59958289   184.02825498
 H      7   4   3     2.062748364068   107.90407886    13.21175272
 H     11  10   8     2.059665832847   110.32887374    61.51608431
 H     11  10   8     2.060175056709   110.05622068   300.24662135
 C      5   4   3     3.886133335818    95.26970500   237.16617835
 C     19   5   4     2.883482421688    94.20286740   324.75204456
 C     20  19   5     2.846218755636   114.66832448   242.42897264
 C     21  20  19     2.620571303806   118.58892087   251.46953910
 C     22  21  20     2.625411633813   121.91435931   178.69553242
 C     23  22  21     2.614753219954   119.20203359     0.00000000
 C     24  23  22     2.625364939800   120.34182892     0.00000000
 C     25  24  23     2.623898095621   119.76134426     0.04433337
 O     26  25  24     2.550937224768   123.56044061   179.79312626
 C     27  26  25     2.672553402442   118.85779802   358.94379940
 N     19   5   4     2.636503613891    95.20672432    77.52154419
 O     29  19   5     2.357877418134   118.67631881   278.26659212
 H     20  19   5     2.056818792184   105.45579800   126.96200244
 H     22  21  20     2.050546926958   118.40699191   358.65315282
 H     23  22  21     2.047206166091   120.14420243   179.96246677
 H     24  23  22     2.048643129069   120.42251215   179.98866437
 H     25  24  23     2.043893933100   119.77875533   180.05347044
 H     28  27  26     2.056058548082   105.96358585   181.61381571
 H     28  27  26     2.066363516493   110.93335693    62.74365421
 H     28  27  26     2.065817228727   111.07617911   300.51615530
 O     29  19   5     2.345280820473   119.98809466    91.58269854
 H     11  10   8     2.053488359138   105.65247936   181.03597930
 H      2   1   3     2.041555876480   121.77425365   181.39751916
 C     19   5   4     2.752552406010   108.06646266   201.02898939
 H     42  19   5     2.041593058666   113.82786869   104.40776929
 C     42  19   5     2.552884998879   128.38235231   289.99281365
 H     44  42  19     2.043880109671   120.90939580   353.18736078
 N     44  42  19     2.583390840326   125.06091021   172.12650284
 C     46  44  42     2.718630866392   119.10373295     4.84838917
 H     47  46  44     2.064988936346   110.35752469   305.28050823
 H     47  46  44     2.080126081324   112.36320329    65.79777271
 H     47  46  44     2.059858303592   109.10699362   186.16824775
 C     46  44  42     2.729590719899   117.52218455   153.32050376
 H     51  46  44     2.077805598559   112.28504438   276.54026848
 H     51  46  44     2.061519358157   109.50877228    36.79420847
 H     51  46  44     2.063218253958   109.83860337   156.04027069

---------------------
BASIS SET INFORMATION
---------------------
There are 4 groups of distinct atoms

 Group   1 Type C   : 11s6p2d1f contracted to 5s3p2d1f pattern {62111/411/11/1}
 Group   2 Type N   : 11s6p2d1f contracted to 5s3p2d1f pattern {62111/411/11/1}
 Group   3 Type O   : 11s6p2d1f contracted to 5s3p2d1f pattern {62111/411/11/1}
 Group   4 Type H   : 5s1p contracted to 3s1p pattern {311/1}

Atom   0C    basis set group =>   1
Atom   1C    basis set group =>   1
Atom   2C    basis set group =>   1
Atom   3N    basis set group =>   2
Atom   4C    basis set group =>   1
Atom   5C    basis set group =>   1
Atom   6C    basis set group =>   1
Atom   7C    basis set group =>   1
Atom   8O    basis set group =>   3
Atom   9O    basis set group =>   3
Atom  10C    basis set group =>   1
Atom  11H    basis set group =>   4
Atom  12H    basis set group =>   4
Atom  13H    basis set group =>   4
Atom  14H    basis set group =>   4
Atom  15H    basis set group =>   4
Atom  16H    basis set group =>   4
Atom  17H    basis set group =>   4
Atom  18C    basis set group =>   1
Atom  19C    basis set group =>   1
Atom  20C    basis set group =>   1
Atom  21C    basis set group =>   1
Atom  22C    basis set group =>   1
Atom  23C    basis set group =>   1
Atom  24C    basis set group =>   1
Atom  25C    basis set group =>   1
Atom  26O    basis set group =>   3
Atom  27C    basis set group =>   1
Atom  28N    basis set group =>   2
Atom  29O    basis set group =>   3
Atom  30H    basis set group =>   4
Atom  31H    basis set group =>   4
Atom  32H    basis set group =>   4
Atom  33H    basis set group =>   4
Atom  34H    basis set group =>   4
Atom  35H    basis set group =>   4
Atom  36H    basis set group =>   4
Atom  37H    basis set group =>   4
Atom  38O    basis set group =>   3
Atom  39H    basis set group =>   4
Atom  40H    basis set group =>   4
Atom  41C    basis set group =>   1
Atom  42H    basis set group =>   4
Atom  43C    basis set group =>   1
Atom  44H    basis set group =>   4
Atom  45N    basis set group =>   2
Atom  46C    basis set group =>   1
Atom  47H    basis set group =>   4
Atom  48H    basis set group =>   4
Atom  49H    basis set group =>   4
Atom  50C    basis set group =>   1
Atom  51H    basis set group =>   4
Atom  52H    basis set group =>   4
Atom  53H    basis set group =>   4
---------------------------------
AUXILIARY/J BASIS SET INFORMATION
---------------------------------
There are 4 groups of distinct atoms

 Group   1 Type C   : 12s5p4d2f1g contracted to 6s4p3d1f1g pattern {711111/2111/211/2/1}
 Group   2 Type N   : 12s5p4d2f1g contracted to 6s4p3d1f1g pattern {711111/2111/211/2/1}
 Group   3 Type O   : 12s5p4d2f1g contracted to 6s4p3d1f1g pattern {711111/2111/211/2/1}
 Group   4 Type H   : 5s2p1d contracted to 3s1p1d pattern {311/2/1}

Atom   0C    basis set group =>   1
Atom   1C    basis set group =>   1
Atom   2C    basis set group =>   1
Atom   3N    basis set group =>   2
Atom   4C    basis set group =>   1
Atom   5C    basis set group =>   1
Atom   6C    basis set group =>   1
Atom   7C    basis set group =>   1
Atom   8O    basis set group =>   3
Atom   9O    basis set group =>   3
Atom  10C    basis set group =>   1
Atom  11H    basis set group =>   4
Atom  12H    basis set group =>   4
Atom  13H    basis set group =>   4
Atom  14H    basis set group =>   4
Atom  15H    basis set group =>   4
Atom  16H    basis set group =>   4
Atom  17H    basis set group =>   4
Atom  18C    basis set group =>   1
Atom  19C    basis set group =>   1
Atom  20C    basis set group =>   1
Atom  21C    basis set group =>   1
Atom  22C    basis set group =>   1
Atom  23C    basis set group =>   1
Atom  24C    basis set group =>   1
Atom  25C    basis set group =>   1
Atom  26O    basis set group =>   3
Atom  27C    basis set group =>   1
Atom  28N    basis set group =>   2
Atom  29O    basis set group =>   3
Atom  30H    basis set group =>   4
Atom  31H    basis set group =>   4
Atom  32H    basis set group =>   4
Atom  33H    basis set group =>   4
Atom  34H    basis set group =>   4
Atom  35H    basis set group =>   4
Atom  36H    basis set group =>   4
Atom  37H    basis set group =>   4
Atom  38O    basis set group =>   3
Atom  39H    basis set group =>   4
Atom  40H    basis set group =>   4
Atom  41C    basis set group =>   1
Atom  42H    basis set group =>   4
Atom  43C    basis set group =>   1
Atom  44H    basis set group =>   4
Atom  45N    basis set group =>   2
Atom  46C    basis set group =>   1
Atom  47H    basis set group =>   4
Atom  48H    basis set group =>   4
Atom  49H    basis set group =>   4
Atom  50C    basis set group =>   1
Atom  51H    basis set group =>   4
Atom  52H    basis set group =>   4
Atom  53H    basis set group =>   4


           ************************************************************
           *        Program running with 24 parallel MPI-processes    *
           *              working on a common directory               *
           ************************************************************
------------------------------------------------------------------------------
                           ORCA GTO INTEGRAL CALCULATION
                           -- RI-GTO INTEGRALS CHOSEN --
------------------------------------------------------------------------------
------------------------------------------------------------------------------
                   ___                                                        
                  /   \      - P O W E R E D   B Y -                         
                 /     \                                                     
                 |  |  |   _    _      __       _____    __    __             
                 |  |  |  | |  | |    /  \     |  _  \  |  |  /  |          
                  \  \/   | |  | |   /    \    | | | |  |  | /  /          
                 / \  \   | |__| |  /  /\  \   | |_| |  |  |/  /          
                |  |  |   |  __  | /  /__\  \  |    /   |      \           
                |  |  |   | |  | | |   __   |  |    \   |  |\   \          
                \     /   | |  | | |  |  |  |  | |\  \  |  | \   \       
                 \___/    |_|  |_| |__|  |__|  |_| \__\ |__|  \__/        
                                                                              
                      - O R C A' S   B I G   F R I E N D -                    
                                      &                                       
                       - I N T E G R A L  F E E D E R -                       
                                                                              
 v1 FN, 2020, v2 2021                                                         
------------------------------------------------------------------------------


Reading SHARK input file TS1_CHCHNMe2/TS1_CHCHNMe2.SHARKINP.tmp ... ok
----------------------
SHARK INTEGRAL PACKAGE
----------------------

Number of atoms                             ...     54
Number of basis functions                   ...   1049
Number of shells                            ...    419
Maximum angular momentum                    ...      3
Integral batch strategy                     ... SHARK/LIBINT Hybrid
RI-J (if used) integral strategy            ... SPLIT-RIJ (Revised 2003 algorithm where possible)
Printlevel                                  ...      1
Contraction scheme used                     ... SEGMENTED contraction
Coulomb Range Separation                    ... NOT USED
Exchange Range Separation                   ... NOT USED
Finite Nucleus Model                        ... NOT USED
Auxiliary Coulomb fitting basis             ... AVAILABLE
   # of basis functions in Aux-J            ...   1696
   # of shells in Aux-J                     ...    560
   Maximum angular momentum in Aux-J        ...      4
Auxiliary J/K fitting basis                 ... NOT available
Auxiliary Correlation fitting basis         ... NOT available
Auxiliary 'external' fitting basis          ... NOT available
Integral threshold                          ...     2.500000e-11
Primitive cut-off                           ...     2.500000e-12
Primitive pair pre-selection threshold      ...     2.500000e-12

Calculating pre-screening integrals         ... done (  0.1 sec) Dimension = 419
Organizing shell pair data                  ... done (  0.8 sec)
Shell pair information
Total number of shell pairs                 ...     87990
Shell pairs after pre-screening             ...     61670
Total number of primitive shell pairs       ...    267528
Primitive shell pairs kept                  ...    121539
          la=0 lb=0:  16438 shell pairs
          la=1 lb=0:  17972 shell pairs
          la=1 lb=1:   4928 shell pairs
          la=2 lb=0:   8655 shell pairs
          la=2 lb=1:   4816 shell pairs
          la=2 lb=2:   1211 shell pairs
          la=3 lb=0:   4002 shell pairs
          la=3 lb=1:   2275 shell pairs
          la=3 lb=2:   1099 shell pairs
          la=3 lb=3:    274 shell pairs

Calculating one electron integrals          ... done (  0.1 sec)
Calculating RI/J V-Matrix + Cholesky decomp.... done (  0.3 sec)
Calculating Nuclear repulsion               ... done (  0.0 sec) ENN=   3096.782478185286 Eh

SHARK setup successfully completed in   2.3 seconds

Maximum memory used throughout the entire GTOINT-calculation: 90.7 MB


           ************************************************************
           *        Program running with 24 parallel MPI-processes    *
           *              working on a common directory               *
           ************************************************************
-------------------------------------------------------------------------------
                                 ORCA SCF
-------------------------------------------------------------------------------

------------
SCF SETTINGS
------------
Hamiltonian:
 Density Functional     Method          .... DFT(GTOs)
 Exchange Functional    Exchange        .... PBE
   PBE kappa parameter   XKappa         ....  0.804000
   PBE mue parameter    XMuePBE         ....  0.219520
 Correlation Functional Correlation     .... PBE
   PBE beta parameter  CBetaPBE         ....  0.066725
 LDA part of GGA corr.  LDAOpt          .... PW91-LDA
 Gradients option       PostSCFGGA      .... off
 Hybrid DFT is turned on
   Fraction HF Exchange ScalHFX         ....  0.250000
   Scaling of DF-GGA-X  ScalDFX         ....  0.750000
   Scaling of DF-GGA-C  ScalDFC         ....  1.000000
   Scaling of DF-LDA-C  ScalLDAC        ....  1.000000
   Perturbative correction              ....  0.000000
   Density functional embedding theory  .... OFF
   NL short-range parameter             ....  6.900000
 RI-approximation to the Coulomb term is turned on
   Number of AuxJ basis functions       .... 1696
   RIJ-COSX (HFX calculated with COS-X)).... on


General Settings:
 Integral files         IntName         .... TS1_CHCHNMe2/TS1_CHCHNMe2
 Hartree-Fock type      HFTyp           .... RHF
 Total Charge           Charge          ....    0
 Multiplicity           Mult            ....    1
 Number of Electrons    NEL             ....  212
 Basis Dimension        Dim             .... 1049
 Nuclear Repulsion      ENuc            ....   3096.7824781853 Eh

Convergence Acceleration:
 DIIS                   CNVDIIS         .... on
   Start iteration      DIISMaxIt       ....    12
   Startup error        DIISStart       ....  0.200000
   # of expansion vecs  DIISMaxEq       ....     5
   Bias factor          DIISBfac        ....   1.050
   Max. coefficient     DIISMaxC        ....  10.000
 Trust-Rad. Augm. Hess. CNVTRAH         .... auto
   Auto Start mean grad. ratio tolernc. ....  1.125000
   Auto Start start iteration           ....    20
   Auto Start num. interpolation iter.  ....    10
   Max. Number of Micro iterations      ....    16
   Max. Number of Macro iterations      .... Maxiter - #DIIS iter
   Number of Davidson start vectors     ....     2
   Converg. threshold I  (grad. norm)   ....   1.000e-05
   Converg. threshold II (energy diff.) ....   1.000e-08
   Grad. Scal. Fac. for Micro threshold ....   0.100
   Minimum threshold for Micro iter.    ....   0.010
   NR start threshold (gradient norm)   ....   0.001
   Initial trust radius                 ....   0.400
   Minimum AH scaling param. (alpha)    ....   1.000
   Maximum AH scaling param. (alpha)    .... 1000.000
   Orbital update algorithm             .... Taylor
   White noise on init. David. guess    .... on
   Maximum white noise                  ....   0.010
   Quad. conv. algorithm                .... NR
 SOSCF                  CNVSOSCF        .... on
   Start iteration      SOSCFMaxIt      ....   150
   Startup grad/error   SOSCFStart      ....  0.003300
 Level Shifting         CNVShift        .... on
   Level shift para.    LevelShift      ....    0.2500
   Turn off err/grad.   ShiftErr        ....    0.0010
 Zerner damping         CNVZerner       .... off
 Static damping         CNVDamp         .... on
   Fraction old density DampFac         ....    0.7000
   Max. Damping (<1)    DampMax         ....    0.9800
   Min. Damping (>=0)   DampMin         ....    0.0000
   Turn off err/grad.   DampErr         ....    0.1000
 Fernandez-Rico         CNVRico         .... off

SCF Procedure:
 Maximum # iterations   MaxIter         ....   800
 SCF integral mode      SCFMode         .... Direct
   Integral package                     .... SHARK and LIBINT hybrid scheme
 Reset frequency        DirectResetFreq ....    20
 Integral Threshold     Thresh          ....  2.500e-11 Eh
 Primitive CutOff       TCut            ....  2.500e-12 Eh

Convergence Tolerance:
 Convergence Check Mode ConvCheckMode   .... Total+1el-Energy
 Convergence forced     ConvForced      .... 0
 Energy Change          TolE            ....  1.000e-08 Eh
 1-El. energy change                    ....  1.000e-05 Eh
 Orbital Gradient       TolG            ....  1.000e-05
 Orbital Rotation angle TolX            ....  1.000e-05
 DIIS Error             TolErr          ....  5.000e-07


Diagonalization of the overlap matrix:
Smallest eigenvalue                        ... 5.118e-06
Time for diagonalization                   ...    0.224 sec
Threshold for overlap eigenvalues          ... 1.000e-08
Number of eigenvalues below threshold      ... 0
Time for construction of square roots      ...    0.173 sec
Total time needed                          ...    0.404 sec

Time for model grid setup =    0.499 sec

------------------------------
INITIAL GUESS: MODEL POTENTIAL
------------------------------
Loading Hartree-Fock densities                     ... done
Calculating cut-offs                               ... done
Initializing the effective Hamiltonian             ... done
Setting up the integral package (SHARK)            ... done
Starting the Coulomb interaction                   ... done (   0.7 sec)
Reading the grid                                   ... done
Mapping shells                                     ... done
Starting the XC term evaluation                    ... done (   0.3 sec)
  promolecular density results
     # of electrons  =    211.981109539
     EX              =   -175.325563004
     EC              =     -7.180925312
     EX+EC           =   -182.506488316
Transforming the Hamiltonian                       ... done (   0.1 sec)
Diagonalizing the Hamiltonian                      ... done (   0.2 sec)
Back transforming the eigenvectors                 ... done (   0.1 sec)
Now organizing SCF variables                       ... done
                      ------------------
                      INITIAL GUESS DONE (   2.0 sec)
                      ------------------
-------------------
DFT GRID GENERATION
-------------------

General Integration Accuracy     IntAcc      ... 4.388
Radial Grid Type                 RadialGrid  ... OptM3 with GC (2021)
Angular Grid (max. ang.)         AngularGrid ... 4 (Lebedev-302)
Angular grid pruning method      GridPruning ... 4 (adaptive)
Weight generation scheme         WeightScheme... Becke
Basis function cutoff            BFCut       ... 1.0000e-11
Integration weight cutoff        WCut        ... 1.0000e-14
Angular grids for H and He will be reduced by one unit
Partially contracted basis set               ... off
Rotationally invariant grid construction     ... off

Total number of grid points                  ...   251289
Total number of batches                      ...     3956
Average number of points per batch           ...       63
Average number of grid points per atom       ...     4654
Time for grid setup =    1.964 sec

--------------------
COSX GRID GENERATION
--------------------

GRIDX 1
-------
General Integration Accuracy     IntAcc      ... 3.816
Radial Grid Type                 RadialGrid  ... OptM3 with GC (2021)
Angular Grid (max. ang.)         AngularGrid ... 1 (Lebedev-50)
Angular grid pruning method      GridPruning ... 4 (adaptive)
Weight generation scheme         WeightScheme... Becke
Basis function cutoff            BFCut       ... 1.0000e-11
Integration weight cutoff        WCut        ... 1.0000e-14
Angular grids for H and He will be reduced by one unit
Partially contracted basis set               ... on
Rotationally invariant grid construction     ... off

Total number of grid points                  ...    31849
Total number of batches                      ...      527
Average number of points per batch           ...       60
Average number of grid points per atom       ...      590
UseSFitting                                  ... on

GRIDX 2
-------
General Integration Accuracy     IntAcc      ... 4.020
Radial Grid Type                 RadialGrid  ... OptM3 with GC (2021)
Angular Grid (max. ang.)         AngularGrid ... 2 (Lebedev-110)
Angular grid pruning method      GridPruning ... 4 (adaptive)
Weight generation scheme         WeightScheme... Becke
Basis function cutoff            BFCut       ... 1.0000e-11
Integration weight cutoff        WCut        ... 1.0000e-14
Angular grids for H and He will be reduced by one unit
Partially contracted basis set               ... on
Rotationally invariant grid construction     ... off

Total number of grid points                  ...    68192
Total number of batches                      ...     1092
Average number of points per batch           ...       62
Average number of grid points per atom       ...     1263
UseSFitting                                  ... on

GRIDX 3
-------
General Integration Accuracy     IntAcc      ... 4.338
Radial Grid Type                 RadialGrid  ... OptM3 with GC (2021)
Angular Grid (max. ang.)         AngularGrid ... 3 (Lebedev-194)
Angular grid pruning method      GridPruning ... 4 (adaptive)
Weight generation scheme         WeightScheme... Becke
Basis function cutoff            BFCut       ... 1.0000e-11
Integration weight cutoff        WCut        ... 1.0000e-14
Angular grids for H and He will be reduced by one unit
Partially contracted basis set               ... on
Rotationally invariant grid construction     ... off

Total number of grid points                  ...   148494
Total number of batches                      ...     2348
Average number of points per batch           ...       63
Average number of grid points per atom       ...     2750
UseSFitting                                  ... on

Time for X-Grid setup             =    3.583 sec


--------------------
CPCM SOLVATION MODEL
--------------------
CPCM parameters:
  Epsilon                                         ...      47.2000
  Refrac                                          ...       1.4790
  Rsolv                                           ...       1.3000
  Surface type                                    ... GAUSSIAN VDW
  Epsilon function type                           ...         CPCM
Radii:
 Radius for C  used is    3.8550 Bohr (=   2.0400 Ang.)
 Radius for N  used is    3.5149 Bohr (=   1.8600 Ang.)
 Radius for O  used is    3.4469 Bohr (=   1.8240 Ang.)
 Radius for H  used is    2.4944 Bohr (=   1.3200 Ang.)
Calculating surface                               ...        done! (  0.0s)
GEPOL surface points                              ...         2659
GEPOL Volume                                      ...    3098.3104
GEPOL Surface-area                                ...    1499.2310
Calculating surface distance matrix               ...        done! (  0.1s)
Performing Cholesky decomposition & store         ...        done! (  0.4s)
Overall time for CPCM initialization              ...                 0.5s
--------------
SCF ITERATIONS
--------------
ITER       Energy         Delta-E        Max-DP      RMS-DP      [F,P]     Damp
               ***  Starting incremental Fock matrix formation  ***
  0  -1353.8259553860   0.000000000000 0.16689431  0.00070030  0.2619440 0.7000
  1  -1354.1174252111  -0.291469825097 0.14027286  0.00063022  0.1031549 0.7000
                               ***Turning on DIIS***
  2  -1354.2376107684  -0.120185557324 0.19428391  0.00123176  0.0358524 0.0000
  3  -1354.4318072619  -0.194196493445 0.13068308  0.00046226  0.0510419 0.0000
  4  -1354.4680832483  -0.036275986444 0.02426261  0.00018284  0.0141335 0.0000
  5  -1354.4704074232  -0.002324174872 0.01890709  0.00006309  0.0069798 0.0000
                      *** Initiating the SOSCF procedure ***
                           *** Shutting down DIIS ***
                      *** Re-Reading the Fockian *** 
                      *** Removing any level shift *** 
ITER      Energy       Delta-E        Grad      Rot      Max-DP    RMS-DP
  6  -1354.47062683  -0.0002194095  0.000251  0.000251  0.004988  0.000034
               *** Restarting incremental Fock matrix formation ***
  7  -1354.47066400  -0.0000371689  0.000222  0.001378  0.002331  0.000024
  8  -1354.47065380   0.0000102020  0.000378  0.000875  0.001152  0.000008
  9  -1354.47067081  -0.0000170059  0.000048  0.000177  0.000284  0.000002
 10  -1354.47067059   0.0000002131  0.000090  0.000115  0.000330  0.000002
 11  -1354.47067088  -0.0000002841  0.000013  0.000039  0.000833  0.000002
                 **** Energy Check signals convergence ****
              ***Rediagonalizing the Fockian in SOSCF/NRSCF***

               *****************************************************
               *                     SUCCESS                       *
               *           SCF CONVERGED AFTER  12 CYCLES          *
               *****************************************************

Old exchange energy                            =    -44.707952744 Eh
New exchange energy                            =    -44.707976627 Eh
Exchange energy change after final integration =     -0.000023883 Eh
Total energy after final integration           =  -1354.470694767 Eh
Final COS-X integration done in                =    27.140 sec

----------------
TOTAL SCF ENERGY
----------------

Total Energy       :        -1354.47069477 Eh          -36857.02138 eV

Components:
Nuclear Repulsion  :         3096.78247819 Eh           84267.73532 eV
Electronic Energy  :        -4451.25317295 Eh         -121124.75670 eV
One Electron Energy:        -8008.26178342 Eh         -217915.88176 eV
Two Electron Energy:         3557.00861047 Eh           96791.12506 eV
Max COSX asymmetry :            0.00000232 Eh               0.00006 eV
CPCM Dielectric    :           -0.04269539 Eh              -1.16180 eV

Virial components:
Potential Energy   :        -2702.92844070 Eh          -73550.42210 eV
Kinetic Energy     :         1348.45774593 Eh           36693.40072 eV
Virial Ratio       :            2.00445913


DFT components:
N(Alpha)           :      105.999696988403 electrons
N(Beta)            :      105.999696988403 electrons
N(Total)           :      211.999393976807 electrons
E(X)               :     -133.867106483653 Eh       
E(C)               :       -7.164971494765 Eh       
E(XC)              :     -141.032077978418 Eh       
DFET-embed. en.    :        0.000000000000 Eh       
CPCM Solvation Model Properties:
Surface-charge          :           -0.03444379
Charge-correction       :           -0.00039662 Eh              -0.01079 eV
Free-energy (cav+disp)  :  This term is not implemented in the current solvation scheme

---------------
SCF CONVERGENCE
---------------

  Last Energy change         ...   -7.0290e-09  Tolerance :   1.0000e-08
  Last MAX-Density change    ...    2.9976e-15  Tolerance :   1.0000e-07
  Last RMS-Density change    ...    1.2543e-17  Tolerance :   5.0000e-09
  Last Orbital Gradient      ...    1.6199e-05  Tolerance :   1.0000e-05
  Last Orbital Rotation      ...    2.1691e-05  Tolerance :   1.0000e-05

             **** THE GBW FILE WAS UPDATED (TS1_CHCHNMe2/TS1_CHCHNMe2.gbw) ****
             **** DENSITY TS1_CHCHNMe2/TS1_CHCHNMe2.scfp WAS UPDATED ****
             **** ENERGY FILE WAS UPDATED (TS1_CHCHNMe2/TS1_CHCHNMe2.en.tmp) ****
             **** THE GBW FILE WAS UPDATED (TS1_CHCHNMe2/TS1_CHCHNMe2.gbw) ****
             **** DENSITY TS1_CHCHNMe2/TS1_CHCHNMe2.scfp WAS UPDATED ****
----------------
ORBITAL ENERGIES
----------------

  NO   OCC          E(Eh)            E(eV) 
   0   2.0000     -19.264789      -524.2216 
   1   2.0000     -19.248593      -523.7808 
   2   2.0000     -19.203441      -522.5522 
   3   2.0000     -19.200320      -522.4673 
   4   2.0000     -19.199347      -522.4408 
   5   2.0000     -14.574942      -396.6043 
   6   2.0000     -14.461499      -393.5174 
   7   2.0000     -14.400869      -391.8676 
   8   2.0000     -10.362809      -281.9864 
   9   2.0000     -10.293903      -280.1114 
  10   2.0000     -10.290495      -280.0186 
  11   2.0000     -10.290100      -280.0079 
  12   2.0000     -10.281782      -279.7815 
  13   2.0000     -10.273803      -279.5644 
  14   2.0000     -10.271230      -279.4944 
  15   2.0000     -10.267779      -279.4005 
  16   2.0000     -10.259103      -279.1644 
  17   2.0000     -10.248110      -278.8653 
  18   2.0000     -10.244034      -278.7543 
  19   2.0000     -10.239279      -278.6249 
  20   2.0000     -10.239113      -278.6204 
  21   2.0000     -10.237808      -278.5849 
  22   2.0000     -10.235380      -278.5188 
  23   2.0000     -10.229380      -278.3556 
  24   2.0000     -10.228494      -278.3315 
  25   2.0000     -10.227901      -278.3153 
  26   2.0000     -10.225881      -278.2604 
  27   2.0000     -10.220920      -278.1254 
  28   2.0000     -10.203144      -277.6417 
  29   2.0000      -1.221579       -33.2408 
  30   2.0000      -1.156269       -31.4637 
  31   2.0000      -1.112248       -30.2658 
  32   2.0000      -1.064911       -28.9777 
  33   2.0000      -1.045092       -28.4384 
  34   2.0000      -1.036452       -28.2033 
  35   2.0000      -0.975556       -26.5462 
  36   2.0000      -0.899211       -24.4688 
  37   2.0000      -0.874647       -23.8004 
  38   2.0000      -0.860190       -23.4070 
  39   2.0000      -0.814806       -22.1720 
  40   2.0000      -0.808642       -22.0043 
  41   2.0000      -0.787522       -21.4296 
  42   2.0000      -0.779852       -21.2208 
  43   2.0000      -0.770003       -20.9528 
  44   2.0000      -0.747135       -20.3306 
  45   2.0000      -0.738942       -20.1076 
  46   2.0000      -0.724252       -19.7079 
  47   2.0000      -0.702541       -19.1171 
  48   2.0000      -0.682041       -18.5593 
  49   2.0000      -0.677688       -18.4408 
  50   2.0000      -0.657868       -17.9015 
  51   2.0000      -0.629265       -17.1232 
  52   2.0000      -0.615104       -16.7378 
  53   2.0000      -0.600863       -16.3503 
  54   2.0000      -0.593114       -16.1395 
  55   2.0000      -0.574337       -15.6285 
  56   2.0000      -0.561952       -15.2915 
  57   2.0000      -0.554782       -15.0964 
  58   2.0000      -0.547967       -14.9109 
  59   2.0000      -0.537630       -14.6297 
  60   2.0000      -0.531718       -14.4688 
  61   2.0000      -0.526497       -14.3267 
  62   2.0000      -0.516150       -14.0452 
  63   2.0000      -0.515538       -14.0285 
  64   2.0000      -0.512446       -13.9444 
  65   2.0000      -0.506717       -13.7885 
  66   2.0000      -0.501722       -13.6525 
  67   2.0000      -0.496066       -13.4986 
  68   2.0000      -0.486140       -13.2285 
  69   2.0000      -0.485037       -13.1985 
  70   2.0000      -0.476292       -12.9606 
  71   2.0000      -0.473047       -12.8723 
  72   2.0000      -0.463017       -12.5993 
  73   2.0000      -0.460629       -12.5344 
  74   2.0000      -0.459624       -12.5070 
  75   2.0000      -0.446642       -12.1537 
  76   2.0000      -0.440720       -11.9926 
  77   2.0000      -0.436055       -11.8656 
  78   2.0000      -0.424766       -11.5585 
  79   2.0000      -0.419959       -11.4277 
  80   2.0000      -0.407355       -11.0847 
  81   2.0000      -0.404490       -11.0067 
  82   2.0000      -0.401610       -10.9284 
  83   2.0000      -0.398822       -10.8525 
  84   2.0000      -0.393515       -10.7081 
  85   2.0000      -0.387684       -10.5494 
  86   2.0000      -0.382436       -10.4066 
  87   2.0000      -0.381037       -10.3685 
  88   2.0000      -0.376856       -10.2548 
  89   2.0000      -0.375977       -10.2308 
  90   2.0000      -0.372660       -10.1406 
  91   2.0000      -0.367719       -10.0062 
  92   2.0000      -0.346189        -9.4203 
  93   2.0000      -0.343830        -9.3561 
  94   2.0000      -0.334474        -9.1015 
  95   2.0000      -0.330848        -9.0028 
  96   2.0000      -0.325977        -8.8703 
  97   2.0000      -0.308970        -8.4075 
  98   2.0000      -0.307150        -8.3580 
  99   2.0000      -0.302982        -8.2446 
 100   2.0000      -0.295496        -8.0409 
 101   2.0000      -0.278612        -7.5814 
 102   2.0000      -0.269966        -7.3461 
 103   2.0000      -0.241449        -6.5702 
 104   2.0000      -0.233201        -6.3457 
 105   2.0000      -0.181184        -4.9303 
 106   0.0000      -0.061132        -1.6635 
 107   0.0000      -0.029535        -0.8037 
 108   0.0000      -0.013634        -0.3710 
 109   0.0000      -0.003982        -0.1084 
 110   0.0000       0.003719         0.1012 
 111   0.0000       0.007776         0.2116 
 112   0.0000       0.040913         1.1133 
 113   0.0000       0.052830         1.4376 
 114   0.0000       0.058400         1.5891 
 115   0.0000       0.063857         1.7376 
 116   0.0000       0.065648         1.7864 
 117   0.0000       0.071094         1.9346 
 118   0.0000       0.080830         2.1995 
 119   0.0000       0.084219         2.2917 
 120   0.0000       0.089037         2.4228 
 121   0.0000       0.093289         2.5385 
 122   0.0000       0.098049         2.6681 
 123   0.0000       0.101099         2.7511 
 124   0.0000       0.107475         2.9245 
 125   0.0000       0.108637         2.9562 
 126   0.0000       0.112984         3.0745 
 127   0.0000       0.114958         3.1282 
 128   0.0000       0.119982         3.2649 
 129   0.0000       0.120757         3.2860 
 130   0.0000       0.125865         3.4249 
 131   0.0000       0.128520         3.4972 
 132   0.0000       0.131965         3.5909 
 133   0.0000       0.137546         3.7428 
 134   0.0000       0.143795         3.9129 
 135   0.0000       0.144124         3.9218 
 136   0.0000       0.147920         4.0251 
 137   0.0000       0.153465         4.1760 
 138   0.0000       0.155824         4.2402 
 139   0.0000       0.157071         4.2741 
 140   0.0000       0.161747         4.4014 
 141   0.0000       0.163800         4.4572 
 142   0.0000       0.170677         4.6444 
 143   0.0000       0.177019         4.8169 
 144   0.0000       0.181789         4.9467 
 145   0.0000       0.183689         4.9984 
 146   0.0000       0.192758         5.2452 
 147   0.0000       0.192830         5.2472 
 148   0.0000       0.198518         5.4020 
 149   0.0000       0.203236         5.5303 
 150   0.0000       0.205774         5.5994 
 151   0.0000       0.207646         5.6503 
 152   0.0000       0.210913         5.7392 
 153   0.0000       0.216224         5.8838 
 154   0.0000       0.218388         5.9426 
 155   0.0000       0.224726         6.1151 
 156   0.0000       0.227686         6.1956 
 157   0.0000       0.229061         6.2331 
[...]
 70:    956.09   0.003281   16.58  0.001071  ( 0.001494 -0.031563 -0.008508)
 71:    964.31   0.000175    0.88  0.000057  (-0.002658  0.007037 -0.000223)
 72:    976.89   0.022877  115.61  0.007308  (-0.021355 -0.078702 -0.025654)
 73:    988.14   0.001149    5.80  0.000363  ( 0.002559 -0.014995 -0.011459)
 74:    994.83   0.006284   31.76  0.001971  ( 0.004942 -0.035122 -0.026709)
 75:   1004.36   0.015469   78.17  0.004806  ( 0.014705  0.060090  0.031295)
 76:   1009.91   0.003593   18.16  0.001110  (-0.001201  0.024836  0.022182)
 77:   1047.39   0.009248   46.74  0.002755  ( 0.039897 -0.007329 -0.033316)
 78:   1051.17   0.006141   31.03  0.001823  ( 0.017319 -0.038571 -0.005943)
 79:   1071.75   0.013950   70.50  0.004062  (-0.027695  0.021192  0.053345)
 80:   1082.44   0.002609   13.19  0.000752  (-0.007165  0.007303  0.025447)
 81:   1083.38   0.002856   14.43  0.000823  ( 0.026321 -0.010055  0.005374)
 82:   1087.74   0.016038   81.05  0.004601  (-0.025961 -0.020470 -0.059229)
 83:   1105.42   0.027726  140.11  0.007827  ( 0.025665  0.040725 -0.074228)
 84:   1118.64   0.005273   26.65  0.001471  (-0.015606  0.034153  0.007810)
 85:   1121.43   0.032841  165.96  0.009139  (-0.011425 -0.093386  0.016950)
 86:   1139.50   0.001615    8.16  0.000442  (-0.002381  0.012288 -0.016903)
 87:   1150.41   0.024295  122.78  0.006590  ( 0.002041  0.003469 -0.081080)
 88:   1159.79   0.007133   36.05  0.001919  ( 0.009344  0.029589 -0.030925)
 89:   1168.44   0.004816   24.34  0.001286  ( 0.007836 -0.034276  0.007064)
 90:   1171.68   0.000253    1.28  0.000067  ( 0.000696  0.006331 -0.005177)
 91:   1173.07   0.000547    2.76  0.000145  (-0.002739  0.006843  0.009547)
 92:   1173.49   0.000483    2.44  0.000129  ( 0.003425 -0.001235 -0.010735)
 93:   1195.71   0.019205   97.05  0.005012  ( 0.056913 -0.037882 -0.018384)
 94:   1206.83   0.005914   29.89  0.001529  (-0.021889  0.031237  0.008628)
 95:   1207.27   0.003021   15.27  0.000781  ( 0.003196 -0.007444 -0.026746)
 96:   1218.64   0.027137  137.14  0.006949  (-0.032216  0.062980  0.044101)
 97:   1235.06   0.027198  137.45  0.006872  ( 0.063315 -0.053425  0.003017)
 98:   1245.22   0.001526    7.71  0.000382  (-0.005149  0.016099 -0.009832)
 99:   1251.00   0.003136   15.85  0.000782  ( 0.023043 -0.008875 -0.013136)
100:   1260.74   0.060205  304.25  0.014902  (-0.088920  0.083279 -0.007745)
101:   1267.14   0.047460  239.84  0.011688  ( 0.052367 -0.093624  0.013427)
102:   1288.83   0.033583  169.72  0.008132  ( 0.000939  0.004677  0.090049)
103:   1307.45   0.046408  234.53  0.011077  ( 0.067925  0.034094  0.072804)
104:   1329.56   0.017666   89.28  0.004146  ( 0.003026 -0.049857 -0.040640)
105:   1341.13   0.036079  182.33  0.008395  (-0.069240  0.042959  0.041898)
106:   1344.03   0.014524   73.40  0.003372  ( 0.000371 -0.017485  0.055375)
107:   1357.04   0.035217  177.97  0.008099  (-0.045300 -0.054703 -0.055263)
108:   1373.19   0.017169   86.77  0.003902  ( 0.048908 -0.036159  0.014225)
109:   1378.13   0.037797  191.01  0.008559  ( 0.017753  0.085941  0.029287)
110:   1385.22   0.031170  157.52  0.007022  (-0.017239  0.001045  0.081999)
111:   1390.58   0.011980   60.54  0.002688  (-0.016366  0.036890  0.032554)
112:   1408.51   0.022362  113.01  0.004954  ( 0.029567  0.038007 -0.051338)
113:   1420.20   0.008380   42.35  0.001841  (-0.009390 -0.018655 -0.037486)
114:   1434.88   0.001502    7.59  0.000327  (-0.009304 -0.013742  0.007163)
115:   1457.37   0.010896   55.07  0.002333  (-0.008809 -0.043499  0.019064)
116:   1460.63   0.008813   44.54  0.001883  ( 0.010517 -0.028670  0.030828)
117:   1464.61   0.002981   15.06  0.000635  ( 0.001552 -0.022152  0.011918)
118:   1465.49   0.003534   17.86  0.000752  ( 0.005074  0.024436  0.011386)
119:   1466.24   0.008880   44.88  0.001890  ( 0.003611 -0.010282 -0.042086)
120:   1469.01   0.010359   52.35  0.002201  ( 0.045001 -0.012779 -0.003479)
121:   1472.94   0.004194   21.20  0.000889  ( 0.006611 -0.014317  0.025296)
122:   1476.10   0.002575   13.02  0.000544  (-0.004791  0.013801  0.018195)
123:   1482.63   0.027759  140.29  0.005843  (-0.041918 -0.050483  0.039206)
124:   1484.20   0.003125   15.79  0.000657  ( 0.017369 -0.003070  0.018598)
125:   1485.39   0.006010   30.37  0.001263  ( 0.014821 -0.032266  0.001333)
126:   1494.97   0.047816  241.64  0.009981  ( 0.033019 -0.087513  0.035107)
127:   1498.23   0.014341   72.47  0.002987  (-0.031882 -0.004860 -0.044124)
128:   1510.67   0.033106  167.31  0.006839  ( 0.035176  0.057854 -0.047482)
129:   1514.32   0.010572   53.43  0.002179  ( 0.012783 -0.038686  0.022772)
130:   1540.96   0.034445  174.07  0.006976  ( 0.055860  0.020735  0.058527)
131:   1596.75   0.048601  245.61  0.009498  (-0.039968 -0.075894  0.046271)
132:   1649.97   0.007258   36.68  0.001373  (-0.008591 -0.011588 -0.034125)
133:   1664.13   0.010708   54.11  0.002008  ( 0.034209  0.009039  0.027496)
134:   1681.32   0.043834  221.52  0.008136  (-0.089384 -0.011577  0.003504)
135:   1686.70   0.102996  520.50  0.019056  (-0.003107 -0.097224  0.097946)
136:   1791.01   0.103237  521.72  0.017988  ( 0.083256  0.056196  0.088873)
137:   2983.13   0.018665   94.32  0.001953  (-0.043621 -0.005585 -0.004298)
138:   2991.95   0.044587  225.32  0.004650  (-0.016670 -0.065917  0.005243)
139:   3039.54   0.011900   60.14  0.001222  (-0.007890  0.010165  0.032498)
140:   3074.36   0.006463   32.66  0.000656  (-0.013277  0.020354  0.008093)
141:   3083.17   0.008704   43.98  0.000881  (-0.003339  0.015895  0.024842)
142:   3089.01   0.007547   38.14  0.000762  (-0.013035  0.003368 -0.024108)
143:   3107.70   0.001326    6.70  0.000133  (-0.004695  0.010053  0.003173)
144:   3112.41   0.007418   37.49  0.000744  (-0.002957  0.026043 -0.007539)
145:   3128.60   0.000677    3.42  0.000068  ( 0.008044 -0.000119  0.001682)
146:   3139.47   0.003179   16.07  0.000316  (-0.016091  0.000209  0.007554)
147:   3142.48   0.006281   31.74  0.000624  ( 0.006953  0.015751 -0.018090)
148:   3158.42   0.003751   18.95  0.000371  (-0.008952 -0.011421  0.012650)
149:   3166.37   0.003621   18.30  0.000357  (-0.017064 -0.004113 -0.006980)
150:   3180.50   0.000944    4.77  0.000093  ( 0.007368 -0.004745 -0.003975)
151:   3185.27   0.001104    5.58  0.000108  ( 0.005425 -0.001869 -0.008673)
152:   3190.50   0.002066   10.44  0.000202  (-0.010688  0.000308 -0.009365)
153:   3196.15   0.001749    8.84  0.000171  ( 0.010204 -0.001392 -0.008043)
154:   3202.46   0.001475    7.45  0.000144  (-0.009465  0.005129 -0.005275)
155:   3213.40   0.003404   17.20  0.000331  ( 0.013798  0.004109  0.011104)
156:   3219.44   0.001947    9.84  0.000189  (-0.001378  0.010452 -0.008805)
157:   3223.93   0.000343    1.73  0.000033  (-0.004424 -0.001219 -0.003489)
158:   3228.86   0.003947   19.95  0.000381  (-0.007077 -0.014416  0.011115)
159:   3230.66   0.001015    5.13  0.000098  (-0.007791 -0.006107  0.000222)
160:   3230.72   0.000457    2.31  0.000044  ( 0.003833 -0.000869 -0.005353)
161:   3247.58   0.000051    0.26  0.000005  (-0.000101 -0.001044  0.001942)

* The epsilon (eps) is given for a Dirac delta lineshape.
** The dipole moment derivative (T) already includes vibrational overlap.

The first frequency considered to be a vibration is 7
The total number of vibrations considered is 155


--------------------------
THERMOCHEMISTRY AT 298.15K
--------------------------

Temperature         ... 298.15 K
Pressure            ... 1.00 atm
Total Mass          ... 399.45 AMU

Throughout the following assumptions are being made:
  (1) The electronic state is orbitally nondegenerate
  (2) There are no thermally accessible electronically excited states
  (3) Hindered rotations indicated by low frequency modes are not
      treated as such but are treated as vibrations and this may
      cause some error
  (4) All equations used are the standard statistical mechanics
      equations for an ideal gas
  (5) All vibrations are strictly harmonic

freq.      21.05  E(vib)   ...       0.56 
freq.      38.39  E(vib)   ...       0.54 
freq.      48.48  E(vib)   ...       0.53 
freq.      51.09  E(vib)   ...       0.52 
freq.      57.97  E(vib)   ...       0.51 
freq.      78.93  E(vib)   ...       0.49 
freq.      86.88  E(vib)   ...       0.48 
freq.      92.45  E(vib)   ...       0.47 
freq.     102.58  E(vib)   ...       0.46 
freq.     112.52  E(vib)   ...       0.45 
freq.     118.59  E(vib)   ...       0.44 
freq.     120.52  E(vib)   ...       0.44 
freq.     131.60  E(vib)   ...       0.42 
freq.     142.80  E(vib)   ...       0.41 
freq.     149.48  E(vib)   ...       0.40 
freq.     152.34  E(vib)   ...       0.40 
freq.     186.91  E(vib)   ...       0.36 
freq.     189.92  E(vib)   ...       0.36 
freq.     205.29  E(vib)   ...       0.35 
freq.     209.18  E(vib)   ...       0.34 
freq.     218.00  E(vib)   ...       0.33 
freq.     235.36  E(vib)   ...       0.32 
freq.     250.19  E(vib)   ...       0.31 
freq.     257.03  E(vib)   ...       0.30 
freq.     275.94  E(vib)   ...       0.28 
freq.     278.60  E(vib)   ...       0.28 
freq.     298.21  E(vib)   ...       0.27 
freq.     305.39  E(vib)   ...       0.26 
freq.     322.45  E(vib)   ...       0.25 
freq.     327.53  E(vib)   ...       0.24 
freq.     363.52  E(vib)   ...       0.22 
freq.     385.65  E(vib)   ...       0.20 
freq.     391.72  E(vib)   ...       0.20 
freq.     443.96  E(vib)   ...       0.17 
freq.     464.18  E(vib)   ...       0.16 
freq.     475.71  E(vib)   ...       0.15 
freq.     488.96  E(vib)   ...       0.15 
freq.     510.40  E(vib)   ...       0.14 
freq.     523.96  E(vib)   ...       0.13 
freq.     552.15  E(vib)   ...       0.12 
freq.     572.55  E(vib)   ...       0.11 
freq.     587.01  E(vib)   ...       0.10 
freq.     619.31  E(vib)   ...       0.09 
freq.     627.38  E(vib)   ...       0.09 
freq.     643.08  E(vib)   ...       0.09 
freq.     670.32  E(vib)   ...       0.08 
freq.     686.11  E(vib)   ...       0.07 
freq.     702.10  E(vib)   ...       0.07 
freq.     726.11  E(vib)   ...       0.06 
freq.     750.03  E(vib)   ...       0.06 
freq.     766.82  E(vib)   ...       0.06 
freq.     769.59  E(vib)   ...       0.06 
freq.     781.15  E(vib)   ...       0.05 
freq.     794.00  E(vib)   ...       0.05 
freq.     810.29  E(vib)   ...       0.05 
freq.     822.19  E(vib)   ...       0.05 
freq.     828.90  E(vib)   ...       0.04 
freq.     842.89  E(vib)   ...       0.04 
freq.     870.84  E(vib)   ...       0.04 
freq.     882.13  E(vib)   ...       0.04 
freq.     898.18  E(vib)   ...       0.03 
freq.     916.03  E(vib)   ...       0.03 
freq.     942.62  E(vib)   ...       0.03 
freq.     956.09  E(vib)   ...       0.03 
freq.     964.31  E(vib)   ...       0.03 
freq.     976.89  E(vib)   ...       0.03 
freq.     988.14  E(vib)   ...       0.02 
freq.     994.83  E(vib)   ...       0.02 
freq.    1004.36  E(vib)   ...       0.02 
freq.    1009.91  E(vib)   ...       0.02 
freq.    1047.39  E(vib)   ...       0.02 
freq.    1051.17  E(vib)   ...       0.02 
freq.    1071.75  E(vib)   ...       0.02 
freq.    1082.44  E(vib)   ...       0.02 
freq.    1083.38  E(vib)   ...       0.02 
freq.    1087.74  E(vib)   ...       0.02 
freq.    1105.42  E(vib)   ...       0.02 
freq.    1118.64  E(vib)   ...       0.01 
freq.    1121.43  E(vib)   ...       0.01 
freq.    1139.50  E(vib)   ...       0.01 
freq.    1150.41  E(vib)   ...       0.01 
freq.    1159.79  E(vib)   ...       0.01 
freq.    1168.44  E(vib)   ...       0.01 
freq.    1171.68  E(vib)   ...       0.01 
freq.    1173.07  E(vib)   ...       0.01 
freq.    1173.49  E(vib)   ...       0.01 
freq.    1195.71  E(vib)   ...       0.01 
freq.    1206.83  E(vib)   ...       0.01 
freq.    1207.27  E(vib)   ...       0.01 
freq.    1218.64  E(vib)   ...       0.01 
freq.    1235.06  E(vib)   ...       0.01 
freq.    1245.22  E(vib)   ...       0.01 
freq.    1251.00  E(vib)   ...       0.01 
freq.    1260.74  E(vib)   ...       0.01 
freq.    1267.14  E(vib)   ...       0.01 
freq.    1288.83  E(vib)   ...       0.01 
freq.    1307.45  E(vib)   ...       0.01 
freq.    1329.56  E(vib)   ...       0.01 
freq.    1341.13  E(vib)   ...       0.01 
freq.    1344.03  E(vib)   ...       0.01 
freq.    1357.04  E(vib)   ...       0.01 
freq.    1373.19  E(vib)   ...       0.01 
freq.    1378.13  E(vib)   ...       0.01 
freq.    1385.22  E(vib)   ...       0.00 
freq.    1390.58  E(vib)   ...       0.00 
freq.    1408.51  E(vib)   ...       0.00 
freq.    1420.20  E(vib)   ...       0.00 
freq.    1434.88  E(vib)   ...       0.00 
freq.    1457.37  E(vib)   ...       0.00 
freq.    1460.63  E(vib)   ...       0.00 
freq.    1464.61  E(vib)   ...       0.00 
freq.    1465.49  E(vib)   ...       0.00 
freq.    1466.24  E(vib)   ...       0.00 
freq.    1469.01  E(vib)   ...       0.00 
freq.    1472.94  E(vib)   ...       0.00 
freq.    1476.10  E(vib)   ...       0.00 
freq.    1482.63  E(vib)   ...       0.00 
freq.    1484.20  E(vib)   ...       0.00 
freq.    1485.39  E(vib)   ...       0.00 
freq.    1494.97  E(vib)   ...       0.00 
freq.    1498.23  E(vib)   ...       0.00 
freq.    1510.67  E(vib)   ...       0.00 
freq.    1514.32  E(vib)   ...       0.00 
freq.    1540.96  E(vib)   ...       0.00 
freq.    1596.75  E(vib)   ...       0.00 
freq.    1649.97  E(vib)   ...       0.00 
freq.    1664.13  E(vib)   ...       0.00 
freq.    1681.32  E(vib)   ...       0.00 
freq.    1686.70  E(vib)   ...       0.00 
freq.    1791.01  E(vib)   ...       0.00 
freq.    2983.13  E(vib)   ...       0.00 
freq.    2991.95  E(vib)   ...       0.00 
freq.    3039.54  E(vib)   ...       0.00 
freq.    3074.36  E(vib)   ...       0.00 
freq.    3083.17  E(vib)   ...       0.00 
freq.    3089.01  E(vib)   ...       0.00 
freq.    3107.70  E(vib)   ...       0.00 
freq.    3112.41  E(vib)   ...       0.00 
freq.    3128.60  E(vib)   ...       0.00 
freq.    3139.47  E(vib)   ...       0.00 
freq.    3142.48  E(vib)   ...       0.00 
freq.    3158.42  E(vib)   ...       0.00 
freq.    3166.37  E(vib)   ...       0.00 
freq.    3180.50  E(vib)   ...       0.00 
freq.    3185.27  E(vib)   ...       0.00 
freq.    3190.50  E(vib)   ...       0.00 
freq.    3196.15  E(vib)   ...       0.00 
freq.    3202.46  E(vib)   ...       0.00 
freq.    3213.40  E(vib)   ...       0.00 
freq.    3219.44  E(vib)   ...       0.00 
freq.    3223.93  E(vib)   ...       0.00 
freq.    3228.86  E(vib)   ...       0.00 
freq.    3230.66  E(vib)   ...       0.00 
freq.    3230.72  E(vib)   ...       0.00 
freq.    3247.58  E(vib)   ...       0.00 

------------
INNER ENERGY
------------

The inner energy is: U= E(el) + E(ZPE) + E(vib) + E(rot) + E(trans)
    E(el)   - is the total energy from the electronic structure calculation
              = E(kin-el) + E(nuc-el) + E(el-el) + E(nuc-nuc)
    E(ZPE)  - the the zero temperature vibrational energy from the frequency calculation
    E(vib)  - the the finite temperature correction to E(ZPE) due to population
              of excited vibrational states
    E(rot)  - is the rotational thermal energy
    E(trans)- is the translational thermal energy

Summary of contributions to the inner energy U:
Electronic energy                ...  -1354.54302145 Eh
Zero point energy                ...      0.44060197 Eh     276.48 kcal/mol
Thermal vibrational correction   ...      0.02456988 Eh      15.42 kcal/mol
Thermal rotational correction    ...      0.00141627 Eh       0.89 kcal/mol
Thermal translational correction ...      0.00141627 Eh       0.89 kcal/mol
-----------------------------------------------------------------------
Total thermal energy                  -1354.07501706 Eh


Summary of corrections to the electronic energy:
(perhaps to be used in another calculation)
Total thermal correction                  0.02740242 Eh      17.20 kcal/mol
Non-thermal (ZPE) correction              0.44060197 Eh     276.48 kcal/mol
-----------------------------------------------------------------------
Total correction                          0.46800438 Eh     293.68 kcal/mol


--------
ENTHALPY
--------

The enthalpy is H = U + kB*T
                kB is Boltzmann's constant
Total free energy                 ...  -1354.07501706 Eh 
Thermal Enthalpy correction       ...      0.00094421 Eh       0.59 kcal/mol
-----------------------------------------------------------------------
Total Enthalpy                    ...  -1354.07407286 Eh


Note: Only C1 symmetry has been detected, increase convergence thresholds 
      if your molecule has a higher symmetry. Symmetry factor of 1.0 is   
      used for the rotational entropy correction. 
 

Note: Rotational entropy computed according to Herzberg 
Infrared and Raman Spectra, Chapter V,1, Van Nostrand Reinhold, 1945 
Point Group:  C1, Symmetry Number:   1  
Rotational constants in cm-1:     0.006792     0.006154     0.004234 

Vibrational entropy computed according to the QRRHO of S. Grimme
Chem.Eur.J. 2012 18 9955


-------
ENTROPY
-------

The entropy contributions are T*S = T*(S(el)+S(vib)+S(rot)+S(trans))
     S(el)   - electronic entropy
     S(vib)  - vibrational entropy
     S(rot)  - rotational entropy
     S(trans)- translational entropy
The entropies will be listed as multiplied by the temperature to get
units of energy

Electronic entropy                ...      0.00000000 Eh      0.00 kcal/mol
Vibrational entropy               ...      0.04393906 Eh     27.57 kcal/mol
Rotational entropy                ...      0.01685055 Eh     10.57 kcal/mol
Translational entropy             ...      0.02083265 Eh     13.07 kcal/mol
-----------------------------------------------------------------------
Final entropy term                ...      0.08162226 Eh     51.22 kcal/mol

In case the symmetry of your molecule has not been determined correctly
or in case you have a reason to use a different symmetry number we print 
out the resulting rotational entropy values for sn=1,12 :
 --------------------------------------------------------
|  sn= 1 | S(rot)=       0.01685055 Eh     10.57 kcal/mol|
|  sn= 2 | S(rot)=       0.01619609 Eh     10.16 kcal/mol|
|  sn= 3 | S(rot)=       0.01581326 Eh      9.92 kcal/mol|
|  sn= 4 | S(rot)=       0.01554164 Eh      9.75 kcal/mol|
|  sn= 5 | S(rot)=       0.01533095 Eh      9.62 kcal/mol|
|  sn= 6 | S(rot)=       0.01515880 Eh      9.51 kcal/mol|
|  sn= 7 | S(rot)=       0.01501326 Eh      9.42 kcal/mol|
|  sn= 8 | S(rot)=       0.01488718 Eh      9.34 kcal/mol|
|  sn= 9 | S(rot)=       0.01477597 Eh      9.27 kcal/mol|
|  sn=10 | S(rot)=       0.01467649 Eh      9.21 kcal/mol|
|  sn=11 | S(rot)=       0.01458650 Eh      9.15 kcal/mol|
|  sn=12 | S(rot)=       0.01450435 Eh      9.10 kcal/mol|
 --------------------------------------------------------


-------------------
GIBBS FREE ENERGY
-------------------

The Gibbs free energy is G = H - T*S

Total enthalpy                    ...  -1354.07407286 Eh 
Total entropy correction          ...     -0.08162226 Eh    -51.22 kcal/mol
-----------------------------------------------------------------------
Final Gibbs free energy         ...  -1354.15569511 Eh

For completeness - the Gibbs free energy minus the electronic energy
G-E(el)                           ...      0.38732633 Eh    243.05 kcal/mol


Timings for individual modules:

Sum of individual times         ...    18986.980 sec (= 316.450 min)
GTO integral calculation        ...      183.582 sec (=   3.060 min)   1.0 %
SCF iterations                  ...    11000.760 sec (= 183.346 min)  57.9 %
SCF Gradient evaluation         ...     2976.973 sec (=  49.616 min)  15.7 %
Geometry relaxation             ...       12.245 sec (=   0.204 min)   0.1 %
Analytical frequency calculation...     4813.418 sec (=  80.224 min)  25.4 %
                             ****ORCA TERMINATED NORMALLY****
TOTAL RUN TIME: 0 days 5 hours 19 minutes 12 seconds 420 msec
