
                                 *****************
                                 * O   R   C   A *
                                 *****************

                                            #,                                       
                                            ###                                      
                                            ####                                     
                                            #####                                    
                                            ######                                   
                                           ########,                                 
                                     ,,################,,,,,                         
                               ,,#################################,,                 
                          ,,##########################################,,             
                       ,#########################################, ''#####,          
                    ,#############################################,,   '####,        
                  ,##################################################,,,,####,       
                ,###########''''           ''''###############################       
              ,#####''   ,,,,##########,,,,          '''####'''          '####       
            ,##' ,,,,###########################,,,                        '##       
           ' ,,###''''                  '''############,,,                           
         ,,##''                                '''############,,,,        ,,,,,,###''
      ,#''                                            '''#######################'''  
     '                                                          ''''####''''         
             ,#######,   #######,   ,#######,      ##                                
            ,#'     '#,  ##    ##  ,#'     '#,    #''#        ######   ,####,        
            ##       ##  ##   ,#'  ##            #'  '#       #        #'  '#        
            ##       ##  #######   ##           ,######,      #####,   #    #        
            '#,     ,#'  ##    ##  '#,     ,#' ,#      #,         ##   #,  ,#        
             '#######'   ##     ##  '#######'  #'      '#     #####' # '####'        



                  #######################################################
                  #                        -***-                        #
                  #          Department of theory and spectroscopy      #
                  #    Directorship and core code : Frank Neese         #
                  #        Max Planck Institute fuer Kohlenforschung    #
                  #                Kaiser Wilhelm Platz 1               #
                  #                 D-45470 Muelheim/Ruhr               #
                  #                      Germany                        #
                  #                                                     #
                  #                  All rights reserved                #
                  #                        -***-                        #
                  #######################################################


                         Program Version 5.0.4 -  RELEASE  -


 With contributions from (in alphabetic order):
   Daniel Aravena         : Magnetic Suceptibility
   Michael Atanasov       : Ab Initio Ligand Field Theory (pilot matlab implementation)
   Alexander A. Auer      : GIAO ZORA, VPT2 properties, NMR spectrum
   Ute Becker             : Parallelization
   Giovanni Bistoni       : ED, misc. LED, open-shell LED, HFLD
   Martin Brehm           : Molecular dynamics
   Dmytro Bykov           : SCF Hessian
   Vijay G. Chilkuri      : MRCI spin determinant printing, contributions to CSF-ICE
   Dipayan Datta          : RHF DLPNO-CCSD density
   Achintya Kumar Dutta   : EOM-CC, STEOM-CC
   Dmitry Ganyushin       : Spin-Orbit,Spin-Spin,Magnetic field MRCI
   Miquel Garcia          : C-PCM and meta-GGA Hessian, CC/C-PCM, Gaussian charge scheme
   Yang Guo               : DLPNO-NEVPT2, F12-NEVPT2, CIM, IAO-localization
   Andreas Hansen         : Spin unrestricted coupled pair/coupled cluster methods
   Benjamin Helmich-Paris : MC-RPA, TRAH-SCF, COSX integrals
   Lee Huntington         : MR-EOM, pCC
   Robert Izsak           : Overlap fitted RIJCOSX, COSX-SCS-MP3, EOM
   Marcus Kettner         : VPT2
   Christian Kollmar      : KDIIS, OOCD, Brueckner-CCSD(T), CCSD density, CASPT2, CASPT2-K
   Simone Kossmann        : Meta GGA functionals, TD-DFT gradient, OOMP2, MP2 Hessian
   Martin Krupicka        : Initial AUTO-CI
   Lucas Lang             : DCDCAS
   Marvin Lechner         : AUTO-CI (C++ implementation), FIC-MRCC
   Dagmar Lenk            : GEPOL surface, SMD
   Dimitrios Liakos       : Extrapolation schemes; Compound Job, initial MDCI parallelization
   Dimitrios Manganas     : Further ROCIS development; embedding schemes
   Dimitrios Pantazis     : SARC Basis sets
   Anastasios Papadopoulos: AUTO-CI, single reference methods and gradients
   Taras Petrenko         : DFT Hessian,TD-DFT gradient, ASA, ECA, R-Raman, ABS, FL, XAS/XES, NRVS
   Peter Pinski           : DLPNO-MP2, DLPNO-MP2 Gradient
   Christoph Reimann      : Effective Core Potentials
   Marius Retegan         : Local ZFS, SOC
   Christoph Riplinger    : Optimizer, TS searches, QM/MM, DLPNO-CCSD(T), (RO)-DLPNO pert. Triples
   Tobias Risthaus        : Range-separated hybrids, TD-DFT gradient, RPA, STAB
   Michael Roemelt        : Original ROCIS implementation
   Masaaki Saitow         : Open-shell DLPNO-CCSD energy and density
   Barbara Sandhoefer     : DKH picture change effects
   Avijit Sen             : IP-ROCIS
   Kantharuban Sivalingam : CASSCF convergence, NEVPT2, FIC-MRCI
   Bernardo de Souza      : ESD, SOC TD-DFT
   Georgi Stoychev        : AutoAux, RI-MP2 NMR, DLPNO-MP2 response
   Willem Van den Heuvel  : Paramagnetic NMR
   Boris Wezisla          : Elementary symmetry handling
   Frank Wennmohs         : Technical directorship


 We gratefully acknowledge several colleagues who have allowed us to
 interface, adapt or use parts of their codes:
   Stefan Grimme, W. Hujo, H. Kruse, P. Pracht,  : VdW corrections, initial TS optimization,
                  C. Bannwarth, S. Ehlert          DFT functionals, gCP, sTDA/sTD-DF
   Ed Valeev, F. Pavosevic, A. Kumar             : LibInt (2-el integral package), F12 methods
   Garnet Chan, S. Sharma, J. Yang, R. Olivares  : DMRG
   Ulf Ekstrom                                   : XCFun DFT Library
   Mihaly Kallay                                 : mrcc  (arbitrary order and MRCC methods)
   Jiri Pittner, Ondrej Demel                    : Mk-CCSD
   Frank Weinhold                                : gennbo (NPA and NBO analysis)
   Christopher J. Cramer and Donald G. Truhlar   : smd solvation model
   Lars Goerigk                                  : TD-DFT with DH, B97 family of functionals
   V. Asgeirsson, H. Jonsson                     : NEB implementation
   FAccTs GmbH                                   : IRC, NEB, NEB-TS, DLPNO-Multilevel, CI-OPT
                                                   MM, QMMM, 2- and 3-layer-ONIOM, Crystal-QMMM,
                                                   LR-CPCM, SF, NACMEs, symmetry and pop. for TD-DFT,
                                                   nearIR, NL-DFT gradient (VV10), updates on ESD,
                                                   ML-optimized integration grids
   S Lehtola, MJT Oliveira, MAL Marques          : LibXC Library
   Liviu Ungur et al                             : ANISO software


 Your calculation uses the libint2 library for the computation of 2-el integrals
 For citations please refer to: http://libint.valeyev.net

 Your ORCA version has been built with support for libXC version: 5.1.0
 For citations please refer to: https://tddft.org/programs/libxc/

 This ORCA versions uses:
   CBLAS   interface :  Fast vector & matrix operations
   LAPACKE interface :  Fast linear algebra routines
   SCALAPACK package :  Parallel linear algebra routines
   Shared memory     :  Shared parallel matrices
   BLAS/LAPACK       :  OpenBLAS 0.3.15  USE64BITINT DYNAMIC_ARCH NO_AFFINITY Haswell SINGLE_THREADED
        Core in use  :  Haswell
   Copyright (c) 2011-2014, The OpenBLAS Project


Your calculation utilizes the atom-pairwise dispersion correction
with the Becke-Johnson damping scheme (D3BJ)
Cite in your paper:
S.Grimme, S.Ehrlich, L.Goerigk, J Comput Chem, (2011), 32, 1456–1465 
S.Grimme, J.Antony, S.Ehrlich and H.Krieg, J.Chem.Phys., 132, (2010), 154104 
   

================================================================================

----- Orbital basis set information -----
Your calculation utilizes the basis: def2-TZVP
   F. Weigend and R. Ahlrichs, Phys. Chem. Chem. Phys. 7, 3297 (2005).

----- AuxJ basis set information -----
Your calculation utilizes the auxiliary basis: def2/J
   F. Weigend, Phys. Chem. Chem. Phys. 8, 1057 (2006).

================================================================================
                                        WARNINGS
                       Please study these warnings very carefully!
================================================================================


WARNING: Geometry Optimization
  ===> : Switching off AutoStart
         For restart on a previous wavefunction, please use MOREAD

INFO   : the flag for use of the SHARK integral package has been found!

================================================================================
                                       INPUT FILE
================================================================================
NAME = TS1_CO2Me/TS1_CO2Me.inp
|  1> %pal nprocs 24 end
|  2> %maxcore 3500
|  3> ! PBE0 D3BJ def2-TZVP TightSCF OPTTS FREQ TightOpt
|  4> ! CPCM(dmso)
|  5> %scf
|  6> MaxIter 800
|  7> end
|  8> 
|  9> %geom
| 10> MaxIter 800
| 11> MaxStep 0.15
| 12> end
| 13> 
| 14> *xyz 0 1
| 15> C      -4.30406500     -1.18891500      0.01343200
| 16> C      -3.81598800     -2.19189600     -0.85782900
| 17> C      -2.46567900     -2.39597300     -0.92784100
| 18> N      -1.61238200     -1.70231200     -0.12992000
| 19> C      -2.04649600     -0.71566000      0.72174200
| 20> C      -3.43835400     -0.48411700      0.81679900
| 21> C      -0.20115300     -1.64252800     -0.41261500
| 22> C       0.61318400     -2.11558100      0.78162300
| 23> O       0.20340800     -2.23196300      1.90938000
| 24> O       1.82348800     -2.46883700      0.38117800
| 25> C       2.71282700     -2.96715900      1.37485800
| 26> H      -5.37920100     -1.00337200      0.07578400
| 27> H      -2.00102800     -3.11305500     -1.60662100
| 28> H      -1.38709200     -0.45090700      1.54511600
| 29> H      -3.79214100      0.25767800      1.53312300
| 30> H       0.03062700     -2.33910700     -1.22844200
| 31> H       3.68184200     -3.09406800      0.88057100
| 32> H       2.35184200     -3.93187600      1.75899800
| 33> C      -0.89440900      0.81796800     -0.33238700
| 34> C       0.05183600     -0.16381300     -0.96278000
| 35> C       1.50369900      0.23240700     -1.05851700
| 36> C       2.11383200      0.34282100     -2.30710600
| 37> C       3.45362600      0.71767300     -2.43372500
| 38> C       4.19710300      0.98656100     -1.28878600
| 39> C       3.61412300      0.88141400     -0.02369400
| 40> C       2.27555100      0.50311400      0.08795700
| 41> O       1.62484900      0.36214400      1.25957900
| 42> C       2.28322600      0.65241300      2.47108000
| 43> N      -1.94572900      1.26373400     -1.12031200
| 44> O      -2.27346500      0.65108400     -2.14236200
| 45> H      -0.31787700     -0.24107100     -1.99376700
| 46> H       1.52037800      0.13110300     -3.20086100
| 47> H       3.90861700      0.79923700     -3.42318100
| 48> H       5.24619000      1.28237200     -1.36933300
| 49> H       4.20613700      1.09168900      0.86750200
| 50> H       1.54699100      0.48961100      3.26688400
| 51> H       2.62725800      1.69867800      2.49756600
| 52> H       3.14626400     -0.01442800      2.62783100
| 53> O      -2.60888800      2.22843300     -0.70679700
| 54> H       2.79985100     -2.25796200      2.20861200
| 55> H      -4.48549600     -2.78143100     -1.48390700
| 56> C      -0.55622500      1.82353500      0.73055000
| 57> O      -0.92330600      1.77291900      1.88128900
| 58> O       0.18892200      2.81279200      0.24601300
| 59> C       0.53035600      3.85720400      1.14890700
| 60> H       1.04688800      3.45578400      2.03164100
| 61> H       1.19184300      4.53499400      0.59809600
| 62> H      -0.37333400      4.39187400      1.47597500
| 63> *
| 64> 
| 65>                          ****END OF INPUT****
================================================================================

                       *****************************
                       * Geometry Optimization Run *
                       *****************************

Geometry optimization settings:
Update method            Update   .... Bofill
Choice of coordinates    CoordSys .... Z-matrix Internals
Initial Hessian          InHess   .... Almoef's Model

Convergence Tolerances:
Energy Change            TolE     ....  1.0000e-06 Eh
Max. Gradient            TolMAXG  ....  1.0000e-04 Eh/bohr
RMS Gradient             TolRMSG  ....  3.0000e-05 Eh/bohr
Max. Displacement        TolMAXD  ....  1.0000e-03 bohr
RMS Displacement         TolRMSD  ....  6.0000e-04 bohr
Strict Convergence                ....  False
------------------------------------------------------------------------------
                        ORCA OPTIMIZATION COORDINATE SETUP
------------------------------------------------------------------------------

The optimization will be done in new redundant internal coordinates
Making redundant internal coordinates   ...  (new redundants) done
Following TS mode number                ...     0
Evaluating the initial hessian          ...  (Almloef) done
Evaluating the coordinates              ...  done
Calculating the B-matrix                .... done
Calculating the G-matrix                .... done
Diagonalizing the G-matrix              .... done
Small eigenvalue found = 2.723e-03
Small eigenvalue found = 4.088e-03
Small eigenvalue found = 4.336e-03
Small eigenvalue found = 6.965e-03
Small eigenvalue found = 9.253e-03
Small eigenvalue found = 1.043e-02
Small eigenvalue found = 1.533e-02
Small eigenvalue found = 2.432e-02
Small eigenvalue found = 2.558e-02
The first mode is                       ....   96
The number of degrees of freedom        ....  138

    -----------------------------------------------------------------
                    Redundant Internal Coordinates


    -----------------------------------------------------------------
         Definition                    Initial Value    Approx d2E/dq
    -----------------------------------------------------------------
      1. B(C   1,C   0)                  1.4154         0.569187   
      2. B(C   2,C   1)                  1.3674         0.678792   
      3. B(N   3,C   2)                  1.3587         0.627878   
      4. B(C   4,N   3)                  1.3738         0.593960   
      5. B(C   5,C   4)                  1.4142         0.571682   
      6. B(C   5,C   0)                  1.3754         0.659338   
      7. B(C   6,N   3)                  1.4405         0.464832   
      8. B(C   7,C   6)                  1.5209         0.386278   
      9. B(O   8,C   7)                  1.2055         1.102019   
     10. B(O   9,C   7)                  1.3229         0.716109   
     11. B(C  10,O   9)                  1.4236         0.494609   
     12. B(H  11,C   0)                  1.0928         0.356403   
     13. B(H  12,C   2)                  1.0913         0.358436   
     14. B(H  13,C   4)                  1.0876         0.363302   
     15. B(H  14,C   5)                  1.0902         0.359830   
     16. B(H  15,C   6)                  1.0975         0.350307   
     17. B(H  16,C  10)                  1.0952         0.353314   
     18. B(H  17,C  10)                  1.0993         0.347952   
     19. B(C  19,C  18)                  1.5022         0.413711   
     20. B(C  19,C   6)                  1.5979         0.291104   
     21. B(C  20,C  19)                  1.5080         0.405022   
     22. B(C  21,C  20)                  1.3941         0.615527   
     23. B(C  22,C  21)                  1.3970         0.608946   
     24. B(C  23,C  22)                  1.3914         0.621632   
     25. B(C  24,C  23)                  1.3969         0.609118   
     26. B(C  25,C  24)                  1.3955         0.612354   
     27. B(C  25,C  20)                  1.4083         0.584074   
     28. B(O  26,C  25)                  1.3476         0.653953   
     29. B(C  27,O  26)                  1.4091         0.521754   
     30. B(N  28,C  18)                  1.3874         0.565021   
     31. B(O  29,N  28)                  1.2359         0.882960   
     32. B(H  30,C  19)                  1.0980         0.349679   
     33. B(H  31,C  21)                  1.0935         0.355459   
     34. B(H  32,C  22)                  1.0921         0.357326   
     35. B(H  33,C  23)                  1.0930         0.356197   
     36. B(H  34,C  24)                  1.0904         0.359599   
     37. B(H  35,C  27)                  1.0963         0.351875   
     38. B(H  36,C  27)                  1.1017         0.344958   
     39. B(H  37,C  27)                  1.1019         0.344755   
     40. B(O  38,N  28)                  1.2415         0.864714   
     41. B(H  39,C  10)                  1.0980         0.349627   
     42. B(H  40,C   1)                  1.0898         0.360303   
     43. B(C  41,C  18)                  1.5018         0.414369   
     44. B(O  42,C  41)                  1.2089         1.088333   
     45. B(O  43,C  41)                  1.3299         0.697834   
     46. B(C  44,O  43)                  1.4222         0.497207   
     47. B(H  45,C  44)                  1.0987         0.348761   
     48. B(H  46,C  44)                  1.0956         0.352757   
     49. B(H  47,C  44)                  1.0998         0.347401   
     50. A(C   1,C   0,C   5)          120.3742         0.432197   
     51. A(C   5,C   0,H  11)          119.9294         0.355985   
     52. A(C   1,C   0,H  11)          119.6500         0.347246   
     53. A(C   0,C   1,C   2)          118.5414         0.434463   
     54. A(C   0,C   1,H  40)          121.6754         0.347883   
     55. A(C   2,C   1,H  40)          119.7672         0.358411   
     56. A(C   1,C   2,H  12)          123.3927         0.358094   
     57. A(N   3,C   2,H  12)          115.6817         0.351211   
     58. A(C   1,C   2,N   3)          120.9248         0.439316   
     59. A(C   4,N   3,C   6)          113.6678         0.403915   
     60. A(C   2,N   3,C   4)          122.1608         0.426092   
     61. A(C   2,N   3,C   6)          121.4137         0.407899   
     62. A(N   3,C   4,C   5)          118.0520         0.421752   
     63. A(C   5,C   4,H  13)          120.3966         0.348626   
     64. A(N   3,C   4,H  13)          116.9092         0.348728   
     65. A(C   0,C   5,C   4)          119.7584         0.432537   
     66. A(C   4,C   5,H  14)          118.3568         0.348063   
     67. A(C   0,C   5,H  14)          121.8847         0.356564   
     68. A(H  15,C   6,C  19)          107.3362         0.310018   
     69. A(C   7,C   6,C  19)          118.2564         0.350261   
     70. A(N   3,C   6,C  19)          105.1344         0.359199   
     71. A(C   7,C   6,H  15)          105.8549         0.324632   
     72. A(N   3,C   6,C   7)          110.9495         0.377064   
     73. A(N   3,C   6,H  15)          109.0525         0.332692   
     74. A(C   6,C   7,O   9)          109.5869         0.406665   
     75. A(C   6,C   7,O   8)          125.6329         0.439221   
     76. A(O   8,C   7,O   9)          124.6382         0.488420   
     77. A(C   7,O   9,C  10)          116.9835         0.422182   
     78. A(O   9,C  10,H  39)          110.6973         0.336033   
     79. A(H  16,C  10,H  17)          110.2768         0.288417   
     80. A(O   9,C  10,H  17)          110.2395         0.335764   
     81. A(O   9,C  10,H  16)          106.1574         0.336620   
     82. A(H  17,C  10,H  39)          109.1161         0.287944   
     83. A(H  16,C  10,H  39)          110.3297         0.288634   
     84. A(C  19,C  18,N  28)          116.6786         0.394788   
     85. A(N  28,C  18,C  41)          110.9450         0.394898   
     86. A(C  19,C  18,C  41)          126.3541         0.376426   
     87. A(C   6,C  19,C  20)          114.6730         0.353078   
     88. A(C   6,C  19,C  18)          111.1366         0.354350   
     89. A(C  20,C  19,H  30)          106.4428         0.327075   
     90. A(C  18,C  19,H  30)          103.1747         0.328222   
     91. A(C   6,C  19,H  30)          101.8218         0.309928   
     92. A(C  18,C  19,C  20)          117.4757         0.374945   
     93. A(C  21,C  20,C  25)          118.2954         0.428878   
     94. A(C  19,C  20,C  25)          121.7677         0.398159   
     95. A(C  19,C  20,C  21)          119.9367         0.401851   
     96. A(C  22,C  21,H  31)          119.8907         0.351066   
     97. A(C  20,C  21,H  31)          118.6310         0.351704   
     98. A(C  20,C  21,C  22)          121.4782         0.432101   
     99. A(C  23,C  22,H  32)          120.5629         0.352604   
    100. A(C  21,C  22,H  32)          120.1137         0.351377   
    101. A(C  21,C  22,C  23)          119.3233         0.432868   
    102. A(C  24,C  23,H  33)          119.1890         0.351206   
    103. A(C  22,C  23,H  33)          120.3017         0.352416   
    104. A(C  22,C  23,C  24)          120.5093         0.432890   
    105. A(C  25,C  24,H  34)          120.5100         0.352086   
    106. A(C  23,C  24,H  34)          119.9400         0.351771   
    107. A(C  23,C  24,C  25)          119.5498         0.431722   
    108. A(C  24,C  25,O  26)          124.1316         0.434410   
    109. A(C  20,C  25,O  26)          115.0251         0.430733   
    110. A(C  20,C  25,C  24)          120.8427         0.428481   
    111. A(C  25,O  26,C  27)          120.0237         0.419375   
    112. A(H  36,C  27,H  37)          109.0708         0.286926   
    113. A(H  35,C  27,H  37)          109.4432         0.287817   
    114. A(O  26,C  27,H  37)          111.3225         0.338245   
    115. A(H  35,C  27,H  36)          109.4689         0.287844   
    116. A(O  26,C  27,H  36)          111.2364         0.338278   
    117. A(O  26,C  27,H  35)          106.2453         0.339401   
    118. A(C  18,N  28,O  38)          117.7272         0.444336   
    119. A(C  18,N  28,O  29)          120.7537         0.446019   
    120. A(O  29,N  28,O  38)          121.2644         0.478816   
    121. A(O  42,C  41,O  43)          123.2352         0.484968   
    122. A(C  18,C  41,O  43)          111.4919         0.409870   
    123. A(C  18,C  41,O  42)          125.2610         0.443825   
    124. A(C  41,O  43,C  44)          116.7102         0.420631   
    125. A(H  46,C  44,H  47)          110.1737         0.288274   
    126. A(H  45,C  44,H  47)          108.9651         0.287761   
    127. A(O  43,C  44,H  47)          110.3992         0.335968   
    128. A(H  45,C  44,H  46)          110.2489         0.288451   
    129. A(O  43,C  44,H  46)          106.2656         0.336825   
    130. A(O  43,C  44,H  45)          110.7707         0.336187   
    131. D(C   2,C   1,C   0,H  11)    179.3597         0.022221   
    132. D(H  40,C   1,C   0,C   5)    178.3379         0.022221   
    133. D(C   2,C   1,C   0,C   5)     -3.1193         0.022221   
    134. D(H  40,C   1,C   0,H  11)      0.8170         0.022221   
    135. D(N   3,C   2,C   1,H  40)   -178.0437         0.032289   
    136. D(H  12,C   2,C   1,C   0)   -176.9453         0.032289   
    137. D(H  12,C   2,C   1,H  40)      1.6260         0.032289   
    138. D(N   3,C   2,C   1,C   0)      3.3850         0.032289   
    139. D(C   4,N   3,C   2,H  12)    176.3965         0.031987   
    140. D(C   6,N   3,C   2,H  12)     16.4034         0.031987   
    141. D(C   4,N   3,C   2,C   1)     -3.9094         0.031987   
    142. D(C   6,N   3,C   2,C   1)   -163.9025         0.031987   
    143. D(C   5,C   4,N   3,C   6)    165.2969         0.028386   
    144. D(C   5,C   4,N   3,C   2)      3.8872         0.028386   
    145. D(H  13,C   4,N   3,C   2)    159.8671         0.028386   
    146. D(H  13,C   4,N   3,C   6)    -38.7233         0.028386   
    147. D(H  14,C   5,C   4,H  13)     21.4160         0.022425   
    148. D(C   0,C   5,C   4,H  13)   -158.6585         0.022425   
    149. D(H  14,C   5,C   0,H  11)      0.6793         0.030331   
    150. D(C   0,C   5,C   4,N   3)     -3.5455         0.022425   
    151. D(H  14,C   5,C   0,C   1)   -176.8347         0.030331   
    152. D(H  14,C   5,C   4,N   3)    176.5290         0.022425   
    153. D(C   4,C   5,C   0,H  11)   -179.2435         0.030331   
    154. D(C   4,C   5,C   0,C   1)      3.2425         0.030331   
    155. D(C  19,C   6,N   3,C   4)    -55.0910         0.018452   
    156. D(C  19,C   6,N   3,C   2)    106.4737         0.018452   
    157. D(H  15,C   6,N   3,C   4)   -169.9242         0.018452   
    158. D(C   7,C   6,N   3,C   2)   -124.5728         0.018452   
    159. D(H  15,C   6,N   3,C   2)     -8.3596         0.018452   
    160. D(C   7,C   6,N   3,C   4)     73.8626         0.018452   
    161. D(O   8,C   7,C   6,N   3)    -16.1999         0.011113   
    162. D(O   9,C   7,C   6,C  19)    -78.8368         0.011113   
    163. D(O   9,C   7,C   6,H  15)     41.4487         0.011113   
    164. D(O   9,C   7,C   6,N   3)    159.6192         0.011113   
    165. D(O   8,C   7,C   6,C  19)    105.3440         0.011113   
    166. D(O   8,C   7,C   6,H  15)   -134.3704         0.011113   
    167. D(C  10,O   9,C   7,O   8)     -2.7945         0.038574   
    168. D(C  10,O   9,C   7,C   6)   -178.6645         0.038574   
    169. D(H  39,C  10,O   9,C   7)    -53.9841         0.019328   
    170. D(H  17,C  10,O   9,C   7)     66.8411         0.019328   
    171. D(H  16,C  10,O   9,C   7)   -173.7280         0.019328   
    172. D(H  30,C  19,C  18,C  41)   -146.3034         0.012668   
    173. D(C  20,C  19,C  18,C  41)    -29.5984         0.012668   
    174. D(C  20,C  19,C  18,N  28)    120.4656         0.012668   
    175. D(C   6,C  19,C  18,C  41)    105.2707         0.012668   
    176. D(C   6,C  19,C  18,N  28)   -104.6653         0.012668   
    177. D(H  30,C  19,C   6,H  15)     38.3653         0.007123   
    178. D(H  30,C  19,C   6,C   7)    157.8831         0.007123   
    179. D(H  30,C  19,C   6,N   3)    -77.6547         0.007123   
    180. D(C  20,C  19,C   6,H  15)    -76.1161         0.007123   
    181. D(C  20,C  19,C   6,C   7)     43.4018         0.007123   
    182. D(C  20,C  19,C   6,N   3)    167.8640         0.007123   
    183. D(C  18,C  19,C   6,H  15)    147.6688         0.007123   
    184. D(H  30,C  19,C  18,N  28)      3.7606         0.012668   
    185. D(C  18,C  19,C   6,N   3)     31.6489         0.007123   
    186. D(C  18,C  19,C   6,C   7)    -92.8133         0.007123   
    187. D(C  25,C  20,C  19,H  30)    175.9853         0.012161   
    188. D(C  25,C  20,C  19,C  18)     61.0670         0.012161   
    189. D(C  25,C  20,C  19,C   6)    -72.2597         0.012161   
    190. D(C  21,C  20,C  19,H  30)     -3.8082         0.012161   
    191. D(C  21,C  20,C  19,C  18)   -118.7265         0.012161   
    192. D(C  21,C  20,C  19,C   6)    107.9468         0.012161   
    193. D(C  22,C  21,C  20,C  19)    179.4909         0.026194   
    194. D(H  31,C  21,C  20,C  25)    179.8283         0.026194   
    195. D(H  31,C  21,C  20,C  19)     -0.3711         0.026194   
    196. D(C  22,C  21,C  20,C  25)     -0.3097         0.026194   
    197. D(H  32,C  22,C  21,H  31)     -0.0127         0.025605   
    198. D(H  32,C  22,C  21,C  20)   -179.8730         0.025605   
    199. D(C  23,C  22,C  21,H  31)    179.8895         0.025605   
    200. D(C  23,C  22,C  21,C  20)      0.0292         0.025605   
    201. D(H  33,C  23,C  22,H  32)     -0.0187         0.026748   
    202. D(H  33,C  23,C  22,C  21)   -179.9205         0.026748   
    203. D(C  24,C  23,C  22,H  32)   -179.9768         0.026748   
    204. D(C  24,C  23,C  22,C  21)      0.1214         0.026748   
    205. D(H  34,C  24,C  23,H  33)     -0.1235         0.025620   
    206. D(H  34,C  24,C  23,C  22)    179.8350         0.025620   
    207. D(C  25,C  24,C  23,H  33)   -179.9413         0.025620   
    208. D(C  25,C  24,C  23,C  22)      0.0172         0.025620   
    209. D(O  26,C  25,C  24,H  34)     -0.4001         0.025909   
    210. D(O  26,C  25,C  24,C  23)    179.4167         0.025909   
    211. D(C  20,C  25,C  24,H  34)    179.8754         0.025909   
    212. D(C  20,C  25,C  24,C  23)     -0.3079         0.025909   
    213. D(O  26,C  25,C  20,C  21)   -179.2991         0.023453   
    214. D(O  26,C  25,C  20,C  19)      0.9041         0.023453   
    215. D(C  24,C  25,C  20,C  21)      0.4492         0.023453   
    216. D(C  24,C  25,C  20,C  19)   -179.3475         0.023453   
    217. D(C  27,O  26,C  25,C  24)      2.5074         0.031637   
    218. D(C  27,O  26,C  25,C  20)   -177.7536         0.031637   
    219. D(H  37,C  27,O  26,C  25)    -62.4416         0.021589   
    220. D(H  36,C  27,O  26,C  25)     59.4279         0.021589   
    221. D(H  35,C  27,O  26,C  25)    178.4850         0.021589   
    222. D(O  38,N  28,C  18,C  41)    -14.0226         0.025523   
    223. D(O  38,N  28,C  18,C  19)   -168.5334         0.025523   
    224. D(O  29,N  28,C  18,C  41)    171.7031         0.025523   
    225. D(O  29,N  28,C  18,C  19)     17.1922         0.025523   
    226. D(O  43,C  41,C  18,N  28)    -79.9059         0.011765   
    227. D(O  43,C  41,C  18,C  19)     71.5749         0.011765   
    228. D(O  42,C  41,C  18,N  28)     98.8697         0.011765   
    229. D(O  42,C  41,C  18,C  19)   -109.6496         0.011765   
    230. D(C  44,O  43,C  41,O  42)     -1.1960         0.036446   
    231. D(C  44,O  43,C  41,C  18)    177.6087         0.036446   
    232. D(H  47,C  44,O  43,C  41)    -64.2469         0.019537   
    233. D(H  46,C  44,O  43,C  41)    176.2950         0.019537   
    234. D(H  45,C  44,O  43,C  41)     56.5427         0.019537   
    -----------------------------------------------------------------

Number of atoms                         .... 48
Number of degrees of freedom            .... 234

         *************************************************************
         *                GEOMETRY OPTIMIZATION CYCLE   1            *
         *************************************************************
---------------------------------
CARTESIAN COORDINATES (ANGSTROEM)
---------------------------------
  C     -4.304065   -1.188915    0.013432
  C     -3.815988   -2.191896   -0.857829
  C     -2.465679   -2.395973   -0.927841
  N     -1.612382   -1.702312   -0.129920
  C     -2.046496   -0.715660    0.721742
  C     -3.438354   -0.484117    0.816799
  C     -0.201153   -1.642528   -0.412615
  C      0.613184   -2.115581    0.781623
  O      0.203408   -2.231963    1.909380
  O      1.823488   -2.468837    0.381178
  C      2.712827   -2.967159    1.374858
  H     -5.379201   -1.003372    0.075784
  H     -2.001028   -3.113055   -1.606621
  H     -1.387092   -0.450907    1.545116
  H     -3.792141    0.257678    1.533123
  H      0.030627   -2.339107   -1.228442
  H      3.681842   -3.094068    0.880571
  H      2.351842   -3.931876    1.758998
  C     -0.894409    0.817968   -0.332387
  C      0.051836   -0.163813   -0.962780
  C      1.503699    0.232407   -1.058517
  C      2.113832    0.342821   -2.307106
  C      3.453626    0.717673   -2.433725
  C      4.197103    0.986561   -1.288786
  C      3.614123    0.881414   -0.023694
  C      2.275551    0.503114    0.087957
  O      1.624849    0.362144    1.259579
  C      2.283226    0.652413    2.471080
  N     -1.945729    1.263734   -1.120312
  O     -2.273465    0.651084   -2.142362
  H     -0.317877   -0.241071   -1.993767
  H      1.520378    0.131103   -3.200861
  H      3.908617    0.799237   -3.423181
  H      5.246190    1.282372   -1.369333
  H      4.206137    1.091689    0.867502
  H      1.546991    0.489611    3.266884
  H      2.627258    1.698678    2.497566
  H      3.146264   -0.014428    2.627831
  O     -2.608888    2.228433   -0.706797
  H      2.799851   -2.257962    2.208612
  H     -4.485496   -2.781431   -1.483907
  C     -0.556225    1.823535    0.730550
  O     -0.923306    1.772919    1.881289
  O      0.188922    2.812792    0.246013
  C      0.530356    3.857204    1.148907
  H      1.046888    3.455784    2.031641
  H      1.191843    4.534994    0.598096
  H     -0.373334    4.391874    1.475975

----------------------------
CARTESIAN COORDINATES (A.U.)
----------------------------
  NO LB      ZA    FRAG     MASS         X           Y           Z
   0 C     6.0000    0    12.011   -8.133504   -2.246724    0.025383
   1 C     6.0000    0    12.011   -7.211172   -4.142083   -1.621062
   2 C     6.0000    0    12.011   -4.659458   -4.527733   -1.753365
   3 N     7.0000    0    14.007   -3.046960   -3.216903   -0.245513
   4 C     6.0000    0    12.011   -3.867317   -1.352401    1.363895
   5 C     6.0000    0    12.011   -6.497547   -0.914849    1.543526
   6 C     6.0000    0    12.011   -0.380124   -3.103928   -0.779729
   7 C     6.0000    0    12.011    1.158750   -3.997869    1.477053
   8 O     8.0000    0    15.999    0.384385   -4.217799    3.608205
   9 O     8.0000    0    15.999    3.445893   -4.665426    0.720322
  10 C     6.0000    0    12.011    5.126500   -5.607118    2.598105
  11 H     1.0000    0     1.008  -10.165217   -1.896098    0.143211
  12 H     1.0000    0     1.008   -3.781395   -5.882821   -3.036074
  13 H     1.0000    0     1.008   -2.621224   -0.852091    2.919846
  14 H     1.0000    0     1.008   -7.166108    0.486941    2.897183
  15 H     1.0000    0     1.008    0.057877   -4.420272   -2.321419
  16 H     1.0000    0     1.008    6.957673   -5.846941    1.664038
  17 H     1.0000    0     1.008    4.444337   -7.430169    3.324024
  18 C     6.0000    0    12.011   -1.690188    1.545736   -0.628120
  19 C     6.0000    0    12.011    0.097956   -0.309562   -1.819391
  20 C     6.0000    0    12.011    2.841579    0.439186   -2.000307
  21 C     6.0000    0    12.011    3.994564    0.647838   -4.359799
  22 C     6.0000    0    12.011    6.526407    1.356205   -4.599074
  23 C     6.0000    0    12.011    7.931375    1.864330   -2.435453
  24 C     6.0000    0    12.011    6.829703    1.665631   -0.044775
  25 C     6.0000    0    12.011    4.300168    0.950748    0.166215
  26 O     8.0000    0    15.999    3.070520    0.684353    2.380259
  27 C     6.0000    0    12.011    4.314672    1.232882    4.669664
  28 N     7.0000    0    14.007   -3.676895    2.388111   -2.117083
  29 O     8.0000    0    15.999   -4.296226    1.230370   -4.048477
  30 H     1.0000    0     1.008   -0.600700   -0.455558   -3.767674
  31 H     1.0000    0     1.008    2.873098    0.247749   -6.048751
  32 H     1.0000    0     1.008    7.386216    1.510339   -6.468875
  33 H     1.0000    0     1.008    9.913862    2.423332   -2.587664
  34 H     1.0000    0     1.008    7.948447    2.062993    1.639341
  35 H     1.0000    0     1.008    2.923389    0.925231    6.173516
  36 H     1.0000    0     1.008    4.964798    3.210036    4.719716
  37 H     1.0000    0     1.008    5.945577   -0.027265    4.965881
  38 O     8.0000    0    15.999   -4.930084    4.211128   -1.335653
  39 H     1.0000    0     1.008    5.290952   -4.266930    4.173672
  40 H     1.0000    0     1.008   -8.476359   -5.256143   -2.804178
  41 C     6.0000    0    12.011   -1.051113    3.445982    1.380539
  42 O     8.0000    0    15.999   -1.744795    3.350331    3.555121
  43 O     8.0000    0    15.999    0.357011    5.315407    0.464897
  44 C     6.0000    0    12.011    1.002228    7.289059    2.171120
  45 H     1.0000    0     1.008    1.978332    6.530485    3.839245
  46 H     1.0000    0     1.008    2.252257    8.569897    1.130238
  47 H     1.0000    0     1.008   -0.705499    8.299439    2.789189

--------------------------------
INTERNAL COORDINATES (ANGSTROEM)
--------------------------------
 C      0   0   0     0.000000000000     0.00000000     0.00000000
 C      1   0   0     1.415374782314     0.00000000     0.00000000
 C      2   1   0     1.367436834941   118.54140066     0.00000000
 N      3   2   1     1.358660838977   120.92483160     3.38495708
 C      4   3   2     1.373777746342   122.16084128   356.09056514
 C      1   2   3     1.375352425022   120.37415654   356.88067209
 C      4   3   2     1.440506119432   121.41372709   196.09746071
 C      7   4   3     1.520897199360   110.94945266   235.42721874
 O      8   7   4     1.205527681619   125.63292046   343.80006000
 O      8   7   4     1.322868765969   109.58689881   159.61917104
 C     10   8   7     1.423604093491   116.98353950   181.33553263
 H      1   2   3     1.092808947277   119.64999985   179.35973386
 H      3   2   1     1.091260479869   123.39270436   183.05471456
 H      5   4   3     1.087590239981   116.90915643   159.86710814
 H      6   1   2     1.090204171873   121.88474552   183.16526311
 H      7   4   3     1.097505337377   109.05249397   351.64041374
 H     11  10   8     1.095178342954   106.15737834   186.27199745
 H     11  10   8     1.099341894005   110.23950918    66.84105242
 C      5   4   3     2.188722743198    92.19682013   242.92198712
 C     19   5   4     1.502221310738    94.34297751   339.20496389
 C     20  19   5     1.507999347592   117.47568376   219.10150926
 C     21  20  19     1.394068872045   119.93665245   241.27347358
 C     22  21  20     1.396994758580   121.47815999   179.49090120
 C     23  22  21     1.391382089792   119.32330343     0.02923861
 C     24  23  22     1.396917800185   120.50934270     0.12137197
 C     25  24  23     1.395475487060   119.54977493     0.00000000
 O     26  25  24     1.347584410932   124.13164131   179.41669139
 C     27  26  25     1.409060339195   120.02372692     2.50736276
 N     19   5   4     1.387374093308    95.72673018    96.60190237
 O     29  19   5     1.235854809715   120.75373672   279.40094975
 H     20  19   5     1.097993941287   103.17465446   102.39650026
 H     22  21  20     1.093531051989   118.63102813   359.62890345
 H     23  22  21     1.092104698329   120.11369283   180.12700067
 H     24  23  22     1.092966376655   120.30167790   180.07946472
 H     25  24  23     1.090379045212   119.93998498   179.83503136
 H     28  27  26     1.096289411079   106.24529770   178.48500353
 H     28  27  26     1.101694138790   111.23641346    59.42794616
 H     28  27  26     1.101854066892   111.32253581   297.55844501
 O     29  19   5     1.241538833507   117.72716416    93.67528075
 H     11  10   8     1.098034286305   110.69726307   306.01590511
 H      2   1   3     1.089846842622   121.67539556   181.45726220
 C     19   5   4     1.501788425616   104.28965692   209.94758767
 O     42  19   5     1.208929562108   125.26100279   356.87936259
 O     42  19   5     1.329905849309   111.49194645   178.10380167
 C     44  42  19     1.422178321216   116.71015292   177.60865576
 H     45  44  42     1.098709533125   110.77069080    56.54266967
 H     45  44  42     1.095608092791   106.26557471   176.29503125
 H     45  44  42     1.099773204631   110.39924440   295.75314225

---------------------------
INTERNAL COORDINATES (A.U.)
---------------------------
 C      0   0   0     0.000000000000     0.00000000     0.00000000
 C      1   0   0     2.674670715432     0.00000000     0.00000000
 C      2   1   0     2.584081123475   118.54140066     0.00000000
 N      3   2   1     2.567496894551   120.92483160     3.38495708
 C      4   3   2     2.596063709462   122.16084128   356.09056514
 C      1   2   3     2.599039420916   120.37415654   356.88067209
 C      4   3   2     2.722162059965   121.41372709   196.09746071
 C      7   4   3     2.874079184639   110.94945266   235.42721874
 O      8   7   4     2.278117165120   125.63292046   343.80006000
 O      8   7   4     2.499859678800   109.58689881   159.61917104
 C     10   8   7     2.690221859828   116.98353950   181.33553263
 H      1   2   3     2.065109627053   119.64999985   179.35973386
 H      3   2   1     2.062183447725   123.39270436   183.05471456
 H      5   4   3     2.055247699489   116.90915643   159.86710814
 H      6   1   2     2.060187314899   121.88474552   183.16526311
 H      7   4   3     2.073984518159   109.05249397   351.64041374
 H     11  10   8     2.069587135984   106.15737834   186.27199745
 H     11  10   8     2.077455107215   110.23950918    66.84105242
 C      5   4   3     4.136086567730    92.19682013   242.92198712
 C     19   5   4     2.838786869835    94.34297751   339.20496389
 C     20  19   5     2.849705777081   117.47568376   219.10150926
 C     21  20  19     2.634408379990   119.93665245   241.27347358
 C     22  21  20     2.639937504240   121.47815999   179.49090120
 C     23  22  21     2.629331097350   119.32330343     0.02923861
 C     24  23  22     2.639792073949   120.50934270     0.12137197
 C     25  24  23     2.637066497144   119.54977493     0.00000000
 O     26  25  24     2.546565479004   124.13164131   179.41669139
 C     27  26  25     2.662738147248   120.02372692     2.50736276
 N     19   5   4     2.621757081649    95.72673018    96.60190237
 O     29  19   5     2.335427131651   120.75373672   279.40094975
 H     20  19   5     2.074907845736   103.17465446   102.39650026
 H     22  21  20     2.066474207199   118.63102813   359.62890345
 H     23  22  21     2.063778789411   120.11369283   180.12700067
 H     24  23  22     2.065407125463   120.30167790   180.07946472
 H     25  24  23     2.060517777617   119.93998498   179.83503136
 H     28  27  26     2.071686750458   106.24529770   178.48500353
 H     28  27  26     2.081900205660   111.23641346    59.42794616
 H     28  27  26     2.082202425973   111.32253581   297.55844501
 O     29  19   5     2.346168379957   117.72716416    93.67528075
 H     11  10   8     2.074984086772   110.69726307   306.01590511
 H      2   1   3     2.059512060474   121.67539556   181.45726220
 C     19   5   4     2.837968835507   104.28965692   209.94758767
 O     42  19   5     2.284545787585   125.26100279   356.87936259
 O     42  19   5     2.513157839094   111.49194645   178.10380167
 C     44  42  19     2.687527540698   116.71015292   177.60865576
 H     45  44  42     2.076260118335   110.77069080    56.54266967
 H     45  44  42     2.070399245484   106.26557471   176.29503125
 H     45  44  42     2.078270166177   110.39924440   295.75314225

---------------------
BASIS SET INFORMATION
---------------------
There are 4 groups of distinct atoms

 Group   1 Type C   : 11s6p2d1f contracted to 5s3p2d1f pattern {62111/411/11/1}
 Group   2 Type N   : 11s6p2d1f contracted to 5s3p2d1f pattern {62111/411/11/1}
 Group   3 Type O   : 11s6p2d1f contracted to 5s3p2d1f pattern {62111/411/11/1}
 Group   4 Type H   : 5s1p contracted to 3s1p pattern {311/1}

Atom   0C    basis set group =>   1
Atom   1C    basis set group =>   1
Atom   2C    basis set group =>   1
Atom   3N    basis set group =>   2
Atom   4C    basis set group =>   1
Atom   5C    basis set group =>   1
Atom   6C    basis set group =>   1
Atom   7C    basis set group =>   1
Atom   8O    basis set group =>   3
Atom   9O    basis set group =>   3
Atom  10C    basis set group =>   1
Atom  11H    basis set group =>   4
Atom  12H    basis set group =>   4
Atom  13H    basis set group =>   4
Atom  14H    basis set group =>   4
Atom  15H    basis set group =>   4
Atom  16H    basis set group =>   4
Atom  17H    basis set group =>   4
Atom  18C    basis set group =>   1
Atom  19C    basis set group =>   1
Atom  20C    basis set group =>   1
Atom  21C    basis set group =>   1
Atom  22C    basis set group =>   1
Atom  23C    basis set group =>   1
Atom  24C    basis set group =>   1
Atom  25C    basis set group =>   1
Atom  26O    basis set group =>   3
Atom  27C    basis set group =>   1
Atom  28N    basis set group =>   2
Atom  29O    basis set group =>   3
Atom  30H    basis set group =>   4
Atom  31H    basis set group =>   4
Atom  32H    basis set group =>   4
Atom  33H    basis set group =>   4
Atom  34H    basis set group =>   4
Atom  35H    basis set group =>   4
Atom  36H    basis set group =>   4
Atom  37H    basis set group =>   4
Atom  38O    basis set group =>   3
Atom  39H    basis set group =>   4
Atom  40H    basis set group =>   4
Atom  41C    basis set group =>   1
Atom  42O    basis set group =>   3
Atom  43O    basis set group =>   3
Atom  44C    basis set group =>   1
Atom  45H    basis set group =>   4
Atom  46H    basis set group =>   4
Atom  47H    basis set group =>   4
---------------------------------
AUXILIARY/J BASIS SET INFORMATION
---------------------------------
There are 4 groups of distinct atoms

 Group   1 Type C   : 12s5p4d2f1g contracted to 6s4p3d1f1g pattern {711111/2111/211/2/1}
 Group   2 Type N   : 12s5p4d2f1g contracted to 6s4p3d1f1g pattern {711111/2111/211/2/1}
 Group   3 Type O   : 12s5p4d2f1g contracted to 6s4p3d1f1g pattern {711111/2111/211/2/1}
 Group   4 Type H   : 5s2p1d contracted to 3s1p1d pattern {311/2/1}

Atom   0C    basis set group =>   1
Atom   1C    basis set group =>   1
Atom   2C    basis set group =>   1
Atom   3N    basis set group =>   2
Atom   4C    basis set group =>   1
Atom   5C    basis set group =>   1
Atom   6C    basis set group =>   1
Atom   7C    basis set group =>   1
Atom   8O    basis set group =>   3
Atom   9O    basis set group =>   3
Atom  10C    basis set group =>   1
Atom  11H    basis set group =>   4
Atom  12H    basis set group =>   4
Atom  13H    basis set group =>   4
Atom  14H    basis set group =>   4
Atom  15H    basis set group =>   4
Atom  16H    basis set group =>   4
Atom  17H    basis set group =>   4
Atom  18C    basis set group =>   1
Atom  19C    basis set group =>   1
Atom  20C    basis set group =>   1
Atom  21C    basis set group =>   1
Atom  22C    basis set group =>   1
Atom  23C    basis set group =>   1
Atom  24C    basis set group =>   1
Atom  25C    basis set group =>   1
Atom  26O    basis set group =>   3
Atom  27C    basis set group =>   1
Atom  28N    basis set group =>   2
Atom  29O    basis set group =>   3
Atom  30H    basis set group =>   4
Atom  31H    basis set group =>   4
Atom  32H    basis set group =>   4
Atom  33H    basis set group =>   4
Atom  34H    basis set group =>   4
Atom  35H    basis set group =>   4
Atom  36H    basis set group =>   4
Atom  37H    basis set group =>   4
Atom  38O    basis set group =>   3
Atom  39H    basis set group =>   4
Atom  40H    basis set group =>   4
Atom  41C    basis set group =>   1
Atom  42O    basis set group =>   3
Atom  43O    basis set group =>   3
Atom  44C    basis set group =>   1
Atom  45H    basis set group =>   4
Atom  46H    basis set group =>   4
Atom  47H    basis set group =>   4


           ************************************************************
           *        Program running with 24 parallel MPI-processes    *
           *              working on a common directory               *
           ************************************************************
------------------------------------------------------------------------------
                           ORCA GTO INTEGRAL CALCULATION
                           -- RI-GTO INTEGRALS CHOSEN --
------------------------------------------------------------------------------
------------------------------------------------------------------------------
                   ___                                                        
                  /   \      - P O W E R E D   B Y -                         
                 /     \                                                     
                 |  |  |   _    _      __       _____    __    __             
                 |  |  |  | |  | |    /  \     |  _  \  |  |  /  |          
                  \  \/   | |  | |   /    \    | | | |  |  | /  /          
                 / \  \   | |__| |  /  /\  \   | |_| |  |  |/  /          
                |  |  |   |  __  | /  /__\  \  |    /   |      \           
                |  |  |   | |  | | |   __   |  |    \   |  |\   \          
                \     /   | |  | | |  |  |  |  | |\  \  |  | \   \       
                 \___/    |_|  |_| |__|  |__|  |_| \__\ |__|  \__/        
                                                                              
                      - O R C A' S   B I G   F R I E N D -                    
                                      &                                       
                       - I N T E G R A L  F E E D E R -                       
                                                                              
 v1 FN, 2020, v2 2021                                                         
------------------------------------------------------------------------------


Reading SHARK input file TS1_CO2Me/TS1_CO2Me.SHARKINP.tmp ... ok
----------------------
SHARK INTEGRAL PACKAGE
----------------------

Number of atoms                             ...     48
Number of basis functions                   ...    988
Number of shells                            ...    388
Maximum angular momentum                    ...      3
Integral batch strategy                     ... SHARK/LIBINT Hybrid
RI-J (if used) integral strategy            ... SPLIT-RIJ (Revised 2003 algorithm where possible)
Printlevel                                  ...      1
Contraction scheme used                     ... SEGMENTED contraction
Coulomb Range Separation                    ... NOT USED
Exchange Range Separation                   ... NOT USED
Finite Nucleus Model                        ... NOT USED
Auxiliary Coulomb fitting basis             ... AVAILABLE
   # of basis functions in Aux-J            ...   1592
   # of shells in Aux-J                     ...    520
   Maximum angular momentum in Aux-J        ...      4
Auxiliary J/K fitting basis                 ... NOT available
Auxiliary Correlation fitting basis         ... NOT available
Auxiliary 'external' fitting basis          ... NOT available
Integral threshold                          ...     2.500000e-11
Primitive cut-off                           ...     2.500000e-12
Primitive pair pre-selection threshold      ...     2.500000e-12

Calculating pre-screening integrals         ... done (  0.1 sec) Dimension = 388
Organizing shell pair data                  ... done (  0.6 sec)
Shell pair information
Total number of shell pairs                 ...     75466
Shell pairs after pre-screening             ...     54617
Total number of primitive shell pairs       ...    232216
Primitive shell pairs kept                  ...    108970
          la=0 lb=0:  13874 shell pairs
          la=1 lb=0:  15666 shell pairs
          la=1 lb=1:   4438 shell pairs
          la=2 lb=0:   7829 shell pairs
          la=2 lb=1:   4524 shell pairs
          la=2 lb=2:   1179 shell pairs
          la=3 lb=0:   3602 shell pairs
          la=3 lb=1:   2158 shell pairs
          la=3 lb=2:   1083 shell pairs
          la=3 lb=3:    264 shell pairs

Calculating one electron integrals          ... done (  0.1 sec)
Calculating RI/J V-Matrix + Cholesky decomp.... done (  0.3 sec)
Calculating Nuclear repulsion               ... done (  0.0 sec) ENN=   2981.466330510867 Eh

SHARK setup successfully completed in   1.9 seconds

Maximum memory used throughout the entire GTOINT-calculation: 81.4 MB


           ************************************************************
           *        Program running with 24 parallel MPI-processes    *
           *              working on a common directory               *
           ************************************************************
-------------------------------------------------------------------------------
                                 ORCA SCF
-------------------------------------------------------------------------------

------------
SCF SETTINGS
------------
Hamiltonian:
 Density Functional     Method          .... DFT(GTOs)
 Exchange Functional    Exchange        .... PBE
   PBE kappa parameter   XKappa         ....  0.804000
   PBE mue parameter    XMuePBE         ....  0.219520
 Correlation Functional Correlation     .... PBE
   PBE beta parameter  CBetaPBE         ....  0.066725
 LDA part of GGA corr.  LDAOpt          .... PW91-LDA
 Gradients option       PostSCFGGA      .... off
 Hybrid DFT is turned on
   Fraction HF Exchange ScalHFX         ....  0.250000
   Scaling of DF-GGA-X  ScalDFX         ....  0.750000
   Scaling of DF-GGA-C  ScalDFC         ....  1.000000
   Scaling of DF-LDA-C  ScalLDAC        ....  1.000000
   Perturbative correction              ....  0.000000
   Density functional embedding theory  .... OFF
   NL short-range parameter             ....  6.900000
 RI-approximation to the Coulomb term is turned on
   Number of AuxJ basis functions       .... 1592
   RIJ-COSX (HFX calculated with COS-X)).... on


General Settings:
 Integral files         IntName         .... TS1_CO2Me/TS1_CO2Me
 Hartree-Fock type      HFTyp           .... RHF
 Total Charge           Charge          ....    0
 Multiplicity           Mult            ....    1
 Number of Electrons    NEL             ....  204
 Basis Dimension        Dim             ....  988
 Nuclear Repulsion      ENuc            ....   2981.4663305109 Eh

Convergence Acceleration:
 DIIS                   CNVDIIS         .... on
   Start iteration      DIISMaxIt       ....    12
   Startup error        DIISStart       ....  0.200000
   # of expansion vecs  DIISMaxEq       ....     5
   Bias factor          DIISBfac        ....   1.050
   Max. coefficient     DIISMaxC        ....  10.000
 Trust-Rad. Augm. Hess. CNVTRAH         .... auto
   Auto Start mean grad. ratio tolernc. ....  1.125000
   Auto Start start iteration           ....    20
   Auto Start num. interpolation iter.  ....    10
   Max. Number of Micro iterations      ....    16
   Max. Number of Macro iterations      .... Maxiter - #DIIS iter
   Number of Davidson start vectors     ....     2
   Converg. threshold I  (grad. norm)   ....   1.000e-05
   Converg. threshold II (energy diff.) ....   1.000e-08
   Grad. Scal. Fac. for Micro threshold ....   0.100
   Minimum threshold for Micro iter.    ....   0.010
   NR start threshold (gradient norm)   ....   0.001
   Initial trust radius                 ....   0.400
   Minimum AH scaling param. (alpha)    ....   1.000
   Maximum AH scaling param. (alpha)    .... 1000.000
   Orbital update algorithm             .... Taylor
   White noise on init. David. guess    .... on
   Maximum white noise                  ....   0.010
   Quad. conv. algorithm                .... NR
 SOSCF                  CNVSOSCF        .... on
   Start iteration      SOSCFMaxIt      ....   150
   Startup grad/error   SOSCFStart      ....  0.003300
 Level Shifting         CNVShift        .... on
   Level shift para.    LevelShift      ....    0.2500
   Turn off err/grad.   ShiftErr        ....    0.0010
 Zerner damping         CNVZerner       .... off
 Static damping         CNVDamp         .... on
   Fraction old density DampFac         ....    0.7000
   Max. Damping (<1)    DampMax         ....    0.9800
   Min. Damping (>=0)   DampMin         ....    0.0000
   Turn off err/grad.   DampErr         ....    0.1000
 Fernandez-Rico         CNVRico         .... off

SCF Procedure:
 Maximum # iterations   MaxIter         ....   800
 SCF integral mode      SCFMode         .... Direct
   Integral package                     .... SHARK and LIBINT hybrid scheme
 Reset frequency        DirectResetFreq ....    20
 Integral Threshold     Thresh          ....  2.500e-11 Eh
 Primitive CutOff       TCut            ....  2.500e-12 Eh

Convergence Tolerance:
 Convergence Check Mode ConvCheckMode   .... Total+1el-Energy
 Convergence forced     ConvForced      .... 0
 Energy Change          TolE            ....  1.000e-08 Eh
 1-El. energy change                    ....  1.000e-05 Eh
 Orbital Gradient       TolG            ....  1.000e-05
 Orbital Rotation angle TolX            ....  1.000e-05
 DIIS Error             TolErr          ....  5.000e-07


Diagonalization of the overlap matrix:
Smallest eigenvalue                        ... 5.587e-06
Time for diagonalization                   ...    0.329 sec
Threshold for overlap eigenvalues          ... 1.000e-08
Number of eigenvalues below threshold      ... 0
Time for construction of square roots      ...    0.184 sec
Total time needed                          ...    0.521 sec

Time for model grid setup =    0.376 sec

------------------------------
INITIAL GUESS: MODEL POTENTIAL
------------------------------
Loading Hartree-Fock densities                     ... done
Calculating cut-offs                               ... done
Initializing the effective Hamiltonian             ... done
Setting up the integral package (SHARK)            ... done
Starting the Coulomb interaction                   ... done (   0.6 sec)
Reading the grid                                   ... done
Mapping shells                                     ... done
Starting the XC term evaluation                    ... done (   0.3 sec)
  promolecular density results
     # of electrons  =    203.977283177
     EX              =   -173.311115751
     EC              =     -6.927717358
     EX+EC           =   -180.238833109
Transforming the Hamiltonian                       ... done (   0.2 sec)
Diagonalizing the Hamiltonian                      ... done (   0.3 sec)
Back transforming the eigenvectors                 ... done (   0.1 sec)
Now organizing SCF variables                       ... done
                      ------------------
                      INITIAL GUESS DONE (   2.1 sec)
                      ------------------
-------------------
DFT GRID GENERATION
-------------------

General Integration Accuracy     IntAcc      ... 4.388
Radial Grid Type                 RadialGrid  ... OptM3 with GC (2021)
Angular Grid (max. ang.)         AngularGrid ... 4 (Lebedev-302)
Angular grid pruning method      GridPruning ... 4 (adaptive)
Weight generation scheme         WeightScheme... Becke
Basis function cutoff            BFCut       ... 1.0000e-11
Integration weight cutoff        WCut        ... 1.0000e-14
Angular grids for H and He will be reduced by one unit
Partially contracted basis set               ... off
Rotationally invariant grid construction     ... off

Total number of grid points                  ...   230013
Total number of batches                      ...     3621
Average number of points per batch           ...       63
Average number of grid points per atom       ...     4792
Time for grid setup =    1.618 sec

--------------------
COSX GRID GENERATION
--------------------

GRIDX 1
-------
General Integration Accuracy     IntAcc      ... 3.816
Radial Grid Type                 RadialGrid  ... OptM3 with GC (2021)
Angular Grid (max. ang.)         AngularGrid ... 1 (Lebedev-50)
Angular grid pruning method      GridPruning ... 4 (adaptive)
Weight generation scheme         WeightScheme... Becke
Basis function cutoff            BFCut       ... 1.0000e-11
Integration weight cutoff        WCut        ... 1.0000e-14
Angular grids for H and He will be reduced by one unit
Partially contracted basis set               ... on
Rotationally invariant grid construction     ... off

Total number of grid points                  ...    29173
Total number of batches                      ...      480
Average number of points per batch           ...       60
Average number of grid points per atom       ...      608
UseSFitting                                  ... on

GRIDX 2
-------
General Integration Accuracy     IntAcc      ... 4.020
Radial Grid Type                 RadialGrid  ... OptM3 with GC (2021)
Angular Grid (max. ang.)         AngularGrid ... 2 (Lebedev-110)
Angular grid pruning method      GridPruning ... 4 (adaptive)
Weight generation scheme         WeightScheme... Becke
Basis function cutoff            BFCut       ... 1.0000e-11
Integration weight cutoff        WCut        ... 1.0000e-14
Angular grids for H and He will be reduced by one unit
Partially contracted basis set               ... on
Rotationally invariant grid construction     ... off

Total number of grid points                  ...    63114
Total number of batches                      ...     1009
Average number of points per batch           ...       62
Average number of grid points per atom       ...     1315
UseSFitting                                  ... on

GRIDX 3
-------
General Integration Accuracy     IntAcc      ... 4.338
Radial Grid Type                 RadialGrid  ... OptM3 with GC (2021)
Angular Grid (max. ang.)         AngularGrid ... 3 (Lebedev-194)
Angular grid pruning method      GridPruning ... 4 (adaptive)
Weight generation scheme         WeightScheme... Becke
Basis function cutoff            BFCut       ... 1.0000e-11
Integration weight cutoff        WCut        ... 1.0000e-14
Angular grids for H and He will be reduced by one unit
Partially contracted basis set               ... on
Rotationally invariant grid construction     ... off

Total number of grid points                  ...   137635
Total number of batches                      ...     2175
Average number of points per batch           ...       63
Average number of grid points per atom       ...     2867
UseSFitting                                  ... on

Time for X-Grid setup             =    3.094 sec


--------------------
CPCM SOLVATION MODEL
--------------------
CPCM parameters:
  Epsilon                                         ...      47.2000
  Refrac                                          ...       1.4790
  Rsolv                                           ...       1.3000
  Surface type                                    ... GAUSSIAN VDW
  Epsilon function type                           ...         CPCM
Radii:
 Radius for C  used is    3.8550 Bohr (=   2.0400 Ang.)
 Radius for N  used is    3.5149 Bohr (=   1.8600 Ang.)
 Radius for O  used is    3.4469 Bohr (=   1.8240 Ang.)
 Radius for H  used is    2.4944 Bohr (=   1.3200 Ang.)
Calculating surface                               ...        done! (  0.0s)
GEPOL surface points                              ...         2384
GEPOL Volume                                      ...    2885.1812
GEPOL Surface-area                                ...    1360.6824
Calculating surface distance matrix               ...        done! (  0.1s)
Performing Cholesky decomposition & store         ...        done! (  0.4s)
Overall time for CPCM initialization              ...                 0.5s
--------------
SCF ITERATIONS
--------------
ITER       Energy         Delta-E        Max-DP      RMS-DP      [F,P]     Damp
               ***  Starting incremental Fock matrix formation  ***
  0  -1370.3860815665   0.000000000000 0.09006059  0.00063241  0.2741746 0.7000
  1  -1370.6690719541  -0.282990387563 0.08075608  0.00053518  0.1110740 0.7000
                               ***Turning on DIIS***
  2  -1370.7776010576  -0.108529103493 0.11843481  0.00101875  0.0355004 0.0000
  3  -1370.9663452657  -0.188744208141 0.08191354  0.00039582  0.0509269 0.0000
  4  -1370.9958512967  -0.029506031023 0.03895295  0.00017962  0.0180425 0.0000
  5  -1370.9986155358  -0.002764239109 0.00942146  0.00004853  0.0036610 0.0000
                      *** Initiating the SOSCF procedure ***
                           *** Shutting down DIIS ***
                      *** Re-Reading the Fockian *** 
                      *** Removing any level shift *** 
ITER      Energy       Delta-E        Grad      Rot      Max-DP    RMS-DP
  6  -1370.99873707  -0.0001215327  0.000187  0.000187  0.002762  0.000017
               *** Restarting incremental Fock matrix formation ***
  7  -1370.99875783  -0.0000207573  0.000156  0.000625  0.002136  0.000020
  8  -1370.99875682   0.0000010049  0.000237  0.000294  0.000785  0.000005
  9  -1370.99876074  -0.0000039218  0.000033  0.000145  0.000331  0.000003
 10  -1370.99876066   0.0000000865  0.000054  0.000073  0.000268  0.000001
 11  -1370.99876083  -0.0000001774  0.000006  0.000018  0.000182  0.000001
 12  -1370.99876082   0.0000000129  0.000009  0.000016  0.000232  0.000001
                  ***Gradient check signals convergence***
              ***Rediagonalizing the Fockian in SOSCF/NRSCF***

               *****************************************************
               *                     SUCCESS                       *
               *           SCF CONVERGED AFTER  13 CYCLES          *
               *****************************************************

Old exchange energy                            =    -44.100736481 Eh
New exchange energy                            =    -44.100745512 Eh
Exchange energy change after final integration =     -0.000009031 Eh
Total energy after final integration           =  -1370.998769838 Eh
Final COS-X integration done in                =    20.820 sec

----------------
TOTAL SCF ENERGY
----------------

Total Energy       :        -1370.99876984 Eh          -37306.77317 eV

Components:
Nuclear Repulsion  :         2981.46633051 Eh           81129.82341 eV
Electronic Energy  :        -4352.46510035 Eh         -118436.59658 eV
One Electron Energy:        -7805.37215892 Eh         -212394.97440 eV
Two Electron Energy:         3452.90705857 Eh           93958.37782 eV
Max COSX asymmetry :            0.00000232 Eh               0.00006 eV
CPCM Dielectric    :           -0.04798223 Eh              -1.30566 eV

Virial components:
Potential Energy   :        -2735.66275633 Eh          -74441.16812 eV
Kinetic Energy     :         1364.66398650 Eh           37134.39495 eV
Virial Ratio       :            2.00464201


DFT components:
N(Alpha)           :      102.000127699596 electrons
N(Beta)            :      102.000127699596 electrons
N(Total)           :      204.000255399191 electrons
E(X)               :     -132.126688139294 Eh       
E(C)               :       -6.918829947236 Eh       
E(XC)              :     -139.045518086530 Eh       
DFET-embed. en.    :        0.000000000000 Eh       
CPCM Solvation Model Properties:
Surface-charge          :           -0.02979389
Charge-correction       :           -0.00033550 Eh              -0.00913 eV
Free-energy (cav+disp)  :  This term is not implemented in the current solvation scheme

---------------
SCF CONVERGENCE
---------------

  Last Energy change         ...    1.4044e-08  Tolerance :   1.0000e-08
  Last MAX-Density change    ...    3.3307e-15  Tolerance :   1.0000e-07
  Last RMS-Density change    ...    1.4016e-17  Tolerance :   5.0000e-09
  Last Orbital Gradient      ...    1.5258e-06  Tolerance :   1.0000e-05
  Last Orbital Rotation      ...    3.9702e-06  Tolerance :   1.0000e-05

             **** THE GBW FILE WAS UPDATED (TS1_CO2Me/TS1_CO2Me.gbw) ****
             **** DENSITY TS1_CO2Me/TS1_CO2Me.scfp WAS UPDATED ****
             **** ENERGY FILE WAS UPDATED (TS1_CO2Me/TS1_CO2Me.en.tmp) ****
             **** THE GBW FILE WAS UPDATED (TS1_CO2Me/TS1_CO2Me.gbw) ****
             **** DENSITY TS1_CO2Me/TS1_CO2Me.scfp WAS UPDATED ****
----------------
ORBITAL ENERGIES
----------------

  NO   OCC          E(Eh)            E(eV) 
   0   2.0000     -19.268837      -524.3317 
   1   2.0000     -19.260440      -524.1032 
   2   2.0000     -19.251023      -523.8470 
   3   2.0000     -19.208494      -522.6897 
   4   2.0000     -19.207254      -522.6560 
   5   2.0000     -19.205782      -522.6159 
   6   2.0000     -19.200035      -522.4595 
   7   2.0000     -14.590059      -397.0157 
   8   2.0000     -14.478588      -393.9824 
   9   2.0000     -10.368962      -282.1538 
  10   2.0000     -10.364042      -282.0199 
  11   2.0000     -10.302483      -280.3448 
  12   2.0000     -10.302237      -280.3381 
  13   2.0000     -10.294240      -280.1205 
  14   2.0000     -10.294165      -280.1185 
  15   2.0000     -10.275186      -279.6020 
  16   2.0000     -10.271583      -279.5040 
  17   2.0000     -10.271555      -279.5032 
  18   2.0000     -10.270330      -279.4699 
  19   2.0000     -10.268810      -279.4285 
  20   2.0000     -10.261347      -279.2255 
  21   2.0000     -10.248051      -278.8636 
  22   2.0000     -10.244779      -278.7746 
  23   2.0000     -10.243481      -278.7393 
  24   2.0000     -10.234201      -278.4868 
  25   2.0000     -10.233776      -278.4752 
  26   2.0000     -10.229941      -278.3708 
  27   2.0000     -10.225272      -278.2438 
  28   2.0000      -1.235258       -33.6131 
  29   2.0000      -1.160823       -31.5876 
  30   2.0000      -1.150188       -31.2982 
  31   2.0000      -1.115662       -30.3587 
  32   2.0000      -1.070664       -29.1342 
  33   2.0000      -1.056774       -28.7563 
  34   2.0000      -1.053588       -28.6696 
  35   2.0000      -1.049099       -28.5474 
  36   2.0000      -0.900302       -24.4985 
  37   2.0000      -0.878172       -23.8963 
  38   2.0000      -0.864283       -23.5183 
  39   2.0000      -0.820355       -22.3230 
  40   2.0000      -0.816740       -22.2246 
  41   2.0000      -0.790391       -21.5076 
  42   2.0000      -0.780365       -21.2348 
  43   2.0000      -0.758009       -20.6265 
  44   2.0000      -0.750910       -20.4333 
  45   2.0000      -0.724075       -19.7031 
  46   2.0000      -0.705183       -19.1890 
  47   2.0000      -0.689268       -18.7559 
  48   2.0000      -0.664918       -18.0933 
  49   2.0000      -0.638826       -17.3833 
  50   2.0000      -0.630716       -17.1627 
  51   2.0000      -0.613638       -16.6980 
  52   2.0000      -0.604292       -16.4436 
  53   2.0000      -0.581502       -15.8235 
  54   2.0000      -0.566630       -15.4188 
  55   2.0000      -0.565241       -15.3810 
  56   2.0000      -0.556945       -15.1552 
  57   2.0000      -0.553869       -15.0716 
  58   2.0000      -0.544535       -14.8175 
  59   2.0000      -0.533605       -14.5201 
  60   2.0000      -0.531763       -14.4700 
  61   2.0000      -0.522178       -14.2092 
  62   2.0000      -0.516571       -14.0566 
  63   2.0000      -0.509173       -13.8553 
  64   2.0000      -0.502766       -13.6809 
  65   2.0000      -0.500409       -13.6168 
  66   2.0000      -0.498878       -13.5752 
  67   2.0000      -0.493010       -13.4155 
  68   2.0000      -0.483582       -13.1589 
  69   2.0000      -0.478875       -13.0309 
  70   2.0000      -0.472283       -12.8515 
  71   2.0000      -0.468953       -12.7609 
  72   2.0000      -0.461348       -12.5539 
  73   2.0000      -0.454155       -12.3582 
  74   2.0000      -0.444173       -12.0866 
  75   2.0000      -0.440060       -11.9746 
  76   2.0000      -0.433531       -11.7970 
  77   2.0000      -0.424477       -11.5506 
  78   2.0000      -0.410623       -11.1736 
  79   2.0000      -0.405267       -11.0279 
  80   2.0000      -0.401612       -10.9284 
  81   2.0000      -0.396001       -10.7757 
  82   2.0000      -0.393383       -10.7045 
  83   2.0000      -0.389725       -10.6050 
  84   2.0000      -0.383619       -10.4388 
  85   2.0000      -0.379865       -10.3367 
  86   2.0000      -0.374656       -10.1949 
  87   2.0000      -0.369730       -10.0609 
  88   2.0000      -0.347200        -9.4478 
  89   2.0000      -0.345123        -9.3913 
  90   2.0000      -0.333612        -9.0780 
  91   2.0000      -0.329526        -8.9669 
  92   2.0000      -0.326827        -8.8934 
  93   2.0000      -0.321580        -8.7506 
  94   2.0000      -0.318642        -8.6707 
  95   2.0000      -0.309306        -8.4166 
  96   2.0000      -0.305984        -8.3262 
  97   2.0000      -0.300489        -8.1767 
  98   2.0000      -0.286489        -7.7958 
  99   2.0000      -0.271404        -7.3853 
 100   2.0000      -0.242346        -6.5946 
 101   2.0000      -0.218559        -5.9473 
 102   0.0000      -0.069740        -1.8977 
 103   0.0000      -0.040165        -1.0930 
 104   0.0000      -0.019434        -0.5288 
 105   0.0000      -0.006937        -0.1888 
 106   0.0000      -0.001777        -0.0483 
 107   0.0000       0.001941         0.0528 
 108   0.0000       0.012342         0.3358 
 109   0.0000       0.044369         1.2073 
 110   0.0000       0.054128         1.4729 
 111   0.0000       0.063697         1.7333 
 112   0.0000       0.069229         1.8838 
 113   0.0000       0.074596         2.0299 
 114   0.0000       0.084568         2.3012 
 115   0.0000       0.089211         2.4276 
 116   0.0000       0.092475         2.5164 
 117   0.0000       0.097714         2.6589 
 118   0.0000       0.101139         2.7521 
 119   0.0000       0.107085         2.9139 
 120   0.0000       0.111166         3.0250 
 121   0.0000       0.116111         3.1595 
 122   0.0000       0.117522         3.1979 
 123   0.0000       0.118867         3.2345 
 124   0.0000       0.121773         3.3136 
 125   0.0000       0.127233         3.4622 
 126   0.0000       0.129493         3.5237 
 127   0.0000       0.132110         3.5949 
 128   0.0000       0.135577         3.6892 
 129   0.0000       0.143586         3.9072 
 130   0.0000       0.143703         3.9104 
 131   0.0000       0.148539         4.0419 
 132   0.0000       0.151464         4.1215 
 133   0.0000       0.152872         4.1599 
 134   0.0000       0.163090         4.4379 
 135   0.0000       0.166698         4.5361 
 136   0.0000       0.171713         4.6726 
 137   0.0000       0.180329         4.9070 
 138   0.0000       0.189195         5.1483 
 139   0.0000       0.190564         5.1855 
 140   0.0000       0.197106         5.3635 
 141   0.0000       0.205472         5.5912 
 142   0.0000       0.210318         5.7230 
 143   0.0000       0.211194         5.7469 
 144   0.0000       0.218073         5.9341 
 145   0.0000       0.220584         6.0024 
 146   0.0000       0.223462         6.0807 
 147   0.0000       0.226720         6.1694 
 148   0.0000       0.230194         6.2639 
 149   0.0000       0.234725         6.3872 
 150   0.0000       0.240195         6.5360 
 151   0.0000       0.243442         6.6244 
 152   0.0000       0.245539         6.6815 
 153   0.0000       0.249345         6.7850 
 154   0.0000       0.254174         6.9164 
 155   0.0000       0.256773         6.9871 
 156   0.0000       0.262794         7.1510 
 157   0.0000       0.264208         7.1895 
 158   0.0000       0.268973         7.3191 
 159   0.0000       0.269385         7.3303 
 160   0.0000       0.281239         7.6529 
 161   0.0000       0.288450         7.8491 
 162   0.0000       0.289430         7.8758 
 163   0.0000       0.292113         7.9488 
 164   0.0000       0.298935         8.1344 
 165   0.0000       0.300945         8.1891 
 166   0.0000       0.304257         8.2793 
 167   0.0000       0.308931         8.4065 
 168   0.0000       0.309394         8.4190 
 169   0.0000       0.315402         8.5825 
 170   0.0000       0.316806         8.6207 
 171   0.0000       0.320613         8.7243 
 172   0.0000       0.327366         8.9081 
 173   0.0000       0.329461         8.9651 
 174   0.0000       0.331960         9.0331 
 175   0.0000       0.336270         9.1504 
 176   0.0000       0.342963         9.3325 
 177   0.0000       0.348035         9.4705 
 178   0.0000       0.348093         9.4721 
 179   0.0000       0.351214         9.5570 
 180   0.0000       0.354069         9.6347 
 181   0.0000       0.362416         9.8618 
 182   0.0000       0.369218        10.0469 
 183   0.0000       0.369942        10.0666 
 184   0.0000       0.372773        10.1437 
 185   0.0000       0.377001        10.2587 
 186   0.0000       0.381872        10.3913 
 187   0.0000       0.383044        10.4231 
 188   0.0000       0.385401        10.4873 
 189   0.0000       0.388792        10.5796 
 190   0.0000       0.396303        10.7840 
 191   0.0000       0.397877        10.8268 
 192   0.0000       0.401126        10.9152 
 193   0.0000       0.405588        11.0366 
 194   0.0000       0.410292        11.1646 
 195   0.0000       0.413914        11.2632 
 196   0.0000       0.418010        11.3746 
 197   0.0000       0.423409        11.5216 
 198   0.0000       0.427557        11.6344 
 199   0.0000       0.428722        11.6661 
 200   0.0000       0.433288        11.7904 
 201   0.0000       0.436089        11.8666 
 202   0.0000       0.439203        11.9513 
 203   0.0000       0.440114        11.9761 
 204   0.0000       0.443420        12.0661 
 205   0.0000       0.447623        12.1805 
 206   0.0000       0.449776        12.2390 
 207   0.0000       0.453768        12.3477 
 208   0.0000       0.459781        12.5113 
 209   0.0000       0.462178        12.5765 
 210   0.0000       0.464972        12.6525 
 211   0.0000       0.465144        12.6572 
 212   0.0000       0.468905        12.7596 
 213   0.0000       0.474688        12.9169 
 214   0.0000       0.477718        12.9994 
 215   0.0000       0.483487        13.1564 
 216   0.0000       0.488443        13.2912 
 217   0.0000       0.493838        13.4380 
 218   0.0000       0.496284        13.5046 
 219   0.0000       0.497292        13.5320 
 220   0.0000       0.506119        13.7722 
 221   0.0000       0.508046        13.8246 
 222   0.0000       0.508988        13.8503 
 223   0.0000       0.512672        13.9505 
 224   0.0000       0.517953        14.0942 
 225   0.0000       0.518996        14.1226 
 226   0.0000       0.520689        14.1687 
 227   0.0000       0.526318        14.3218 
 228   0.0000       0.535579        14.5738 
 229   0.0000       0.538584        14.6556 
 230   0.0000       0.539849        14.6900 
 231   0.0000       0.544390        14.8136 
 232   0.0000       0.548348        14.9213 
 233   0.0000       0.555033        15.1032 
 234   0.0000       0.558131        15.1875 
 235   0.0000       0.560276        15.2459 
 236   0.0000       0.564691        15.3660 
 237   0.0000       0.571376        15.5479 
 238   0.0000       0.574163        15.6238 
 239   0.0000       0.580062        15.7843 
 240   0.0000       0.582649        15.8547 
 241   0.0000       0.592813        16.1313 
 242   0.0000       0.598720        16.2920 
 243   0.0000       0.604862        16.4591 
 244   0.0000       0.611663        16.6442 
 245   0.0000       0.616206        16.7678 
 246   0.0000       0.620163        16.8755 
 247   0.0000       0.624863        17.0034 
 248   0.0000       0.641591        17.4586 
 249   0.0000       0.642823        17.4921 
 250   0.0000       0.650112        17.6904 
 251   0.0000       0.653978        17.7957 
 252   0.0000       0.662345        18.0233 
 253   0.0000       0.665936        18.1210 
 254   0.0000       0.670936        18.2571 
 255   0.0000       0.676501        18.4085 
 256   0.0000       0.678693        18.4682 
 257   0.0000       0.683259        18.5924 
[...]
 42:    551.98   0.008027   40.56  0.004538  (-0.009618  0.065734 -0.011153)
 43:    574.42   0.010697   54.06  0.005811  ( 0.051510  0.043096 -0.036066)
 44:    588.46   0.009485   47.93  0.005030  ( 0.006760  0.070563  0.002213)
 45:    615.70   0.007519   38.00  0.003811  ( 0.060775 -0.010079  0.003947)
 46:    634.77   0.012309   62.21  0.006051  ( 0.012117  0.069008 -0.033800)
 47:    641.78   0.004651   23.51  0.002262  (-0.019466 -0.036325  0.023734)
 48:    661.64   0.002666   13.47  0.001257  ( 0.020858  0.028660 -0.000917)
 49:    683.82   0.006964   35.19  0.003178  (-0.046400  0.007429 -0.031142)
 50:    702.65   0.029580  149.48  0.013137  (-0.013920  0.079905 -0.080985)
 51:    727.07   0.020852  105.38  0.008950  (-0.018416 -0.087215  0.031692)
 52:    755.13   0.006695   33.84  0.002767  (-0.028141 -0.000909  0.044431)
 53:    763.32   0.005924   29.94  0.002422  ( 0.004406 -0.047479  0.012178)
 54:    772.99   0.019523   98.66  0.007882  ( 0.023871 -0.085335  0.005442)
 55:    794.80   0.002480   12.53  0.000974  (-0.004952 -0.001401 -0.030776)
 56:    797.51   0.001264    6.39  0.000494  (-0.020722 -0.007700 -0.002405)
 57:    807.90   0.002686   13.57  0.001037  ( 0.001505  0.027479  0.016734)
 58:    833.56   0.003515   17.76  0.001316  ( 0.008691  0.032607  0.013309)
 59:    842.61   0.003624   18.31  0.001342  (-0.009587 -0.034990  0.005087)
 60:    849.59   0.005889   29.76  0.002163  (-0.012411 -0.004778  0.044566)
 61:    872.90   0.005574   28.17  0.001993  (-0.019690 -0.033067  0.022619)
 62:    877.48   0.003713   18.76  0.001320  (-0.026098 -0.009736  0.023334)
 63:    913.53   0.005588   28.24  0.001909  (-0.005181  0.041225 -0.013512)
 64:    926.03   0.006348   32.08  0.002139  ( 0.000345 -0.044064  0.014057)
 65:    955.91   0.001295    6.54  0.000423  ( 0.010798 -0.015652  0.007822)
 66:    966.86   0.008323   42.06  0.002686  ( 0.007247 -0.039901  0.032276)
 67:    974.45   0.027902  141.00  0.008935  (-0.000767  0.079589 -0.050994)
 68:    987.43   0.000732    3.70  0.000231  ( 0.012440  0.007730  0.004101)
 69:    991.04   0.000895    4.52  0.000282  ( 0.013787  0.006799  0.006744)
 70:   1017.38   0.000546    2.76  0.000168  (-0.004481 -0.011982 -0.001995)
 71:   1025.98   0.009190   46.44  0.002795  (-0.009061  0.050102  0.014247)
 72:   1051.33   0.007185   36.31  0.002133  ( 0.034541 -0.019543  0.023618)
 73:   1055.76   0.000148    0.75  0.000044  ( 0.002473  0.005582 -0.002555)
 74:   1069.91   0.012104   61.17  0.003530  (-0.036744 -0.010655 -0.045462)
 75:   1081.07   0.001867    9.44  0.000539  ( 0.012712  0.016469 -0.010305)
 76:   1084.53   0.010862   54.89  0.003126  ( 0.012625  0.008913 -0.053728)
 77:   1113.86   0.014707   74.32  0.004120  ( 0.004173 -0.064045 -0.001094)
 78:   1142.18   0.001839    9.30  0.000503  ( 0.017544 -0.013567 -0.003270)
 79:   1150.24   0.034787  175.80  0.009438  ( 0.050850  0.023049  0.079505)
 80:   1168.72   0.003050   15.41  0.000814  ( 0.024914  0.009263  0.010388)
 81:   1170.32   0.000391    1.98  0.000104  ( 0.009122 -0.003532  0.002935)
 82:   1171.54   0.005476   27.67  0.001459  ( 0.005535 -0.037306 -0.006023)
 83:   1173.11   0.000827    4.18  0.000220  (-0.008384 -0.010954 -0.005457)
 84:   1173.65   0.000397    2.01  0.000106  ( 0.004770 -0.002470  0.008762)
 85:   1176.57   0.018956   95.80  0.005028  ( 0.054160  0.035407  0.028997)
 86:   1199.23   0.021143  106.85  0.005502  ( 0.047956 -0.053237  0.019182)
 87:   1205.06   0.002499   12.63  0.000647  (-0.008016  0.002424 -0.024018)
 88:   1205.87   0.002462   12.44  0.000637  (-0.021817  0.010321 -0.007395)
 89:   1214.56   0.002197   11.10  0.000564  (-0.015710 -0.004088 -0.017346)
 90:   1227.30   0.009104   46.01  0.002315  ( 0.010143  0.045904 -0.010240)
 91:   1242.32   0.035555  179.68  0.008931  ( 0.090125 -0.027633  0.006706)
 92:   1247.92   0.084975  429.43  0.021249  (-0.021427 -0.143809  0.010455)
 93:   1257.39   0.094579  477.96  0.023473  (-0.138330  0.063377 -0.017921)
 94:   1278.03   0.020347  102.83  0.004968  ( 0.047648 -0.014143  0.049979)
 95:   1307.68   0.054219  274.00  0.012939  (-0.039716 -0.013359  0.105749)
 96:   1324.27   0.015928   80.50  0.003754  (-0.046931 -0.036505  0.014777)
 97:   1336.71   0.038400  194.06  0.008965  ( 0.080440  0.049864  0.002764)
 98:   1351.29   0.101843  514.67  0.023519  ( 0.017994 -0.132186  0.075647)
 99:   1371.42   0.007281   36.80  0.001657  (-0.030423 -0.017148  0.020911)
100:   1375.24   0.067702  342.14  0.015363  (-0.049635  0.104087 -0.045443)
101:   1387.96   0.007958   40.22  0.001789  (-0.011382 -0.016499  0.037248)
102:   1395.32   0.014073   71.12  0.003147  (-0.040556 -0.014586 -0.035915)
103:   1432.56   0.013262   67.02  0.002889  ( 0.024057 -0.023172  0.042109)
104:   1463.72   0.009772   49.38  0.002083  (-0.030258 -0.013566 -0.031365)
105:   1464.65   0.000749    3.78  0.000160  (-0.000479 -0.012580  0.001004)
106:   1465.40   0.001889    9.55  0.000402  (-0.015761  0.012401  0.000454)
107:   1466.94   0.011011   55.64  0.002342  (-0.018734 -0.043776  0.008662)
108:   1469.43   0.013888   70.18  0.002949  (-0.048824  0.010997 -0.021087)
109:   1470.86   0.004534   22.91  0.000962  (-0.020686  0.021770  0.007753)
110:   1475.20   0.006087   30.76  0.001288  (-0.012213 -0.014352  0.030537)
111:   1477.07   0.001566    7.92  0.000331  (-0.003131  0.001949  0.017815)
112:   1490.72   0.001948    9.85  0.000408  ( 0.016232  0.000130 -0.012016)
113:   1491.91   0.010250   51.80  0.002144  (-0.033828 -0.024379 -0.020133)
114:   1498.98   0.006222   31.44  0.001295  (-0.008435 -0.030452  0.017228)
115:   1506.37   0.098618  498.38  0.020430  (-0.006996  0.095052  0.106518)
116:   1511.21   0.015706   79.37  0.003243  (-0.016642  0.032931  0.043381)
117:   1542.18   0.035742  180.63  0.007233  (-0.032004 -0.003029  0.078735)
118:   1601.60   0.026917  136.03  0.005245  (-0.009892 -0.064325 -0.031768)
119:   1652.20   0.008362   42.26  0.001579  (-0.001552 -0.002310 -0.039645)
120:   1665.07   0.009928   50.17  0.001861  (-0.024302 -0.008246  0.034673)
121:   1683.36   0.036040  182.13  0.006681  (-0.081225 -0.009136 -0.000193)
122:   1780.46   0.075387  380.98  0.013213  ( 0.042114  0.011305 -0.106357)
123:   1795.65   0.113474  573.45  0.019720  (-0.075971 -0.021009  0.116222)
124:   3044.86   0.011301   57.11  0.001158  ( 0.015535  0.005274  0.029818)
125:   3072.89   0.007143   36.10  0.000725  ( 0.007166  0.022046  0.013712)
126:   3078.03   0.006427   32.48  0.000652  (-0.016613  0.012579 -0.014745)
127:   3114.69   0.000681    3.44  0.000068  ( 0.007372 -0.000161  0.003722)
128:   3117.33   0.007697   38.90  0.000770  ( 0.008524 -0.026407  0.000711)
129:   3136.24   0.001316    6.65  0.000131  ( 0.009400 -0.002987  0.005805)
130:   3156.06   0.003949   19.96  0.000390  ( 0.016815 -0.008412  0.006080)
131:   3163.49   0.003325   16.80  0.000328  (-0.007861 -0.015340 -0.005556)
132:   3172.99   0.002983   15.08  0.000293  (-0.012620 -0.003915  0.010900)
133:   3185.99   0.000803    4.06  0.000079  (-0.006325 -0.002305 -0.005772)
134:   3189.94   0.002368   11.97  0.000232  ( 0.007715  0.008215 -0.010229)
135:   3193.93   0.001891    9.56  0.000185  ( 0.009620 -0.002579 -0.009250)
136:   3196.62   0.001512    7.64  0.000148  ( 0.010830  0.003544  0.004215)
137:   3207.15   0.001155    5.84  0.000112  ( 0.010102 -0.002978 -0.001212)
138:   3212.27   0.002592   13.10  0.000252  ( 0.001807 -0.004647  0.015063)
139:   3214.15   0.003099   15.66  0.000301  (-0.009729 -0.002334  0.014169)
140:   3230.24   0.000425    2.15  0.000041  (-0.005838  0.000064  0.002648)
141:   3230.36   0.000370    1.87  0.000036  (-0.003664 -0.001194 -0.004571)
142:   3237.45   0.000094    0.47  0.000009  (-0.002453 -0.000821 -0.001539)
143:   3249.00   0.000010    0.05  0.000001  ( 0.000528 -0.000076 -0.000805)

* The epsilon (eps) is given for a Dirac delta lineshape.
** The dipole moment derivative (T) already includes vibrational overlap.

The first frequency considered to be a vibration is 7
The total number of vibrations considered is 137


--------------------------
THERMOCHEMISTRY AT 298.15K
--------------------------

Temperature         ... 298.15 K
Pressure            ... 1.00 atm
Total Mass          ... 388.38 AMU

Throughout the following assumptions are being made:
  (1) The electronic state is orbitally nondegenerate
  (2) There are no thermally accessible electronically excited states
  (3) Hindered rotations indicated by low frequency modes are not
      treated as such but are treated as vibrations and this may
      cause some error
  (4) All equations used are the standard statistical mechanics
      equations for an ideal gas
  (5) All vibrations are strictly harmonic

freq.      16.67  E(vib)   ...       0.57 
freq.      46.54  E(vib)   ...       0.53 
freq.      71.34  E(vib)   ...       0.50 
freq.      77.51  E(vib)   ...       0.49 
freq.      82.18  E(vib)   ...       0.48 
freq.      92.74  E(vib)   ...       0.47 
freq.      96.94  E(vib)   ...       0.46 
freq.      99.49  E(vib)   ...       0.46 
freq.     106.12  E(vib)   ...       0.45 
freq.     112.33  E(vib)   ...       0.45 
freq.     115.56  E(vib)   ...       0.44 
freq.     121.95  E(vib)   ...       0.44 
freq.     132.97  E(vib)   ...       0.42 
freq.     145.69  E(vib)   ...       0.41 
freq.     147.36  E(vib)   ...       0.41 
freq.     168.48  E(vib)   ...       0.38 
freq.     189.43  E(vib)   ...       0.36 
freq.     201.00  E(vib)   ...       0.35 
freq.     212.56  E(vib)   ...       0.34 
freq.     231.93  E(vib)   ...       0.32 
freq.     244.50  E(vib)   ...       0.31 
freq.     248.43  E(vib)   ...       0.31 
freq.     265.92  E(vib)   ...       0.29 
freq.     286.10  E(vib)   ...       0.27 
freq.     287.88  E(vib)   ...       0.27 
freq.     312.19  E(vib)   ...       0.25 
freq.     320.22  E(vib)   ...       0.25 
freq.     330.68  E(vib)   ...       0.24 
freq.     364.26  E(vib)   ...       0.22 
freq.     393.23  E(vib)   ...       0.20 
freq.     441.20  E(vib)   ...       0.17 
freq.     475.60  E(vib)   ...       0.15 
freq.     478.88  E(vib)   ...       0.15 
freq.     484.30  E(vib)   ...       0.15 
freq.     533.66  E(vib)   ...       0.13 
freq.     551.98  E(vib)   ...       0.12 
freq.     574.42  E(vib)   ...       0.11 
freq.     588.46  E(vib)   ...       0.10 
freq.     615.70  E(vib)   ...       0.10 
freq.     634.77  E(vib)   ...       0.09 
freq.     641.78  E(vib)   ...       0.09 
freq.     661.64  E(vib)   ...       0.08 
freq.     683.82  E(vib)   ...       0.07 
freq.     702.65  E(vib)   ...       0.07 
freq.     727.07  E(vib)   ...       0.06 
freq.     755.13  E(vib)   ...       0.06 
freq.     763.32  E(vib)   ...       0.06 
freq.     772.99  E(vib)   ...       0.05 
freq.     794.80  E(vib)   ...       0.05 
freq.     797.51  E(vib)   ...       0.05 
freq.     807.90  E(vib)   ...       0.05 
freq.     833.56  E(vib)   ...       0.04 
freq.     842.61  E(vib)   ...       0.04 
freq.     849.59  E(vib)   ...       0.04 
freq.     872.90  E(vib)   ...       0.04 
freq.     877.48  E(vib)   ...       0.04 
freq.     913.53  E(vib)   ...       0.03 
freq.     926.03  E(vib)   ...       0.03 
freq.     955.91  E(vib)   ...       0.03 
freq.     966.86  E(vib)   ...       0.03 
freq.     974.45  E(vib)   ...       0.03 
freq.     987.43  E(vib)   ...       0.02 
freq.     991.04  E(vib)   ...       0.02 
freq.    1017.38  E(vib)   ...       0.02 
freq.    1025.98  E(vib)   ...       0.02 
freq.    1051.33  E(vib)   ...       0.02 
freq.    1055.76  E(vib)   ...       0.02 
freq.    1069.91  E(vib)   ...       0.02 
freq.    1081.07  E(vib)   ...       0.02 
freq.    1084.53  E(vib)   ...       0.02 
freq.    1113.86  E(vib)   ...       0.01 
freq.    1142.18  E(vib)   ...       0.01 
freq.    1150.24  E(vib)   ...       0.01 
freq.    1168.72  E(vib)   ...       0.01 
freq.    1170.32  E(vib)   ...       0.01 
freq.    1171.54  E(vib)   ...       0.01 
freq.    1173.11  E(vib)   ...       0.01 
freq.    1173.65  E(vib)   ...       0.01 
freq.    1176.57  E(vib)   ...       0.01 
freq.    1199.23  E(vib)   ...       0.01 
freq.    1205.06  E(vib)   ...       0.01 
freq.    1205.87  E(vib)   ...       0.01 
freq.    1214.56  E(vib)   ...       0.01 
freq.    1227.30  E(vib)   ...       0.01 
freq.    1242.32  E(vib)   ...       0.01 
freq.    1247.92  E(vib)   ...       0.01 
freq.    1257.39  E(vib)   ...       0.01 
freq.    1278.03  E(vib)   ...       0.01 
freq.    1307.68  E(vib)   ...       0.01 
freq.    1324.27  E(vib)   ...       0.01 
freq.    1336.71  E(vib)   ...       0.01 
freq.    1351.29  E(vib)   ...       0.01 
freq.    1371.42  E(vib)   ...       0.01 
freq.    1375.24  E(vib)   ...       0.01 
freq.    1387.96  E(vib)   ...       0.00 
freq.    1395.32  E(vib)   ...       0.00 
freq.    1432.56  E(vib)   ...       0.00 
freq.    1463.72  E(vib)   ...       0.00 
freq.    1464.65  E(vib)   ...       0.00 
freq.    1465.40  E(vib)   ...       0.00 
freq.    1466.94  E(vib)   ...       0.00 
freq.    1469.43  E(vib)   ...       0.00 
freq.    1470.86  E(vib)   ...       0.00 
freq.    1475.20  E(vib)   ...       0.00 
freq.    1477.07  E(vib)   ...       0.00 
freq.    1490.72  E(vib)   ...       0.00 
freq.    1491.91  E(vib)   ...       0.00 
freq.    1498.98  E(vib)   ...       0.00 
freq.    1506.37  E(vib)   ...       0.00 
freq.    1511.21  E(vib)   ...       0.00 
freq.    1542.18  E(vib)   ...       0.00 
freq.    1601.60  E(vib)   ...       0.00 
freq.    1652.20  E(vib)   ...       0.00 
freq.    1665.07  E(vib)   ...       0.00 
freq.    1683.36  E(vib)   ...       0.00 
freq.    1780.46  E(vib)   ...       0.00 
freq.    1795.65  E(vib)   ...       0.00 
freq.    3044.86  E(vib)   ...       0.00 
freq.    3072.89  E(vib)   ...       0.00 
freq.    3078.03  E(vib)   ...       0.00 
freq.    3114.69  E(vib)   ...       0.00 
freq.    3117.33  E(vib)   ...       0.00 
freq.    3136.24  E(vib)   ...       0.00 
freq.    3156.06  E(vib)   ...       0.00 
freq.    3163.49  E(vib)   ...       0.00 
freq.    3172.99  E(vib)   ...       0.00 
freq.    3185.99  E(vib)   ...       0.00 
freq.    3189.94  E(vib)   ...       0.00 
freq.    3193.93  E(vib)   ...       0.00 
freq.    3196.62  E(vib)   ...       0.00 
freq.    3207.15  E(vib)   ...       0.00 
freq.    3212.27  E(vib)   ...       0.00 
freq.    3214.15  E(vib)   ...       0.00 
freq.    3230.24  E(vib)   ...       0.00 
freq.    3230.36  E(vib)   ...       0.00 
freq.    3237.45  E(vib)   ...       0.00 
freq.    3249.00  E(vib)   ...       0.00 

------------
INNER ENERGY
------------

The inner energy is: U= E(el) + E(ZPE) + E(vib) + E(rot) + E(trans)
    E(el)   - is the total energy from the electronic structure calculation
              = E(kin-el) + E(nuc-el) + E(el-el) + E(nuc-nuc)
    E(ZPE)  - the the zero temperature vibrational energy from the frequency calculation
    E(vib)  - the the finite temperature correction to E(ZPE) due to population
              of excited vibrational states
    E(rot)  - is the rotational thermal energy
    E(trans)- is the translational thermal energy

Summary of contributions to the inner energy U:
Electronic energy                ...  -1371.06598326 Eh
Zero point energy                ...      0.37718274 Eh     236.69 kcal/mol
Thermal vibrational correction   ...      0.02251385 Eh      14.13 kcal/mol
Thermal rotational correction    ...      0.00141627 Eh       0.89 kcal/mol
Thermal translational correction ...      0.00141627 Eh       0.89 kcal/mol
-----------------------------------------------------------------------
Total thermal energy                  -1370.66345412 Eh


Summary of corrections to the electronic energy:
(perhaps to be used in another calculation)
Total thermal correction                  0.02534639 Eh      15.91 kcal/mol
Non-thermal (ZPE) correction              0.37718274 Eh     236.69 kcal/mol
-----------------------------------------------------------------------
Total correction                          0.40252914 Eh     252.59 kcal/mol


--------
ENTHALPY
--------

The enthalpy is H = U + kB*T
                kB is Boltzmann's constant
Total free energy                 ...  -1370.66345412 Eh 
Thermal Enthalpy correction       ...      0.00094421 Eh       0.59 kcal/mol
-----------------------------------------------------------------------
Total Enthalpy                    ...  -1370.66250991 Eh


Note: Only C1 symmetry has been detected, increase convergence thresholds 
      if your molecule has a higher symmetry. Symmetry factor of 1.0 is   
      used for the rotational entropy correction. 
 

Note: Rotational entropy computed according to Herzberg 
Infrared and Raman Spectra, Chapter V,1, Van Nostrand Reinhold, 1945 
Point Group:  C1, Symmetry Number:   1  
Rotational constants in cm-1:     0.009035     0.006235     0.005091 

Vibrational entropy computed according to the QRRHO of S. Grimme
Chem.Eur.J. 2012 18 9955


-------
ENTROPY
-------

The entropy contributions are T*S = T*(S(el)+S(vib)+S(rot)+S(trans))
     S(el)   - electronic entropy
     S(vib)  - vibrational entropy
     S(rot)  - rotational entropy
     S(trans)- translational entropy
The entropies will be listed as multiplied by the temperature to get
units of energy

Electronic entropy                ...      0.00000000 Eh      0.00 kcal/mol
Vibrational entropy               ...      0.04045960 Eh     25.39 kcal/mol
Rotational entropy                ...      0.01662257 Eh     10.43 kcal/mol
Translational entropy             ...      0.02079284 Eh     13.05 kcal/mol
-----------------------------------------------------------------------
Final entropy term                ...      0.07787502 Eh     48.87 kcal/mol

In case the symmetry of your molecule has not been determined correctly
or in case you have a reason to use a different symmetry number we print 
out the resulting rotational entropy values for sn=1,12 :
 --------------------------------------------------------
|  sn= 1 | S(rot)=       0.01662257 Eh     10.43 kcal/mol|
|  sn= 2 | S(rot)=       0.01596811 Eh     10.02 kcal/mol|
|  sn= 3 | S(rot)=       0.01558528 Eh      9.78 kcal/mol|
|  sn= 4 | S(rot)=       0.01531366 Eh      9.61 kcal/mol|
|  sn= 5 | S(rot)=       0.01510297 Eh      9.48 kcal/mol|
|  sn= 6 | S(rot)=       0.01493082 Eh      9.37 kcal/mol|
|  sn= 7 | S(rot)=       0.01478528 Eh      9.28 kcal/mol|
|  sn= 8 | S(rot)=       0.01465920 Eh      9.20 kcal/mol|
|  sn= 9 | S(rot)=       0.01454799 Eh      9.13 kcal/mol|
|  sn=10 | S(rot)=       0.01444851 Eh      9.07 kcal/mol|
|  sn=11 | S(rot)=       0.01435852 Eh      9.01 kcal/mol|
|  sn=12 | S(rot)=       0.01427637 Eh      8.96 kcal/mol|
 --------------------------------------------------------


-------------------
GIBBS FREE ENERGY
-------------------

The Gibbs free energy is G = H - T*S

Total enthalpy                    ...  -1370.66250991 Eh 
Total entropy correction          ...     -0.07787502 Eh    -48.87 kcal/mol
-----------------------------------------------------------------------
Final Gibbs free energy         ...  -1370.74038493 Eh

For completeness - the Gibbs free energy minus the electronic energy
G-E(el)                           ...      0.32559833 Eh    204.32 kcal/mol


Timings for individual modules:

Sum of individual times         ...    14662.049 sec (= 244.367 min)
GTO integral calculation        ...      163.626 sec (=   2.727 min)   1.1 %
SCF iterations                  ...     8616.545 sec (= 143.609 min)  58.8 %
SCF Gradient evaluation         ...     2231.703 sec (=  37.195 min)  15.2 %
Geometry relaxation             ...        8.910 sec (=   0.149 min)   0.1 %
Analytical frequency calculation...     3641.264 sec (=  60.688 min)  24.8 %
                             ****ORCA TERMINATED NORMALLY****
TOTAL RUN TIME: 0 days 4 hours 7 minutes 45 seconds 900 msec
