
                                 *****************
                                 * O   R   C   A *
                                 *****************

                                            #,                                       
                                            ###                                      
                                            ####                                     
                                            #####                                    
                                            ######                                   
                                           ########,                                 
                                     ,,################,,,,,                         
                               ,,#################################,,                 
                          ,,##########################################,,             
                       ,#########################################, ''#####,          
                    ,#############################################,,   '####,        
                  ,##################################################,,,,####,       
                ,###########''''           ''''###############################       
              ,#####''   ,,,,##########,,,,          '''####'''          '####       
            ,##' ,,,,###########################,,,                        '##       
           ' ,,###''''                  '''############,,,                           
         ,,##''                                '''############,,,,        ,,,,,,###''
      ,#''                                            '''#######################'''  
     '                                                          ''''####''''         
             ,#######,   #######,   ,#######,      ##                                
            ,#'     '#,  ##    ##  ,#'     '#,    #''#        ######   ,####,        
            ##       ##  ##   ,#'  ##            #'  '#       #        #'  '#        
            ##       ##  #######   ##           ,######,      #####,   #    #        
            '#,     ,#'  ##    ##  '#,     ,#' ,#      #,         ##   #,  ,#        
             '#######'   ##     ##  '#######'  #'      '#     #####' # '####'        



                  #######################################################
                  #                        -***-                        #
                  #          Department of theory and spectroscopy      #
                  #    Directorship and core code : Frank Neese         #
                  #        Max Planck Institute fuer Kohlenforschung    #
                  #                Kaiser Wilhelm Platz 1               #
                  #                 D-45470 Muelheim/Ruhr               #
                  #                      Germany                        #
                  #                                                     #
                  #                  All rights reserved                #
                  #                        -***-                        #
                  #######################################################


                         Program Version 5.0.4 -  RELEASE  -


 With contributions from (in alphabetic order):
   Daniel Aravena         : Magnetic Suceptibility
   Michael Atanasov       : Ab Initio Ligand Field Theory (pilot matlab implementation)
   Alexander A. Auer      : GIAO ZORA, VPT2 properties, NMR spectrum
   Ute Becker             : Parallelization
   Giovanni Bistoni       : ED, misc. LED, open-shell LED, HFLD
   Martin Brehm           : Molecular dynamics
   Dmytro Bykov           : SCF Hessian
   Vijay G. Chilkuri      : MRCI spin determinant printing, contributions to CSF-ICE
   Dipayan Datta          : RHF DLPNO-CCSD density
   Achintya Kumar Dutta   : EOM-CC, STEOM-CC
   Dmitry Ganyushin       : Spin-Orbit,Spin-Spin,Magnetic field MRCI
   Miquel Garcia          : C-PCM and meta-GGA Hessian, CC/C-PCM, Gaussian charge scheme
   Yang Guo               : DLPNO-NEVPT2, F12-NEVPT2, CIM, IAO-localization
   Andreas Hansen         : Spin unrestricted coupled pair/coupled cluster methods
   Benjamin Helmich-Paris : MC-RPA, TRAH-SCF, COSX integrals
   Lee Huntington         : MR-EOM, pCC
   Robert Izsak           : Overlap fitted RIJCOSX, COSX-SCS-MP3, EOM
   Marcus Kettner         : VPT2
   Christian Kollmar      : KDIIS, OOCD, Brueckner-CCSD(T), CCSD density, CASPT2, CASPT2-K
   Simone Kossmann        : Meta GGA functionals, TD-DFT gradient, OOMP2, MP2 Hessian
   Martin Krupicka        : Initial AUTO-CI
   Lucas Lang             : DCDCAS
   Marvin Lechner         : AUTO-CI (C++ implementation), FIC-MRCC
   Dagmar Lenk            : GEPOL surface, SMD
   Dimitrios Liakos       : Extrapolation schemes; Compound Job, initial MDCI parallelization
   Dimitrios Manganas     : Further ROCIS development; embedding schemes
   Dimitrios Pantazis     : SARC Basis sets
   Anastasios Papadopoulos: AUTO-CI, single reference methods and gradients
   Taras Petrenko         : DFT Hessian,TD-DFT gradient, ASA, ECA, R-Raman, ABS, FL, XAS/XES, NRVS
   Peter Pinski           : DLPNO-MP2, DLPNO-MP2 Gradient
   Christoph Reimann      : Effective Core Potentials
   Marius Retegan         : Local ZFS, SOC
   Christoph Riplinger    : Optimizer, TS searches, QM/MM, DLPNO-CCSD(T), (RO)-DLPNO pert. Triples
   Tobias Risthaus        : Range-separated hybrids, TD-DFT gradient, RPA, STAB
   Michael Roemelt        : Original ROCIS implementation
   Masaaki Saitow         : Open-shell DLPNO-CCSD energy and density
   Barbara Sandhoefer     : DKH picture change effects
   Avijit Sen             : IP-ROCIS
   Kantharuban Sivalingam : CASSCF convergence, NEVPT2, FIC-MRCI
   Bernardo de Souza      : ESD, SOC TD-DFT
   Georgi Stoychev        : AutoAux, RI-MP2 NMR, DLPNO-MP2 response
   Willem Van den Heuvel  : Paramagnetic NMR
   Boris Wezisla          : Elementary symmetry handling
   Frank Wennmohs         : Technical directorship


 We gratefully acknowledge several colleagues who have allowed us to
 interface, adapt or use parts of their codes:
   Stefan Grimme, W. Hujo, H. Kruse, P. Pracht,  : VdW corrections, initial TS optimization,
                  C. Bannwarth, S. Ehlert          DFT functionals, gCP, sTDA/sTD-DF
   Ed Valeev, F. Pavosevic, A. Kumar             : LibInt (2-el integral package), F12 methods
   Garnet Chan, S. Sharma, J. Yang, R. Olivares  : DMRG
   Ulf Ekstrom                                   : XCFun DFT Library
   Mihaly Kallay                                 : mrcc  (arbitrary order and MRCC methods)
   Jiri Pittner, Ondrej Demel                    : Mk-CCSD
   Frank Weinhold                                : gennbo (NPA and NBO analysis)
   Christopher J. Cramer and Donald G. Truhlar   : smd solvation model
   Lars Goerigk                                  : TD-DFT with DH, B97 family of functionals
   V. Asgeirsson, H. Jonsson                     : NEB implementation
   FAccTs GmbH                                   : IRC, NEB, NEB-TS, DLPNO-Multilevel, CI-OPT
                                                   MM, QMMM, 2- and 3-layer-ONIOM, Crystal-QMMM,
                                                   LR-CPCM, SF, NACMEs, symmetry and pop. for TD-DFT,
                                                   nearIR, NL-DFT gradient (VV10), updates on ESD,
                                                   ML-optimized integration grids
   S Lehtola, MJT Oliveira, MAL Marques          : LibXC Library
   Liviu Ungur et al                             : ANISO software


 Your calculation uses the libint2 library for the computation of 2-el integrals
 For citations please refer to: http://libint.valeyev.net

 Your ORCA version has been built with support for libXC version: 5.1.0
 For citations please refer to: https://tddft.org/programs/libxc/

 This ORCA versions uses:
   CBLAS   interface :  Fast vector & matrix operations
   LAPACKE interface :  Fast linear algebra routines
   SCALAPACK package :  Parallel linear algebra routines
   Shared memory     :  Shared parallel matrices
   BLAS/LAPACK       :  OpenBLAS 0.3.15  USE64BITINT DYNAMIC_ARCH NO_AFFINITY Haswell SINGLE_THREADED
        Core in use  :  Haswell
   Copyright (c) 2011-2014, The OpenBLAS Project


Your calculation utilizes the atom-pairwise dispersion correction
with the Becke-Johnson damping scheme (D3BJ)
Cite in your paper:
S.Grimme, S.Ehrlich, L.Goerigk, J Comput Chem, (2011), 32, 1456–1465 
S.Grimme, J.Antony, S.Ehrlich and H.Krieg, J.Chem.Phys., 132, (2010), 154104 
   

================================================================================

----- Orbital basis set information -----
Your calculation utilizes the basis: def2-TZVP
   F. Weigend and R. Ahlrichs, Phys. Chem. Chem. Phys. 7, 3297 (2005).

----- AuxJ basis set information -----
Your calculation utilizes the auxiliary basis: def2/J
   F. Weigend, Phys. Chem. Chem. Phys. 8, 1057 (2006).

================================================================================
                                        WARNINGS
                       Please study these warnings very carefully!
================================================================================


WARNING: Geometry Optimization
  ===> : Switching off AutoStart
         For restart on a previous wavefunction, please use MOREAD

INFO   : the flag for use of the SHARK integral package has been found!

================================================================================
                                       INPUT FILE
================================================================================
NAME = TS1_F/TS1_F.inp
|  1> %pal nprocs 24 end
|  2> %maxcore 3500
|  3> !PBE0 D3BJ def2-TZVP TightOpt TightSCF OPTTS FREQ
|  4> !CPCM(dmso)
|  5> %scf
|  6> MaxIter 800
|  7> end
|  8> %geom
|  9> MaxIter 800
| 10> MaxStep 0.2
| 11> inHess Read
| 12> InHessName "TS1_F-preopt.hess"
| 13> end
| 14> *xyz 0 1
| 15>   C     -4.346797    0.081614    0.896799
| 16>   C     -3.564562   -0.038306    2.046853
| 17>   C     -2.238324    0.285983    1.980843
| 18>   N     -1.698812    0.754992    0.836424
| 19>   C     -2.437558    0.895218   -0.290662
| 20>   C     -3.785449    0.569002   -0.263911
| 21>   C     -0.259470    0.779974    0.687628
| 22>   C      0.270307    2.100411    0.165216
| 23>   O     -0.308984    2.848018   -0.581091
| 24>   O      1.486927    2.300408    0.636940
| 25>   C      2.179353    3.451887    0.138120
| 26>   H     -5.396222   -0.185916    0.924227
| 27>   H     -1.560388    0.176035    2.816595
| 28>   H     -1.993772    1.443883   -1.104507
| 29>   H     -4.373366    0.711639   -1.160260
| 30>   H      0.192845    0.596472    1.659075
| 31>   H      3.160195    3.425267    0.604196
| 32>   H      1.645494    4.359804    0.417467
| 33>   C     -0.803337   -0.526441   -1.409739
| 34>   C      0.095117   -0.450997   -0.247254
| 35>   C      1.584278   -0.529228   -0.479334
| 36>   C      2.209756   -0.150418   -1.658047
| 37>   C      3.591142   -0.215077   -1.794683
| 38>   C      4.361831   -0.661885   -0.736014
| 39>   C      3.762747   -1.049224    0.455595
| 40>   C      2.380815   -0.981989    0.586386
| 41>   O      1.719213   -1.325214    1.713894
| 42>   C      2.471794   -1.782519    2.822167
| 43>   N     -1.679388   -1.514758   -1.606532
| 44>   O     -1.920699   -2.330786   -0.669725
| 45>   H     -0.192699   -1.309996    0.360274
| 46>   H      1.614453    0.206049   -2.486986
| 47>   H      4.055716    0.086267   -2.725790
| 48>   H      5.440833   -0.714245   -0.827291
| 49>   H      4.375009   -1.398337    1.276010
| 50>   H      3.028468   -2.690054    2.572795
| 51>   H      1.748916   -2.002402    3.604861
| 52>   H      3.165924   -1.012523    3.170143
| 53>   O     -2.305137   -1.586095   -2.696596
| 54>   H      2.267567    3.391562   -0.946526
| 55>   H     -3.975879   -0.397926    2.979676
| 56>   F     -0.584641    0.266407   -2.477234
| 57> 
| 58> **                         ****END OF INPUT****
================================================================================

                       *****************************
                       * Geometry Optimization Run *
                       *****************************

Geometry optimization settings:
Update method            Update   .... Bofill
Choice of coordinates    CoordSys .... Z-matrix Internals
Initial Hessian          InHess   .... Read

Convergence Tolerances:
Energy Change            TolE     ....  1.0000e-06 Eh
Max. Gradient            TolMAXG  ....  1.0000e-04 Eh/bohr
RMS Gradient             TolRMSG  ....  3.0000e-05 Eh/bohr
Max. Displacement        TolMAXD  ....  1.0000e-03 bohr
RMS Displacement         TolRMSD  ....  6.0000e-04 bohr
Strict Convergence                ....  False
------------------------------------------------------------------------------
                        ORCA OPTIMIZATION COORDINATE SETUP
------------------------------------------------------------------------------

The optimization will be done in new redundant internal coordinates
Making redundant internal coordinates   ...  (new redundants) done
Following TS mode number                ...     0
Evaluating the initial hessian          ... (Reading Exact Hessian)...  
InHessName: TS1_F-preopt.hess	The file <TS1_F-preopt.hess> is opened as a .hess file
done
done
Diagonalizing the Hessian               .... done
Dimension of the hessian                .... 209
Lowest eigenvalues of the non projected Hessian:
 -0.000692224 -0.000348147 -0.000235528 -0.000112011 -0.000090353
done
Evaluating the coordinates              ...  done
Calculating the B-matrix                .... done
Calculating the G-matrix                .... done
Diagonalizing the G-matrix              .... done
Small eigenvalue found = 3.641e-03
Small eigenvalue found = 5.180e-03
Small eigenvalue found = 7.858e-03
Small eigenvalue found = 1.166e-02
Small eigenvalue found = 1.361e-02
Small eigenvalue found = 2.174e-02
Small eigenvalue found = 2.310e-02
The first mode is                       ....   89
The number of degrees of freedom        ....  120

    -----------------------------------------------------------------
                    Redundant Internal Coordinates


    -----------------------------------------------------------------
         Definition                    Initial Value    d2E/dq (diagonal element)
    -----------------------------------------------------------------
      1. B(C   1,C   0)                  1.3960         0.387740   
      2. B(C   2,C   1)                  1.3669         0.445359   
      3. B(N   3,C   2)                  1.3493         0.421574   
      4. B(C   4,N   3)                  1.3549         0.414934   
      5. B(C   5,C   4)                  1.3871         0.402143   
      6. B(C   5,C   0)                  1.3784         0.428379   
      7. B(C   6,N   3)                  1.4472         0.345096   
      8. B(C   7,C   6)                  1.5156         0.280520   
      9. B(O   8,C   7)                  1.2048         0.840451   
     10. B(O   9,C   7)                  1.3201         0.457385   
     11. B(C  10,O   9)                  1.4332         0.321566   
     12. B(H  11,C   0)                  1.0833         0.365134   
     13. B(H  12,C   2)                  1.0817         0.368885   
     14. B(H  13,C   4)                  1.0772         0.377106   
     15. B(H  14,C   5)                  1.0814         0.369197   
     16. B(H  15,C   6)                  1.0872         0.353016   
     17. B(H  16,C  10)                  1.0863         0.356408   
     18. B(H  17,C  10)                  1.0897         0.347325   
     19. B(C  19,C  18)                  1.4712         0.335819   
     20. B(C  19,C   6)                  1.5859         0.237846   
     21. B(C  20,C  19)                  1.5092         0.305167   
     22. B(C  21,C  20)                  1.3871         0.408193   
     23. B(C  22,C  21)                  1.3896         0.404006   
     24. B(C  23,C  22)                  1.3836         0.416783   
     25. B(C  24,C  23)                  1.3888         0.406992   
     26. B(C  25,C  24)                  1.3897         0.399571   
     27. B(C  25,C  20)                  1.4054         0.391911   
     28. B(O  26,C  25)                  1.3516         0.423128   
     29. B(C  27,O  26)                  1.4155         0.344042   
     30. B(N  28,C  18)                  1.3353         0.509354   
     31. B(O  29,N  28)                  1.2656         0.493972   
     32. B(H  30,C  19)                  1.0908         0.345683   
     33. B(H  31,C  21)                  1.0810         0.370313   
     34. B(H  32,C  22)                  1.0833         0.362504   
     35. B(H  33,C  23)                  1.0841         0.360999   
     36. B(H  34,C  24)                  1.0816         0.367879   
     37. B(H  35,C  27)                  1.0935         0.337049   
     38. B(H  36,C  27)                  1.0879         0.351822   
     39. B(H  37,C  27)                  1.0935         0.336927   
     40. B(O  38,N  28)                  1.2589         0.517879   
     41. B(H  39,C  10)                  1.0899         0.347077   
     42. B(H  40,C   1)                  1.0810         0.370033   
     43. B(F  41,C  18)                  1.3476         0.393031   
     44. A(C   1,C   0,C   5)          119.7287         0.080759   
     45. A(C   1,C   0,H  11)          120.0476         0.080349   
     46. A(C   5,C   0,H  11)          120.2085         0.080439   
     47. A(C   2,C   1,H  40)          119.3242         0.079640   
     48. A(C   0,C   1,H  40)          121.7512         0.079127   
     49. A(C   0,C   1,C   2)          118.9140         0.082908   
     50. A(N   3,C   2,H  12)          116.1047         0.094091   
     51. A(C   1,C   2,H  12)          123.1367         0.084921   
     52. A(C   1,C   2,N   3)          120.7542         0.090267   
     53. A(C   4,N   3,C   6)          117.0622         0.168676   
     54. A(C   2,N   3,C   4)          121.5670         0.095277   
     55. A(C   2,N   3,C   6)          119.3967         0.149369   
     56. A(C   5,C   4,H  13)          122.3246         0.080037   
     57. A(N   3,C   4,C   5)          119.3052         0.086856   
     58. A(N   3,C   4,H  13)          117.1667         0.086152   
     59. A(C   0,C   5,C   4)          119.6800         0.084123   
     60. A(C   0,C   5,H  14)          121.5483         0.080025   
     61. A(C   4,C   5,H  14)          118.7704         0.080718   
     62. A(H  15,C   6,C  19)          107.6205         0.039766   
     63. A(C   7,C   6,C  19)          113.2594         0.084438   
     64. A(N   3,C   6,C  19)          105.6394         0.158433   
     65. A(C   7,C   6,H  15)          108.0360         0.033259   
     66. A(N   3,C   6,C   7)          113.4604         0.091184   
     67. A(N   3,C   6,H  15)          108.6020         0.034081   
     68. A(C   6,C   7,O   9)          109.3272         0.173134   
     69. A(C   6,C   7,O   8)          125.8786         0.167985   
     70. A(O   8,C   7,O   9)          124.7838         0.208114   
     71. A(C   7,O   9,C  10)          116.2696         0.278214   
     72. A(O   9,C  10,H  39)          109.9374         0.141644   
     73. A(H  16,C  10,H  17)          110.6590         0.067084   
     74. A(O   9,C  10,H  17)          110.0898         0.140638   
     75. A(O   9,C  10,H  16)          105.4985         0.143547   
     76. A(H  17,C  10,H  39)          109.9316         0.067742   
     77. A(H  16,C  10,H  39)          110.6436         0.067038   
     78. A(C  19,C  18,N  28)          123.7172         0.173372   
     79. A(N  28,C  18,F  41)          115.1631         0.186908   
     80. A(C  19,C  18,F  41)          119.7798         0.151065   
     81. A(C   6,C  19,C  20)          110.5801         0.119051   
     82. A(C   6,C  19,C  18)          111.6585         0.185812   
     83. A(C  20,C  19,H  30)          107.7697         0.028764   
     84. A(C  18,C  19,H  30)          103.8026         0.027615   
     85. A(C   6,C  19,H  30)          102.9404         0.032736   
     86. A(C  18,C  19,C  20)          118.5840         0.112773   
     87. A(C  21,C  20,C  25)          118.4752         0.091010   
     88. A(C  19,C  20,C  25)          117.3442         0.169676   
     89. A(C  19,C  20,C  21)          124.1571         0.169935   
     90. A(C  22,C  21,H  31)          119.1677         0.084191   
     91. A(C  20,C  21,H  31)          119.5606         0.083419   
     92. A(C  20,C  21,C  22)          121.2713         0.082991   
     93. A(C  23,C  22,H  32)          120.5703         0.080005   
     94. A(C  21,C  22,H  32)          119.8586         0.080063   
     95. A(C  21,C  22,C  23)          119.5709         0.081877   
     96. A(C  24,C  23,H  33)          119.2150         0.080288   
     97. A(C  22,C  23,H  33)          120.3684         0.080283   
     98. A(C  22,C  23,C  24)          120.4166         0.080853   
     99. A(C  25,C  24,H  34)          120.4728         0.079990   
    100. A(C  23,C  24,H  34)          119.7787         0.082555   
    101. A(C  23,C  24,C  25)          119.7482         0.081125   
    102. A(C  24,C  25,O  26)          123.5713         0.193120   
    103. A(C  20,C  25,O  26)          115.9096         0.186493   
    104. A(C  20,C  25,C  24)          120.5172         0.093065   
    105. A(C  25,O  26,C  27)          118.3542         0.333684   
    106. A(H  36,C  27,H  37)          109.5824         0.068611   
    107. A(H  35,C  27,H  37)          109.5011         0.069656   
    108. A(O  26,C  27,H  37)          111.0471         0.139097   
    109. A(H  35,C  27,H  36)          109.5483         0.068515   
    110. A(O  26,C  27,H  36)          105.9805         0.142026   
    111. A(O  26,C  27,H  35)          111.1144         0.138712   
    112. A(C  18,N  28,O  38)          119.7132         0.210431   
    113. A(C  18,N  28,O  29)          119.5538         0.217397   
    114. A(O  29,N  28,O  38)          120.6382         0.239379   
    115. D(C   2,C   1,C   0,H  11)    178.9952         0.008347   
    116. D(H  40,C   1,C   0,C   5)    178.7669         0.008585   
    117. D(C   2,C   1,C   0,C   5)     -2.4252         0.008932   
    118. D(H  40,C   1,C   0,H  11)      0.1873         0.009351   
    119. D(N   3,C   2,C   1,H  40)   -179.0823         0.009013   
    120. D(H  12,C   2,C   1,C   0)   -177.1239         0.008849   
    121. D(H  12,C   2,C   1,H  40)      1.7134         0.009387   
    122. D(N   3,C   2,C   1,C   0)      2.0804         0.009517   
    123. D(C   4,N   3,C   2,H  12)    177.8569         0.007440   
    124. D(C   6,N   3,C   2,H  12)     14.3126         0.009620   
    125. D(C   4,N   3,C   2,C   1)     -1.4012         0.008395   
    126. D(C   6,N   3,C   2,C   1)   -164.9454         0.010965   
    127. D(C   5,C   4,N   3,C   6)    164.9241         0.010552   
    128. D(C   5,C   4,N   3,C   2)      1.0140         0.008084   
    129. D(H  13,C   4,N   3,C   2)    168.7761         0.011762   
    130. D(H  13,C   4,N   3,C   6)    -27.3138         0.011122   
    131. D(H  14,C   5,C   4,H  13)     11.1233         0.010056   
    132. D(C   0,C   5,C   4,H  13)   -168.4674         0.009500   
    133. D(H  14,C   5,C   0,H  11)      1.0792         0.009739   
    134. D(C   0,C   5,C   4,N   3)     -1.3628         0.009242   
    135. D(H  14,C   5,C   0,C   1)   -177.4980         0.009298   
    136. D(H  14,C   5,C   4,N   3)    178.2280         0.008340   
    137. D(C   4,C   5,C   0,H  11)   -179.3417         0.008737   
    138. D(C   4,C   5,C   0,C   1)      2.0810         0.008928   
    139. D(C  19,C   6,N   3,C   4)    -61.3779         0.033808   
    140. D(C  19,C   6,N   3,C   2)    102.8963         0.025473   
    141. D(H  15,C   6,N   3,C   4)   -176.5855         0.019283   
    142. D(C   7,C   6,N   3,C   2)   -132.4563         0.015010   
    143. D(H  15,C   6,N   3,C   2)    -12.3113         0.012930   
    144. D(C   7,C   6,N   3,C   4)     63.2695         0.019859   
    145. D(O   8,C   7,C   6,N   3)    -30.9975         0.030149   
    146. D(O   9,C   7,C   6,C  19)    -89.4376         0.034529   
    147. D(O   9,C   7,C   6,H  15)     29.6715         0.014998   
    148. D(O   9,C   7,C   6,N   3)    150.1372         0.031854   
    149. D(O   8,C   7,C   6,C  19)     89.4278         0.031781   
    150. D(O   8,C   7,C   6,H  15)   -151.4631         0.013178   
    151. D(C  10,O   9,C   7,O   8)     -4.3792         0.017655   
    152. D(C  10,O   9,C   7,C   6)    174.5014         0.017755   
    153. D(H  39,C  10,O   9,C   7)    -58.5099         0.023017   
    154. D(H  17,C  10,O   9,C   7)     62.7416         0.023310   
    155. D(H  16,C  10,O   9,C   7)   -177.8352         0.023102   
    156. D(H  30,C  19,C  18,F  41)   -169.5354         0.016293   
    157. D(C  20,C  19,C  18,F  41)    -50.0802         0.014966   
    158. D(C  20,C  19,C  18,N  28)    116.0508         0.013637   
    159. D(C   6,C  19,C  18,F  41)     80.2417         0.020057   
    160. D(C   6,C  19,C  18,N  28)   -113.6273         0.021466   
    161. D(H  30,C  19,C   6,H  15)     50.6785         0.013318   
    162. D(H  30,C  19,C   6,C   7)    170.0264         0.020275   
    163. D(H  30,C  19,C   6,N   3)    -65.2009         0.021521   
    164. D(C  20,C  19,C   6,H  15)    -64.2045         0.017861   
    165. D(C  20,C  19,C   6,C   7)     55.1434         0.022442   
    166. D(C  20,C  19,C   6,N   3)    179.9161         0.025173   
    167. D(C  18,C  19,C   6,H  15)    161.4495         0.024204   
    168. D(H  30,C  19,C  18,N  28)     -3.4045         0.011445   
    169. D(C  18,C  19,C   6,N   3)     45.5702         0.033398   
    170. D(C  18,C  19,C   6,C   7)    -79.2025         0.026562   
    171. D(C  25,C  20,C  19,H  30)    -37.9878         0.010087   
    172. D(C  25,C  20,C  19,C  18)   -155.3697         0.018790   
    173. D(C  25,C  20,C  19,C   6)     73.8217         0.022025   
    174. D(C  21,C  20,C  19,H  30)    143.8089         0.009437   
    175. D(C  21,C  20,C  19,C  18)     26.4269         0.017555   
    176. D(C  21,C  20,C  19,C   6)   -104.3816         0.020714   
    177. D(C  22,C  21,C  20,C  19)    178.3024         0.007021   
    178. D(H  31,C  21,C  20,C  25)   -179.6424         0.007145   
    179. D(H  31,C  21,C  20,C  19)     -1.4580         0.007136   
    180. D(C  22,C  21,C  20,C  25)      0.1180         0.007329   
    181. D(H  32,C  22,C  21,H  31)     -0.2581         0.008677   
    182. D(H  32,C  22,C  21,C  20)    179.9806         0.008238   
    183. D(C  23,C  22,C  21,H  31)    179.5852         0.008033   
    184. D(C  23,C  22,C  21,C  20)     -0.1761         0.009211   
    185. D(H  33,C  23,C  22,H  32)      0.0567         0.008747   
    186. D(H  33,C  23,C  22,C  21)   -179.7854         0.008347   
    187. D(C  24,C  23,C  22,H  32)   -179.9081         0.008337   
    188. D(C  24,C  23,C  22,C  21)      0.2497         0.009245   
    189. D(H  34,C  24,C  23,H  33)     -0.0611         0.008576   
    190. D(H  34,C  24,C  23,C  22)    179.9042         0.008069   
    191. D(C  25,C  24,C  23,H  33)    179.7667         0.008141   
    192. D(C  25,C  24,C  23,C  22)     -0.2680         0.008972   
    193. D(O  26,C  25,C  24,H  34)      0.5589         0.009562   
    194. D(O  26,C  25,C  24,C  23)   -179.2677         0.009924   
    195. D(C  20,C  25,C  24,H  34)   -179.9629         0.007460   
    196. D(C  20,C  25,C  24,C  23)      0.2105         0.007532   
    197. D(O  26,C  25,C  20,C  21)    179.3816         0.007894   
    198. D(O  26,C  25,C  20,C  19)      1.0729         0.008010   
    199. D(C  24,C  25,C  20,C  21)     -0.1351         0.005998   
    200. D(C  24,C  25,C  20,C  19)   -178.4438         0.005532   
    201. D(C  27,O  26,C  25,C  24)     -0.2107         0.008840   
    202. D(C  27,O  26,C  25,C  20)   -179.7110         0.010183   
    203. D(H  37,C  27,O  26,C  25)     61.2830         0.028148   
    204. D(H  36,C  27,O  26,C  25)   -179.7859         0.024775   
    205. D(H  35,C  27,O  26,C  25)    -60.8594         0.028017   
    206. D(O  38,N  28,C  18,F  41)     -5.3652         0.036994   
    207. D(O  38,N  28,C  18,C  19)   -172.0763         0.038922   
    208. D(O  29,N  28,C  18,F  41)    178.1523         0.043649   
    209. D(O  29,N  28,C  18,C  19)     11.4412         0.034943   
    -----------------------------------------------------------------

Number of atoms                         .... 42
Number of degrees of freedom            .... 209

         *************************************************************
         *                GEOMETRY OPTIMIZATION CYCLE   1            *
         *************************************************************
---------------------------------
CARTESIAN COORDINATES (ANGSTROEM)
---------------------------------
  C     -4.346797    0.081614    0.896799
  C     -3.564562   -0.038306    2.046853
  C     -2.238324    0.285983    1.980843
  N     -1.698812    0.754992    0.836424
  C     -2.437558    0.895218   -0.290662
  C     -3.785449    0.569002   -0.263911
  C     -0.259470    0.779974    0.687628
  C      0.270307    2.100411    0.165216
  O     -0.308984    2.848018   -0.581091
  O      1.486927    2.300408    0.636940
  C      2.179353    3.451887    0.138120
  H     -5.396222   -0.185916    0.924227
  H     -1.560388    0.176035    2.816595
  H     -1.993772    1.443883   -1.104507
  H     -4.373366    0.711639   -1.160260
  H      0.192845    0.596472    1.659075
  H      3.160195    3.425267    0.604196
  H      1.645494    4.359804    0.417467
  C     -0.803337   -0.526441   -1.409739
  C      0.095117   -0.450997   -0.247254
  C      1.584278   -0.529228   -0.479334
  C      2.209756   -0.150418   -1.658047
  C      3.591142   -0.215077   -1.794683
  C      4.361831   -0.661885   -0.736014
  C      3.762747   -1.049224    0.455595
  C      2.380815   -0.981989    0.586386
  O      1.719213   -1.325214    1.713894
  C      2.471794   -1.782519    2.822167
  N     -1.679388   -1.514758   -1.606532
  O     -1.920699   -2.330786   -0.669725
  H     -0.192699   -1.309996    0.360274
  H      1.614453    0.206049   -2.486986
  H      4.055716    0.086267   -2.725790
  H      5.440833   -0.714245   -0.827291
  H      4.375009   -1.398337    1.276010
  H      3.028468   -2.690054    2.572795
  H      1.748916   -2.002402    3.604861
  H      3.165924   -1.012523    3.170143
  O     -2.305137   -1.586095   -2.696596
  H      2.267567    3.391562   -0.946526
  H     -3.975879   -0.397926    2.979676
  F     -0.584641    0.266407   -2.477234

----------------------------
CARTESIAN COORDINATES (A.U.)
----------------------------
  NO LB      ZA    FRAG     MASS         X           Y           Z
   0 C     6.0000    0    12.011   -8.214256    0.154228    1.694705
   1 C     6.0000    0    12.011   -6.736046   -0.072388    3.867992
   2 C     6.0000    0    12.011   -4.229819    0.540430    3.743251
   3 N     7.0000    0    14.007   -3.210289    1.426728    1.580612
   4 C     6.0000    0    12.011   -4.606317    1.691717   -0.549272
   5 C     6.0000    0    12.011   -7.153462    1.075258   -0.498720
   6 C     6.0000    0    12.011   -0.490327    1.473937    1.299429
   7 C     6.0000    0    12.011    0.510806    3.969202    0.312213
   8 O     8.0000    0    15.999   -0.583895    5.381974   -1.098103
   9 O     8.0000    0    15.999    2.809885    4.347141    1.203642
  10 C     6.0000    0    12.011    4.118380    6.523121    0.261009
  11 H     1.0000    0     1.008  -10.197382   -0.351330    1.746536
  12 H     1.0000    0     1.008   -2.948706    0.332658    5.322593
  13 H     1.0000    0     1.008   -3.767683    2.728543   -2.087216
  14 H     1.0000    0     1.008   -8.264464    1.344803   -2.192574
  15 H     1.0000    0     1.008    0.364424    1.127169    3.135197
  16 H     1.0000    0     1.008    5.971903    6.472817    1.141765
  17 H     1.0000    0     1.008    3.109533    8.238836    0.788898
  18 C     6.0000    0    12.011   -1.518087   -0.994829   -2.664021
  19 C     6.0000    0    12.011    0.179745   -0.852261   -0.467242
  20 C     6.0000    0    12.011    2.993852   -1.000096   -0.905810
  21 C     6.0000    0    12.011    4.175834   -0.284249   -3.133255
  22 C     6.0000    0    12.011    6.786275   -0.406437   -3.391459
  23 C     6.0000    0    12.011    8.242666   -1.250781   -1.390865
  24 C     6.0000    0    12.011    7.110561   -1.982746    0.860950
  25 C     6.0000    0    12.011    4.499088   -1.855690    1.108109
  26 O     8.0000    0    15.999    3.248842   -2.504292    3.238790
  27 C     6.0000    0    12.011    4.671014   -3.368473    5.333123
  28 N     7.0000    0    14.007   -3.173583   -2.862478   -3.035906
  29 O     8.0000    0    15.999   -3.629595   -4.404547   -1.265597
  30 H     1.0000    0     1.008   -0.364148   -2.475534    0.680819
  31 H     1.0000    0     1.008    3.050874    0.389376   -4.699722
  32 H     1.0000    0     1.008    7.664193    0.163021   -5.150997
  33 H     1.0000    0     1.008   10.281684   -1.349727   -1.563353
  34 H     1.0000    0     1.008    8.267569   -2.642474    2.411309
  35 H     1.0000    0     1.008    5.722975   -5.083465    4.861878
  36 H     1.0000    0     1.008    3.304972   -3.783991    6.812200
  37 H     1.0000    0     1.008    5.982729   -1.913391    5.990702
  38 O     8.0000    0    15.999   -4.356078   -2.997285   -5.095828
  39 H     1.0000    0     1.008    4.285081    6.409123   -1.788675
  40 H     1.0000    0     1.008   -7.513322   -0.751971    5.630772
  41 F     9.0000    0    18.998   -1.104811    0.503436   -4.681294

--------------------------------
INTERNAL COORDINATES (ANGSTROEM)
--------------------------------
 C      0   0   0     0.000000000000     0.00000000     0.00000000
 C      1   0   0     1.396028869523     0.00000000     0.00000000
 C      2   1   0     1.366904498590   118.91399752     0.00000000
 N      3   2   1     1.349347059798   120.75416774     2.08040962
 C      4   3   2     1.354891816710   121.56697888   358.59881916
 C      1   2   3     1.378370902097   119.72867994   357.57482907
 C      4   3   2     1.447228296747   119.39665524   195.05457601
 C      7   4   3     1.515629188965   113.46040090   227.54374824
 O      8   7   4     1.204769034869   125.87856645   329.00254499
 O      8   7   4     1.320108539699   109.32715497   150.13718291
 C     10   8   7     1.433240749252   116.26963066   174.50140121
 H      1   2   3     1.083336248221   120.04755180   178.99524088
 H      3   2   1     1.081742662699   123.13673255   182.87609304
 H      5   4   3     1.077182890714   117.16673550   168.77610671
 H      6   1   2     1.081403367139   121.54831846   182.50196763
 H      7   4   3     1.087184950704   108.60200510   347.68874400
 H     11  10   8     1.086271831145   105.49845708   182.16484994
 H     11  10   8     1.089657495353   110.08976575    62.74159170
 C     14   5   4     2.322171123760    83.01168740    76.74772904
 C     19  14   5     1.471150149535    99.53789557   287.79345079
 C     20  19  14     1.509165895348   118.58397635   235.47864400
 C     21  20  19     1.387113578966   124.15705186    26.42694431
 C     22  21  20     1.389632132535   121.27128068   178.30244566
 C     23  22  21     1.383610846714   119.57086752   359.82390385
 C     24  23  22     1.388835897022   120.41657694     0.24973109
 C     25  24  23     1.389734824896   119.74822605   359.73198659
 O     26  25  24     1.351589766569   123.57130660   180.73225107
 C     27  26  25     1.415547620928   118.35415155   359.78928587
 N     19  14   5     1.335276500182   108.12261913    58.12781626
 O     29  19  14     1.265598692617   119.55375370   256.09905143
 H     20  19  14     1.090783022714   103.80259031   116.02343448
 H     22  21  20     1.081015378993   119.56063590   358.54204252
 H     23  22  21     1.083327029692   119.85863971   179.98061344
 H     24  23  22     1.084121015539   120.36839631   180.21457545
 H     25  24  23     1.081584677979   119.77874304   179.90416608
 H     28  27  26     1.093477074696   111.11438172   299.14057063
 H     28  27  26     1.087892933247   105.98050509   180.21405257
 H     28  27  26     1.093525305373   111.04708402    61.28302252
 O     29  19  14     1.258924264071   119.71320913    72.58156268
 H     11  10   8     1.089898050616   109.93743608   301.49014466
 H      2   1   3     1.081049012866   121.75119067   181.19209136
 F     19  14   5     1.347583565700    71.82708417   169.43963113

---------------------------
INTERNAL COORDINATES (A.U.)
---------------------------
 C      0   0   0     0.000000000000     0.00000000     0.00000000
 C      1   0   0     2.638112238446     0.00000000     0.00000000
 C      2   1   0     2.583075153560   118.91399752     0.00000000
 N      3   2   1     2.549896402630   120.75416774     2.08040962
 C      4   3   2     2.560374474673   121.56697888   358.59881916
 C      1   2   3     2.604743515930   119.72867994   357.57482907
 C      4   3   2     2.734865134112   119.39665524   195.05457601
 C      7   4   3     2.864124087721   113.46040090   227.54374824
 O      8   7   4     2.276683530531   125.87856645   329.00254499
 O      8   7   4     2.494643607081   109.32715497   150.13718291
 C     10   8   7     2.708432500063   116.26963066   174.50140121
 H      1   2   3     2.047208820087   120.04755180   178.99524088
 H      3   2   1     2.044197379881   123.13673255   182.87609304
 H      5   4   3     2.035580659594   117.16673550   168.77610671
 H      6   1   2     2.043556204193   121.54831846   182.50196763
 H      7   4   3     2.054481813752   108.60200510   347.68874400
 H     11  10   8     2.052756267858   105.49845708   182.16484994
 H     11  10   8     2.059154245992   110.08976575    62.74159170
 C     14   5   4     4.388267460007    83.01168740    76.74772904
 C     19  14   5     2.780070884499    99.53789557   287.79345079
 C     20  19  14     2.851910232862   118.58397635   235.47864400
 C     21  20  19     2.621264780890   124.15705186    26.42694431
 C     22  21  20     2.626024157388   121.27128068   178.30244566
 C     23  22  21     2.614645576213   119.57086752   359.82390385
 C     24  23  22     2.624519490331   120.41657694     0.24973109
 C     25  24  23     2.626218217827   119.74822605   359.73198659
 O     26  25  24     2.554134504225   123.57130660   180.73225107
 C     27  26  25     2.674997333078   118.35415155   359.78928587
 N     19  14   5     2.523306898405   108.12261913    58.12781626
 O     29  19  14     2.391634924495   119.55375370   256.09905143
 H     20  19  14     2.061281184460   103.80259031   116.02343448
 H     22  21  20     2.042823012854   119.56063590   358.54204252
 H     23  22  21     2.047191399592   119.85863971   179.98061344
 H     24  23  22     2.048691815397   120.36839631   180.21457545
 H     25  24  23     2.043898832025   119.77874304   179.90416608
 H     28  27  26     2.066372204896   111.11438172   299.14057063
 H     28  27  26     2.055819706865   105.98050509   180.21405257
 H     28  27  26     2.066463347668   111.04708402    61.28302252
 O     29  19  14     2.379022082442   119.71320913    72.58156268
 H     11  10   8     2.059608829559   109.93743608   301.49014466
 H      2   1   3     2.042886571662   121.75119067   181.19209136
 F     19  14   5     2.546563881746    71.82708417   169.43963113

---------------------
BASIS SET INFORMATION
---------------------
There are 5 groups of distinct atoms

 Group   1 Type C   : 11s6p2d1f contracted to 5s3p2d1f pattern {62111/411/11/1}
 Group   2 Type N   : 11s6p2d1f contracted to 5s3p2d1f pattern {62111/411/11/1}
 Group   3 Type O   : 11s6p2d1f contracted to 5s3p2d1f pattern {62111/411/11/1}
 Group   4 Type H   : 5s1p contracted to 3s1p pattern {311/1}
 Group   5 Type F   : 11s6p2d1f contracted to 5s3p2d1f pattern {62111/411/11/1}

Atom   0C    basis set group =>   1
Atom   1C    basis set group =>   1
Atom   2C    basis set group =>   1
Atom   3N    basis set group =>   2
Atom   4C    basis set group =>   1
Atom   5C    basis set group =>   1
Atom   6C    basis set group =>   1
Atom   7C    basis set group =>   1
Atom   8O    basis set group =>   3
Atom   9O    basis set group =>   3
Atom  10C    basis set group =>   1
Atom  11H    basis set group =>   4
Atom  12H    basis set group =>   4
Atom  13H    basis set group =>   4
Atom  14H    basis set group =>   4
Atom  15H    basis set group =>   4
Atom  16H    basis set group =>   4
Atom  17H    basis set group =>   4
Atom  18C    basis set group =>   1
Atom  19C    basis set group =>   1
Atom  20C    basis set group =>   1
Atom  21C    basis set group =>   1
Atom  22C    basis set group =>   1
Atom  23C    basis set group =>   1
Atom  24C    basis set group =>   1
Atom  25C    basis set group =>   1
Atom  26O    basis set group =>   3
Atom  27C    basis set group =>   1
Atom  28N    basis set group =>   2
Atom  29O    basis set group =>   3
Atom  30H    basis set group =>   4
Atom  31H    basis set group =>   4
Atom  32H    basis set group =>   4
Atom  33H    basis set group =>   4
Atom  34H    basis set group =>   4
Atom  35H    basis set group =>   4
Atom  36H    basis set group =>   4
Atom  37H    basis set group =>   4
Atom  38O    basis set group =>   3
Atom  39H    basis set group =>   4
Atom  40H    basis set group =>   4
Atom  41F    basis set group =>   5
---------------------------------
AUXILIARY/J BASIS SET INFORMATION
---------------------------------
There are 5 groups of distinct atoms

 Group   1 Type C   : 12s5p4d2f1g contracted to 6s4p3d1f1g pattern {711111/2111/211/2/1}
 Group   2 Type N   : 12s5p4d2f1g contracted to 6s4p3d1f1g pattern {711111/2111/211/2/1}
 Group   3 Type O   : 12s5p4d2f1g contracted to 6s4p3d1f1g pattern {711111/2111/211/2/1}
 Group   4 Type H   : 5s2p1d contracted to 3s1p1d pattern {311/2/1}
 Group   5 Type F   : 12s5p4d2f1g contracted to 6s4p3d1f1g pattern {711111/2111/211/2/1}

Atom   0C    basis set group =>   1
Atom   1C    basis set group =>   1
Atom   2C    basis set group =>   1
Atom   3N    basis set group =>   2
Atom   4C    basis set group =>   1
Atom   5C    basis set group =>   1
Atom   6C    basis set group =>   1
Atom   7C    basis set group =>   1
Atom   8O    basis set group =>   3
Atom   9O    basis set group =>   3
Atom  10C    basis set group =>   1
Atom  11H    basis set group =>   4
Atom  12H    basis set group =>   4
Atom  13H    basis set group =>   4
Atom  14H    basis set group =>   4
Atom  15H    basis set group =>   4
Atom  16H    basis set group =>   4
Atom  17H    basis set group =>   4
Atom  18C    basis set group =>   1
Atom  19C    basis set group =>   1
Atom  20C    basis set group =>   1
Atom  21C    basis set group =>   1
Atom  22C    basis set group =>   1
Atom  23C    basis set group =>   1
Atom  24C    basis set group =>   1
Atom  25C    basis set group =>   1
Atom  26O    basis set group =>   3
Atom  27C    basis set group =>   1
Atom  28N    basis set group =>   2
Atom  29O    basis set group =>   3
Atom  30H    basis set group =>   4
Atom  31H    basis set group =>   4
Atom  32H    basis set group =>   4
Atom  33H    basis set group =>   4
Atom  34H    basis set group =>   4
Atom  35H    basis set group =>   4
Atom  36H    basis set group =>   4
Atom  37H    basis set group =>   4
Atom  38O    basis set group =>   3
Atom  39H    basis set group =>   4
Atom  40H    basis set group =>   4
Atom  41F    basis set group =>   5


           ************************************************************
           *        Program running with 24 parallel MPI-processes    *
           *              working on a common directory               *
           ************************************************************
------------------------------------------------------------------------------
                           ORCA GTO INTEGRAL CALCULATION
                           -- RI-GTO INTEGRALS CHOSEN --
------------------------------------------------------------------------------
------------------------------------------------------------------------------
                   ___                                                        
                  /   \      - P O W E R E D   B Y -                         
                 /     \                                                     
                 |  |  |   _    _      __       _____    __    __             
                 |  |  |  | |  | |    /  \     |  _  \  |  |  /  |          
                  \  \/   | |  | |   /    \    | | | |  |  | /  /          
                 / \  \   | |__| |  /  /\  \   | |_| |  |  |/  /          
                |  |  |   |  __  | /  /__\  \  |    /   |      \           
                |  |  |   | |  | | |   __   |  |    \   |  |\   \          
                \     /   | |  | | |  |  |  |  | |\  \  |  | \   \       
                 \___/    |_|  |_| |__|  |__|  |_| \__\ |__|  \__/        
                                                                              
                      - O R C A' S   B I G   F R I E N D -                    
                                      &                                       
                       - I N T E G R A L  F E E D E R -                       
                                                                              
 v1 FN, 2020, v2 2021                                                         
------------------------------------------------------------------------------


Reading SHARK input file TS1_F/TS1_F.SHARKINP.tmp ... ok
----------------------
SHARK INTEGRAL PACKAGE
----------------------

Number of atoms                             ...     42
Number of basis functions                   ...    877
Number of shells                            ...    343
Maximum angular momentum                    ...      3
Integral batch strategy                     ... SHARK/LIBINT Hybrid
RI-J (if used) integral strategy            ... SPLIT-RIJ (Revised 2003 algorithm where possible)
Printlevel                                  ...      1
Contraction scheme used                     ... SEGMENTED contraction
Coulomb Range Separation                    ... NOT USED
Exchange Range Separation                   ... NOT USED
Finite Nucleus Model                        ... NOT USED
Auxiliary Coulomb fitting basis             ... AVAILABLE
   # of basis functions in Aux-J            ...   1412
   # of shells in Aux-J                     ...    460
   Maximum angular momentum in Aux-J        ...      4
Auxiliary J/K fitting basis                 ... NOT available
Auxiliary Correlation fitting basis         ... NOT available
Auxiliary 'external' fitting basis          ... NOT available
Integral threshold                          ...     2.500000e-11
Primitive cut-off                           ...     2.500000e-12
Primitive pair pre-selection threshold      ...     2.500000e-12

Calculating pre-screening integrals         ... done (  0.1 sec) Dimension = 343
Organizing shell pair data                  ... done (  0.6 sec)
Shell pair information
Total number of shell pairs                 ...     58996
Shell pairs after pre-screening             ...     42851
Total number of primitive shell pairs       ...    182104
Primitive shell pairs kept                  ...     86701
          la=0 lb=0:  10826 shell pairs
          la=1 lb=0:  12258 shell pairs
          la=1 lb=1:   3497 shell pairs
          la=2 lb=0:   6152 shell pairs
          la=2 lb=1:   3549 shell pairs
          la=2 lb=2:    926 shell pairs
          la=3 lb=0:   2862 shell pairs
          la=3 lb=1:   1711 shell pairs
          la=3 lb=2:    855 shell pairs
          la=3 lb=3:    215 shell pairs

Calculating one electron integrals          ... done (  0.1 sec)
Calculating RI/J V-Matrix + Cholesky decomp.... done (  0.2 sec)
Calculating Nuclear repulsion               ... done (  0.0 sec) ENN=   2403.823251843749 Eh

SHARK setup successfully completed in   1.6 seconds

Maximum memory used throughout the entire GTOINT-calculation: 65.1 MB


           ************************************************************
           *        Program running with 24 parallel MPI-processes    *
           *              working on a common directory               *
           ************************************************************
-------------------------------------------------------------------------------
                                 ORCA SCF
-------------------------------------------------------------------------------

------------
SCF SETTINGS
------------
Hamiltonian:
 Density Functional     Method          .... DFT(GTOs)
 Exchange Functional    Exchange        .... PBE
   PBE kappa parameter   XKappa         ....  0.804000
   PBE mue parameter    XMuePBE         ....  0.219520
 Correlation Functional Correlation     .... PBE
   PBE beta parameter  CBetaPBE         ....  0.066725
 LDA part of GGA corr.  LDAOpt          .... PW91-LDA
 Gradients option       PostSCFGGA      .... off
 Hybrid DFT is turned on
   Fraction HF Exchange ScalHFX         ....  0.250000
   Scaling of DF-GGA-X  ScalDFX         ....  0.750000
   Scaling of DF-GGA-C  ScalDFC         ....  1.000000
   Scaling of DF-LDA-C  ScalLDAC        ....  1.000000
   Perturbative correction              ....  0.000000
   Density functional embedding theory  .... OFF
   NL short-range parameter             ....  6.900000
 RI-approximation to the Coulomb term is turned on
   Number of AuxJ basis functions       .... 1412
   RIJ-COSX (HFX calculated with COS-X)).... on


General Settings:
 Integral files         IntName         .... TS1_F/TS1_F
 Hartree-Fock type      HFTyp           .... RHF
 Total Charge           Charge          ....    0
 Multiplicity           Mult            ....    1
 Number of Electrons    NEL             ....  182
 Basis Dimension        Dim             ....  877
 Nuclear Repulsion      ENuc            ....   2403.8232518437 Eh

Convergence Acceleration:
 DIIS                   CNVDIIS         .... on
   Start iteration      DIISMaxIt       ....    12
   Startup error        DIISStart       ....  0.200000
   # of expansion vecs  DIISMaxEq       ....     5
   Bias factor          DIISBfac        ....   1.050
   Max. coefficient     DIISMaxC        ....  10.000
 Trust-Rad. Augm. Hess. CNVTRAH         .... auto
   Auto Start mean grad. ratio tolernc. ....  1.125000
   Auto Start start iteration           ....    20
   Auto Start num. interpolation iter.  ....    10
   Max. Number of Micro iterations      ....    16
   Max. Number of Macro iterations      .... Maxiter - #DIIS iter
   Number of Davidson start vectors     ....     2
   Converg. threshold I  (grad. norm)   ....   1.000e-05
   Converg. threshold II (energy diff.) ....   1.000e-08
   Grad. Scal. Fac. for Micro threshold ....   0.100
   Minimum threshold for Micro iter.    ....   0.010
   NR start threshold (gradient norm)   ....   0.001
   Initial trust radius                 ....   0.400
   Minimum AH scaling param. (alpha)    ....   1.000
   Maximum AH scaling param. (alpha)    .... 1000.000
   Orbital update algorithm             .... Taylor
   White noise on init. David. guess    .... on
   Maximum white noise                  ....   0.010
   Quad. conv. algorithm                .... NR
 SOSCF                  CNVSOSCF        .... on
   Start iteration      SOSCFMaxIt      ....   150
   Startup grad/error   SOSCFStart      ....  0.003300
 Level Shifting         CNVShift        .... on
   Level shift para.    LevelShift      ....    0.2500
   Turn off err/grad.   ShiftErr        ....    0.0010
 Zerner damping         CNVZerner       .... off
 Static damping         CNVDamp         .... on
   Fraction old density DampFac         ....    0.7000
   Max. Damping (<1)    DampMax         ....    0.9800
   Min. Damping (>=0)   DampMin         ....    0.0000
   Turn off err/grad.   DampErr         ....    0.1000
 Fernandez-Rico         CNVRico         .... off

SCF Procedure:
 Maximum # iterations   MaxIter         ....   800
 SCF integral mode      SCFMode         .... Direct
   Integral package                     .... SHARK and LIBINT hybrid scheme
 Reset frequency        DirectResetFreq ....    20
 Integral Threshold     Thresh          ....  2.500e-11 Eh
 Primitive CutOff       TCut            ....  2.500e-12 Eh

Convergence Tolerance:
 Convergence Check Mode ConvCheckMode   .... Total+1el-Energy
 Convergence forced     ConvForced      .... 0
 Energy Change          TolE            ....  1.000e-08 Eh
 1-El. energy change                    ....  1.000e-05 Eh
 Orbital Gradient       TolG            ....  1.000e-05
 Orbital Rotation angle TolX            ....  1.000e-05
 DIIS Error             TolErr          ....  5.000e-07


Diagonalization of the overlap matrix:
Smallest eigenvalue                        ... 5.820e-06
Time for diagonalization                   ...    0.232 sec
Threshold for overlap eigenvalues          ... 1.000e-08
Number of eigenvalues below threshold      ... 0
Time for construction of square roots      ...    0.136 sec
Total time needed                          ...    0.373 sec

Time for model grid setup =    0.321 sec

------------------------------
INITIAL GUESS: MODEL POTENTIAL
------------------------------
Loading Hartree-Fock densities                     ... done
Calculating cut-offs                               ... done
Initializing the effective Hamiltonian             ... done
Setting up the integral package (SHARK)            ... done
Starting the Coulomb interaction                   ... done (   0.5 sec)
Reading the grid                                   ... done
Mapping shells                                     ... done
Starting the XC term evaluation                    ... done (   0.2 sec)
  promolecular density results
     # of electrons  =    181.999380570
     EX              =   -155.930686903
     EC              =     -6.187848116
     EX+EC           =   -162.118535019
Transforming the Hamiltonian                       ... done (   0.1 sec)
Diagonalizing the Hamiltonian                      ... done (   0.2 sec)
Back transforming the eigenvectors                 ... done (   0.0 sec)
Now organizing SCF variables                       ... done
                      ------------------
                      INITIAL GUESS DONE (   1.7 sec)
                      ------------------
-------------------
DFT GRID GENERATION
-------------------

General Integration Accuracy     IntAcc      ... 4.388
Radial Grid Type                 RadialGrid  ... OptM3 with GC (2021)
Angular Grid (max. ang.)         AngularGrid ... 4 (Lebedev-302)
Angular grid pruning method      GridPruning ... 4 (adaptive)
Weight generation scheme         WeightScheme... Becke
Basis function cutoff            BFCut       ... 1.0000e-11
Integration weight cutoff        WCut        ... 1.0000e-14
Angular grids for H and He will be reduced by one unit
Partially contracted basis set               ... off
Rotationally invariant grid construction     ... off

Total number of grid points                  ...   203145
Total number of batches                      ...     3195
Average number of points per batch           ...       63
Average number of grid points per atom       ...     4837
Time for grid setup =    1.445 sec

--------------------
COSX GRID GENERATION
--------------------

GRIDX 1
-------
General Integration Accuracy     IntAcc      ... 3.816
Radial Grid Type                 RadialGrid  ... OptM3 with GC (2021)
Angular Grid (max. ang.)         AngularGrid ... 1 (Lebedev-50)
Angular grid pruning method      GridPruning ... 4 (adaptive)
Weight generation scheme         WeightScheme... Becke
Basis function cutoff            BFCut       ... 1.0000e-11
Integration weight cutoff        WCut        ... 1.0000e-14
Angular grids for H and He will be reduced by one unit
Partially contracted basis set               ... on
Rotationally invariant grid construction     ... off

Total number of grid points                  ...    25759
Total number of batches                      ...      422
Average number of points per batch           ...       61
Average number of grid points per atom       ...      613
UseSFitting                                  ... on

GRIDX 2
-------
General Integration Accuracy     IntAcc      ... 4.020
Radial Grid Type                 RadialGrid  ... OptM3 with GC (2021)
Angular Grid (max. ang.)         AngularGrid ... 2 (Lebedev-110)
Angular grid pruning method      GridPruning ... 4 (adaptive)
Weight generation scheme         WeightScheme... Becke
Basis function cutoff            BFCut       ... 1.0000e-11
Integration weight cutoff        WCut        ... 1.0000e-14
Angular grids for H and He will be reduced by one unit
Partially contracted basis set               ... on
Rotationally invariant grid construction     ... off

Total number of grid points                  ...    56097
Total number of batches                      ...      897
Average number of points per batch           ...       62
Average number of grid points per atom       ...     1336
UseSFitting                                  ... on

GRIDX 3
-------
General Integration Accuracy     IntAcc      ... 4.338
Radial Grid Type                 RadialGrid  ... OptM3 with GC (2021)
Angular Grid (max. ang.)         AngularGrid ... 3 (Lebedev-194)
Angular grid pruning method      GridPruning ... 4 (adaptive)
Weight generation scheme         WeightScheme... Becke
Basis function cutoff            BFCut       ... 1.0000e-11
Integration weight cutoff        WCut        ... 1.0000e-14
Angular grids for H and He will be reduced by one unit
Partially contracted basis set               ... on
Rotationally invariant grid construction     ... off

Total number of grid points                  ...   122560
Total number of batches                      ...     1933
Average number of points per batch           ...       63
Average number of grid points per atom       ...     2918
UseSFitting                                  ... on

Time for X-Grid setup             =    2.527 sec


--------------------
CPCM SOLVATION MODEL
--------------------
CPCM parameters:
  Epsilon                                         ...      47.2000
  Refrac                                          ...       1.4790
  Rsolv                                           ...       1.3000
  Surface type                                    ... GAUSSIAN VDW
  Epsilon function type                           ...         CPCM
Radii:
 Radius for C  used is    3.8550 Bohr (=   2.0400 Ang.)
 Radius for N  used is    3.5149 Bohr (=   1.8600 Ang.)
 Radius for O  used is    3.4469 Bohr (=   1.8240 Ang.)
 Radius for H  used is    2.4944 Bohr (=   1.3200 Ang.)
 Radius for F  used is    3.3335 Bohr (=   1.7640 Ang.)
Calculating surface                               ...        done! (  0.0s)
GEPOL surface points                              ...         2143
GEPOL Volume                                      ...    2579.5064
GEPOL Surface-area                                ...    1276.4219
Calculating surface distance matrix               ...        done! (  0.1s)
Performing Cholesky decomposition & store         ...        done! (  0.5s)
Overall time for CPCM initialization              ...                 0.5s
--------------
SCF ITERATIONS
--------------
ITER       Energy         Delta-E        Max-DP      RMS-DP      [F,P]     Damp
               ***  Starting incremental Fock matrix formation  ***
  0  -1241.9336107399   0.000000000000 0.35996333  0.00098308  0.2582965 0.7000
  1  -1242.1825254281  -0.248914688186 0.37119829  0.00088546  0.1046010 0.7000
                               ***Turning on DIIS***
  2  -1242.2777018998  -0.095176471657 0.46990479  0.00138500  0.0357980 0.0000
  3  -1242.4420589760  -0.164357076271 0.39107820  0.00082837  0.0568676 0.0000
  4  -1242.4691009819  -0.027042005888 0.11472870  0.00028643  0.0151321 0.0000
  5  -1242.4716374899  -0.002536507988 0.03840845  0.00008624  0.0034397 0.0000
                      *** Initiating the SOSCF procedure ***
                           *** Shutting down DIIS ***
                      *** Re-Reading the Fockian *** 
                      *** Removing any level shift *** 
ITER      Energy       Delta-E        Grad      Rot      Max-DP    RMS-DP
  6  -1242.47172783  -0.0000903421  0.000260  0.000260  0.010336  0.000026
               *** Restarting incremental Fock matrix formation ***
  7  -1242.47171086   0.0000169761  0.000191  0.000829  0.002828  0.000024
  8  -1242.47170916   0.0000017006  0.000448  0.000702  0.002091  0.000008
  9  -1242.47171397  -0.0000048123  0.000041  0.000117  0.001888  0.000006
 10  -1242.47171388   0.0000000833  0.000050  0.000072  0.000496  0.000002
 11  -1242.47171406  -0.0000001715  0.000006  0.000051  0.000174  0.000001
 12  -1242.47171408  -0.0000000193  0.000008  0.000017  0.000101  0.000001
                  ***Gradient check signals convergence***
              ***Rediagonalizing the Fockian in SOSCF/NRSCF***

               *****************************************************
               *                     SUCCESS                       *
               *           SCF CONVERGED AFTER  13 CYCLES          *
               *****************************************************

Old exchange energy                            =    -39.667802750 Eh
New exchange energy                            =    -39.667836382 Eh
Exchange energy change after final integration =     -0.000033633 Eh
Total energy after final integration           =  -1242.471747667 Eh
Final COS-X integration done in                =    17.065 sec

----------------
TOTAL SCF ENERGY
----------------

Total Energy       :        -1242.47174767 Eh          -33809.37509 eV

Components:
Nuclear Repulsion  :         2403.82325184 Eh           65411.35613 eV
Electronic Energy  :        -3646.29499951 Eh          -99220.73122 eV
One Electron Energy:        -6479.06065717 Eh         -176304.20361 eV
Two Electron Energy:         2832.76565766 Eh           77083.47239 eV
Max COSX asymmetry :            0.00000209 Eh               0.00006 eV
CPCM Dielectric    :           -0.06036545 Eh              -1.64263 eV

Virial components:
Potential Energy   :        -2479.69397536 Eh          -67475.90348 eV
Kinetic Energy     :         1237.22222770 Eh           33666.52839 eV
Virial Ratio       :            2.00424299


DFT components:
N(Alpha)           :       91.000060215106 electrons
N(Beta)            :       91.000060215106 electrons
N(Total)           :      182.000120430212 electrons
E(X)               :     -118.840180013532 Eh       
E(C)               :       -6.178389924945 Eh       
E(XC)              :     -125.018569938476 Eh       
DFET-embed. en.    :        0.000000000000 Eh       
CPCM Solvation Model Properties:
Surface-charge          :           -0.02740362
Charge-correction       :           -0.00041968 Eh              -0.01142 eV
Free-energy (cav+disp)  :  This term is not implemented in the current solvation scheme

---------------
SCF CONVERGENCE
---------------

  Last Energy change         ...    4.1121e-08  Tolerance :   1.0000e-08
  Last MAX-Density change    ...    2.4425e-15  Tolerance :   1.0000e-07
  Last RMS-Density change    ...    1.6083e-17  Tolerance :   5.0000e-09
  Last Orbital Gradient      ...    1.3700e-06  Tolerance :   1.0000e-05
  Last Orbital Rotation      ...    3.6483e-06  Tolerance :   1.0000e-05

             **** THE GBW FILE WAS UPDATED (TS1_F/TS1_F.gbw) ****
             **** DENSITY TS1_F/TS1_F.scfp WAS UPDATED ****
             **** ENERGY FILE WAS UPDATED (TS1_F/TS1_F.en.tmp) ****
             **** THE GBW FILE WAS UPDATED (TS1_F/TS1_F.gbw) ****
             **** DENSITY TS1_F/TS1_F.scfp WAS UPDATED ****
----------------
ORBITAL ENERGIES
----------------

  NO   OCC          E(Eh)            E(eV) 
   0   2.0000     -24.790680      -674.5887 
   1   2.0000     -19.273988      -524.4719 
   2   2.0000     -19.248615      -523.7814 
   3   2.0000     -19.216161      -522.8983 
   4   2.0000     -19.182639      -521.9862 
   5   2.0000     -19.180830      -521.9369 
   6   2.0000     -14.568486      -396.4287 
   7   2.0000     -14.501279      -394.5999 
   8   2.0000     -10.374154      -282.2951 
   9   2.0000     -10.320645      -280.8390 
  10   2.0000     -10.307728      -280.4875 
  11   2.0000     -10.305316      -280.4219 
  12   2.0000     -10.304355      -280.3958 
  13   2.0000     -10.292756      -280.0801 
  14   2.0000     -10.274552      -279.5848 
  15   2.0000     -10.271227      -279.4943 
  16   2.0000     -10.270670      -279.4791 
  17   2.0000     -10.267869      -279.4029 
  18   2.0000     -10.258005      -279.1345 
  19   2.0000     -10.256914      -279.1048 
  20   2.0000     -10.245348      -278.7901 
  21   2.0000     -10.230338      -278.3816 
  22   2.0000     -10.230105      -278.3753 
  23   2.0000     -10.227021      -278.2914 
  24   2.0000     -10.222021      -278.1553 
  25   2.0000      -1.273496       -34.6536 
  26   2.0000      -1.196382       -32.5552 
  27   2.0000      -1.166075       -31.7305 
  28   2.0000      -1.111080       -30.2340 
  29   2.0000      -1.080315       -29.3969 
  30   2.0000      -1.068142       -29.0656 
  31   2.0000      -1.016646       -27.6643 
  32   2.0000      -0.905993       -24.6533 
  33   2.0000      -0.887910       -24.1613 
  34   2.0000      -0.858653       -23.3651 
  35   2.0000      -0.836324       -22.7575 
  36   2.0000      -0.821782       -22.3618 
  37   2.0000      -0.795049       -21.6344 
  38   2.0000      -0.779686       -21.2163 
  39   2.0000      -0.758657       -20.6441 
  40   2.0000      -0.728948       -19.8357 
  41   2.0000      -0.712895       -19.3989 
  42   2.0000      -0.705720       -19.2036 
  43   2.0000      -0.677677       -18.4405 
  44   2.0000      -0.639523       -17.4023 
  45   2.0000      -0.622723       -16.9452 
  46   2.0000      -0.611254       -16.6331 
  47   2.0000      -0.608571       -16.5601 
  48   2.0000      -0.578074       -15.7302 
  49   2.0000      -0.566764       -15.4224 
  50   2.0000      -0.559480       -15.2242 
  51   2.0000      -0.552464       -15.0333 
  52   2.0000      -0.547666       -14.9028 
  53   2.0000      -0.544036       -14.8040 
  54   2.0000      -0.533814       -14.5258 
  55   2.0000      -0.523253       -14.2384 
  56   2.0000      -0.518470       -14.1083 
  57   2.0000      -0.508584       -13.8393 
  58   2.0000      -0.503946       -13.7131 
  59   2.0000      -0.495754       -13.4902 
  60   2.0000      -0.491521       -13.3750 
  61   2.0000      -0.488586       -13.2951 
  62   2.0000      -0.480128       -13.0650 
  63   2.0000      -0.477742       -13.0000 
  64   2.0000      -0.471493       -12.8300 
  65   2.0000      -0.463409       -12.6100 
  66   2.0000      -0.456343       -12.4177 
  67   2.0000      -0.447582       -12.1793 
  68   2.0000      -0.437527       -11.9057 
  69   2.0000      -0.434375       -11.8199 
  70   2.0000      -0.429572       -11.6892 
  71   2.0000      -0.418347       -11.3838 
  72   2.0000      -0.409288       -11.1373 
  73   2.0000      -0.405788       -11.0421 
  74   2.0000      -0.404234       -10.9998 
  75   2.0000      -0.394078       -10.7234 
  76   2.0000      -0.386410       -10.5148 
  77   2.0000      -0.382560       -10.4100 
  78   2.0000      -0.368291       -10.0217 
  79   2.0000      -0.347690        -9.4611 
  80   2.0000      -0.344715        -9.3802 
  81   2.0000      -0.340572        -9.2674 
  82   2.0000      -0.337716        -9.1897 
  83   2.0000      -0.317697        -8.6450 
  84   2.0000      -0.313120        -8.5204 
  85   2.0000      -0.301975        -8.2171 
  86   2.0000      -0.290767        -7.9122 
  87   2.0000      -0.275217        -7.4890 
  88   2.0000      -0.265615        -7.2277 
  89   2.0000      -0.241972        -6.5844 
  90   2.0000      -0.211499        -5.7552 
  91   0.0000      -0.080017        -2.1774 
  92   0.0000      -0.042657        -1.1608 
  93   0.0000      -0.021207        -0.5771 
  94   0.0000      -0.009808        -0.2669 
  95   0.0000      -0.002580        -0.0702 
  96   0.0000       0.019241         0.5236 
  97   0.0000       0.042787         1.1643 
  98   0.0000       0.059359         1.6152 
  99   0.0000       0.064089         1.7439 
 100   0.0000       0.068160         1.8547 
 101   0.0000       0.080890         2.2011 
 102   0.0000       0.083630         2.2757 
 103   0.0000       0.091722         2.4959 
 104   0.0000       0.093983         2.5574 
 105   0.0000       0.102150         2.7796 
 106   0.0000       0.103404         2.8138 
 107   0.0000       0.110334         3.0023 
 108   0.0000       0.111757         3.0411 
 109   0.0000       0.114366         3.1120 
 110   0.0000       0.123989         3.3739 
 111   0.0000       0.127243         3.4625 
 112   0.0000       0.132196         3.5972 
 113   0.0000       0.135842         3.6965 
 114   0.0000       0.139529         3.7968 
 115   0.0000       0.144846         3.9415 
 116   0.0000       0.147861         4.0235 
 117   0.0000       0.149599         4.0708 
 118   0.0000       0.155421         4.2292 
 119   0.0000       0.157733         4.2921 
 120   0.0000       0.160261         4.3609 
 121   0.0000       0.169510         4.6126 
 122   0.0000       0.172408         4.6915 
 123   0.0000       0.175922         4.7871 
 124   0.0000       0.189102         5.1457 
 125   0.0000       0.197014         5.3610 
 126   0.0000       0.202715         5.5161 
 127   0.0000       0.208723         5.6796 
 128   0.0000       0.214018         5.8237 
 129   0.0000       0.216451         5.8899 
 130   0.0000       0.223250         6.0749 
 131   0.0000       0.224783         6.1167 
 132   0.0000       0.227180         6.1819 
 133   0.0000       0.234303         6.3757 
 134   0.0000       0.236586         6.4378 
 135   0.0000       0.239878         6.5274 
 136   0.0000       0.241513         6.5719 
 137   0.0000       0.243327         6.6213 
 138   0.0000       0.250695         6.8218 
 139   0.0000       0.255383         6.9493 
 140   0.0000       0.259020         7.0483 
 141   0.0000       0.261546         7.1170 
 142   0.0000       0.269258         7.3269 
 143   0.0000       0.275161         7.4875 
 144   0.0000       0.277135         7.5412 
 145   0.0000       0.278654         7.5826 
 146   0.0000       0.287442         7.8217 
 147   0.0000       0.293285         7.9807 
 148   0.0000       0.299951         8.1621 
 149   0.0000       0.309164         8.4128 
 150   0.0000       0.310207         8.4412 
 151   0.0000       0.313199         8.5226 
 152   0.0000       0.318358         8.6630 
 153   0.0000       0.321114         8.7380 
 154   0.0000       0.325351         8.8532 
 155   0.0000       0.328035         8.9263 
 156   0.0000       0.334173         9.0933 
 157   0.0000       0.335847         9.1389 
 158   0.0000       0.346305         9.4234 
 159   0.0000       0.349466         9.5094 
 160   0.0000       0.352289         9.5863 
 161   0.0000       0.360988         9.8230 
 162   0.0000       0.363464         9.8904 
 163   0.0000       0.366276         9.9669 
 164   0.0000       0.370949        10.0940 
 165   0.0000       0.377453        10.2710 
 166   0.0000       0.380029        10.3411 
 167   0.0000       0.384966        10.4755 
 168   0.0000       0.389596        10.6014 
 169   0.0000       0.395751        10.7689 
 170   0.0000       0.398724        10.8498 
 171   0.0000       0.401961        10.9379 
 172   0.0000       0.405393        11.0313 
 173   0.0000       0.409262        11.1366 
 174   0.0000       0.412404        11.2221 
 175   0.0000       0.416983        11.3467 
 176   0.0000       0.421440        11.4680 
 177   0.0000       0.422834        11.5059 
 178   0.0000       0.428333        11.6555 
 179   0.0000       0.431829        11.7507 
 180   0.0000       0.437328        11.9003 
 181   0.0000       0.438296        11.9266 
 182   0.0000       0.442158        12.0317 
 183   0.0000       0.444131        12.0854 
 184   0.0000       0.449731        12.2378 
 185   0.0000       0.455655        12.3990 
 186   0.0000       0.457215        12.4414 
 187   0.0000       0.464793        12.6477 
 188   0.0000       0.469816        12.7843 
 189   0.0000       0.472733        12.8637 
 190   0.0000       0.475578        12.9411 
 191   0.0000       0.477255        12.9868 
 192   0.0000       0.484507        13.1841 
 193   0.0000       0.485841        13.2204 
 194   0.0000       0.489755        13.3269 
 195   0.0000       0.492487        13.4013 
 196   0.0000       0.496494        13.5103 
 197   0.0000       0.497465        13.5367 
 198   0.0000       0.502023        13.6607 
 199   0.0000       0.513672        13.9777 
 200   0.0000       0.516580        14.0569 
 201   0.0000       0.517340        14.0775 
 202   0.0000       0.520057        14.1515 
 203   0.0000       0.522539        14.2190 
 204   0.0000       0.531939        14.4748 
 205   0.0000       0.536425        14.5969 
 206   0.0000       0.543073        14.7778 
 207   0.0000       0.546642        14.8749 
 208   0.0000       0.549584        14.9549 
 209   0.0000       0.553161        15.0523 
 210   0.0000       0.564720        15.3668 
 211   0.0000       0.573954        15.6181 
 212   0.0000       0.576420        15.6852 
 213   0.0000       0.583414        15.8755 
 214   0.0000       0.590604        16.0711 
 215   0.0000       0.597042        16.2463 
 216   0.0000       0.603147        16.4125 
 217   0.0000       0.609653        16.5895 
 218   0.0000       0.617325        16.7983 
 219   0.0000       0.620001        16.8711 
 220   0.0000       0.626233        17.0407 
 221   0.0000       0.631057        17.1719 
 222   0.0000       0.637073        17.3356 
 223   0.0000       0.642032        17.4706 
 224   0.0000       0.651851        17.7378 
 225   0.0000       0.659597        17.9485 
 226   0.0000       0.666768        18.1437 
 227   0.0000       0.669903        18.2290 
 228   0.0000       0.672939        18.3116 
 229   0.0000       0.680886        18.5278 
 230   0.0000       0.684677        18.6310 
 231   0.0000       0.689896        18.7730 
 232   0.0000       0.691798        18.8248 
 233   0.0000       0.706709        19.2305 
 234   0.0000       0.707190        19.2436 
 235   0.0000       0.717856        19.5338 
 236   0.0000       0.724667        19.7192 
 237   0.0000       0.726458        19.7679 
 238   0.0000       0.729523        19.8513 
 239   0.0000       0.734788        19.9946 
 240   0.0000       0.742526        20.2052 
 241   0.0000       0.752867        20.4866 
 242   0.0000       0.755835        20.5673 
 243   0.0000       0.761472        20.7207 
 244   0.0000       0.768040        20.8994 
 245   0.0000       0.773994        21.0614 
 246   0.0000       0.777163        21.1477 
 247   0.0000       0.778624        21.1874 
 248   0.0000       0.786955        21.4141 
 249   0.0000       0.793922        21.6037 
 250   0.0000       0.805637        21.9225 
 251   0.0000       0.813601        22.1392 
 252   0.0000       0.816470        22.2173 
 253   0.0000       0.821550        22.3555 
 254   0.0000       0.827017        22.5043 
 255   0.0000       0.839263        22.8375 
 256   0.0000       0.842049        22.9133 
 257   0.0000       0.849296        23.1105 
 258   0.0000       0.856259        23.3000 
 259   0.0000       0.867099        23.5950 
 260   0.0000       0.877288        23.8722 
 261   0.0000       0.878381        23.9020 
 262   0.0000       0.886312        24.1178 
 263   0.0000       0.895851        24.3773 
 264   0.0000       0.900218        24.4962 
 265   0.0000       0.900350        24.4998 
 266   0.0000       0.915136        24.9021 
 267   0.0000       0.921382        25.0721 
 268   0.0000       0.924353        25.1529 
 269   0.0000       0.930934        25.3320 
 270   0.0000       0.937763        25.5178 
 271   0.0000       0.940636        25.5960 
 272   0.0000       0.943781        25.6816 
 273   0.0000       0.957114        26.0444 
 274   0.0000       0.964554        26.2468 
 275   0.0000       0.973748        26.4970 
 276   0.0000       0.979208        26.6456 
 277   0.0000       0.989220        26.9180 
 278   0.0000       0.996112        27.1056 
 279   0.0000       1.004102        27.3230 
 280   0.0000       1.004388        27.3308 
 281   0.0000       1.012308        27.5463 
 282   0.0000       1.024016        27.8649 
 283   0.0000       1.037217        28.2241 
 284   0.0000       1.042952        28.3802 
 285   0.0000       1.050854        28.5952 
 286   0.0000       1.054285        28.6885 
 287   0.0000       1.060017        28.8445 
 288   0.0000       1.068448        29.0740 
 289   0.0000       1.074357        29.2348 
 290   0.0000       1.082129        29.4462 
 291   0.0000       1.088568        29.6214 
 292   0.0000       1.093439        29.7540 
 293   0.0000       1.098748        29.8985 
 294   0.0000       1.107879        30.1469 
 295   0.0000       1.113207        30.2919 
 296   0.0000       1.124667        30.6037 
 297   0.0000       1.129733        30.7416 
 298   0.0000       1.134236        30.8641 
 299   0.0000       1.144408        31.1409 
 300   0.0000       1.146480        31.1973 
 301   0.0000       1.154688        31.4206 
 302   0.0000       1.161607        31.6089 
 303   0.0000       1.168747        31.8032 
 304   0.0000       1.171491        31.8779 
 305   0.0000       1.192778        32.4571 
 306   0.0000       1.196672        32.5631 
 307   0.0000       1.204063        32.7642 
 308   0.0000       1.219770        33.1916 
 309   0.0000       1.223596        33.2957 
 310   0.0000       1.232117        33.5276 
 311   0.0000       1.238553        33.7027 
 312   0.0000       1.249512        34.0010 
 313   0.0000       1.250801        34.0360 
 314   0.0000       1.260171        34.2910 
 315   0.0000       1.263054        34.3694 
 316   0.0000       1.268436        34.5159 
 317   0.0000       1.275150        34.6986 
 318   0.0000       1.283263        34.9194 
 319   0.0000       1.284501        34.9531 
 320   0.0000       1.290020        35.1032 
 321   0.0000       1.298158        35.3247 
 322   0.0000       1.312441        35.7133 
 323   0.0000       1.321624        35.9632 
 324   0.0000       1.329931        36.1893 
 325   0.0000       1.337919        36.4066 
 326   0.0000       1.341749        36.5108 
 327   0.0000       1.358895        36.9774 
 328   0.0000       1.365949        37.1694 
 329   0.0000       1.378374        37.5075 
 330   0.0000       1.394754        37.9532 
 331   0.0000       1.404719        38.2243 
 332   0.0000       1.408569        38.3291 
 333   0.0000       1.421606        38.6839 
 334   0.0000       1.433132        38.9975 
 335   0.0000       1.437330        39.1117 
 336   0.0000       1.444238        39.2997 
 337   0.0000       1.451942        39.5094 
 338   0.0000       1.456187        39.6249 
 339   0.0000       1.463302        39.8185 
 340   0.0000       1.472488        40.0684 
 341   0.0000       1.476798        40.1857 
 342   0.0000       1.483099        40.3572 
 343   0.0000       1.489061        40.5194 
 344   0.0000       1.489457        40.5302 
[...]
 14:     97.80   0.001456    7.36  0.004646  (-0.032212  0.041790  0.043156)
 15:    110.52   0.000718    3.63  0.002027  ( 0.014549 -0.040038 -0.014560)
 16:    124.57   0.000902    4.56  0.002261  ( 0.001048  0.009898  0.046494)
 17:    141.26   0.000861    4.35  0.001903  (-0.023554  0.030550  0.020360)
 18:    145.50   0.000944    4.77  0.002025  (-0.015366  0.036747  0.020937)
 19:    174.86   0.001020    5.16  0.001821  (-0.019164  0.031289  0.021787)
 20:    192.96   0.002136   10.80  0.003455  (-0.028896  0.040610  0.031163)
 21:    208.43   0.005330   26.94  0.007981  ( 0.048094 -0.060967 -0.044166)
 22:    225.34   0.005155   26.05  0.007138  (-0.039941  0.068617  0.028895)
 23:    240.40   0.006522   32.96  0.008467  ( 0.003934 -0.062845 -0.067094)
 24:    257.05   0.000568    2.87  0.000690  (-0.008623  0.018501  0.016529)
 25:    271.45   0.005339   26.98  0.006137  ( 0.014170  0.058764  0.049834)
 26:    288.75   0.001735    8.77  0.001875  (-0.043016 -0.004778 -0.001503)
 27:    304.77   0.006123   30.94  0.006270  (-0.009850 -0.057828 -0.053184)
 28:    315.32   0.001164    5.88  0.001152  ( 0.016713 -0.024261 -0.016855)
 29:    320.84   0.007526   38.03  0.007320  (-0.004276 -0.080688 -0.028130)
 30:    362.82   0.005113   25.84  0.004398  (-0.052702 -0.040167  0.002592)
 31:    382.57   0.005082   25.68  0.004145  (-0.002618 -0.047836 -0.043011)
 32:    440.84   0.000711    3.59  0.000503  ( 0.016851 -0.009117 -0.011679)
 33:    461.15   0.000285    1.44  0.000193  (-0.001440  0.009624  0.009892)
 34:    486.93   0.000933    4.71  0.000598  ( 0.023336  0.007101  0.001694)
 35:    510.60   0.004664   23.57  0.002850  ( 0.008121 -0.037762 -0.036856)
 36:    547.63   0.011163   56.41  0.006361  (-0.001886  0.067948  0.041722)
 37:    577.74   0.011857   59.92  0.006404  ( 0.038455 -0.044861 -0.053972)
 38:    582.66   0.002852   14.41  0.001527  (-0.017321  0.034298  0.007139)
 39:    588.71   0.002508   12.68  0.001330  ( 0.016661  0.030136  0.011995)
 40:    614.47   0.003624   18.32  0.001841  ( 0.040825  0.002253  0.012998)
 41:    635.57   0.014613   73.85  0.007175  (-0.029175  0.075395  0.025282)
 42:    652.35   0.000109    0.55  0.000052  ( 0.004732 -0.003767  0.003922)
 43:    709.27   0.036570  184.81  0.016090  (-0.018405  0.116175  0.047481)
 44:    719.14   0.014447   73.01  0.006269  (-0.028414  0.073884 -0.001660)
 45:    733.98   0.008399   42.44  0.003571  (-0.020134 -0.056260  0.000472)
 46:    753.79   0.004187   21.16  0.001733  ( 0.021175  0.029899  0.019771)
 47:    764.47   0.005547   28.03  0.002264  (-0.032814  0.010172 -0.032926)
 48:    769.43   0.015311   77.37  0.006210  (-0.023165  0.068103  0.032173)
 49:    780.84   0.008868   44.82  0.003544  (-0.022234 -0.043625 -0.033862)
 50:    805.20   0.005129   25.92  0.001988  (-0.020802 -0.038756  0.007293)
 51:    826.58   0.002436   12.31  0.000920  (-0.022793 -0.019110  0.005906)
 52:    843.46   0.004795   24.23  0.001774  (-0.009058  0.000417  0.041134)
 53:    859.95   0.003313   16.74  0.001202  ( 0.011296 -0.027871 -0.017255)
 54:    868.49   0.007398   37.39  0.002658  ( 0.026391 -0.042551 -0.012293)
 55:    877.70   0.001997   10.09  0.000710  (-0.003542  0.017618  0.019676)
 56:    913.22   0.016020   80.96  0.005474  (-0.005765 -0.058907 -0.044398)
 57:    941.66   0.002027   10.24  0.000672  (-0.018058  0.002810 -0.018373)
 58:    965.88   0.005668   28.64  0.001831  ( 0.008736  0.040950  0.008826)
 59:    976.19   0.000850    4.29  0.000272  ( 0.000997  0.011602  0.011665)
 60:    983.63   0.005524   27.92  0.001753  ( 0.000924  0.039243  0.014549)
 61:    995.57   0.041554  210.00  0.013025  ( 0.036138 -0.068899 -0.083499)
 62:   1000.87   0.004213   21.29  0.001313  ( 0.011930 -0.018721 -0.028647)
 63:   1019.78   0.000928    4.69  0.000284  (-0.008852  0.009383  0.010841)
 64:   1049.38   0.004344   21.95  0.001292  (-0.007066 -0.029517  0.019255)
 65:   1060.17   0.000454    2.29  0.000134  ( 0.004855  0.006599  0.008149)
 66:   1071.91   0.009003   45.50  0.002621  ( 0.024271 -0.028422  0.034987)
 67:   1073.78   0.010948   55.33  0.003182  (-0.051521  0.017066  0.015364)
 68:   1087.66   0.008173   41.30  0.002345  ( 0.020063  0.027926 -0.034097)
 69:   1114.61   0.005763   29.12  0.001613  ( 0.004179  0.009076 -0.038904)
 70:   1130.95   0.011645   58.85  0.003213  (-0.038680 -0.006694 -0.040895)
 71:   1156.24   0.046373  234.35  0.012516  ( 0.031691  0.104412 -0.024689)
 72:   1170.59   0.000226    1.14  0.000060  ( 0.001421 -0.004999 -0.005773)
 73:   1171.49   0.000104    0.52  0.000028  ( 0.000712 -0.004956 -0.001605)
 74:   1173.34   0.005337   26.97  0.001419  (-0.002120 -0.020061 -0.031819)
 75:   1177.82   0.001283    6.48  0.000340  ( 0.012851 -0.007051  0.011180)
 76:   1195.66   0.002917   14.74  0.000761  ( 0.000872  0.026681 -0.006968)
 77:   1201.43   0.033622  169.91  0.008733  ( 0.059834  0.070370  0.014177)
 78:   1204.48   0.001110    5.61  0.000288  ( 0.013267 -0.009669  0.004253)
 79:   1214.34   0.005300   26.78  0.001362  (-0.002811 -0.035684  0.008989)
 80:   1216.53   0.005005   25.29  0.001284  ( 0.020774 -0.029180  0.000895)
 81:   1232.29   0.052596  265.80  0.013319  (-0.068221 -0.081676 -0.044657)
 82:   1256.55   0.103351  522.30  0.025667  ( 0.108937  0.115271  0.022640)
 83:   1294.11   0.061680  311.71  0.014874  (-0.030158 -0.103745  0.056579)
 84:   1298.87   0.038411  194.11  0.009229  (-0.003419  0.015452 -0.094753)
 85:   1305.79   0.012526   63.30  0.002993  (-0.003882  0.023659 -0.049180)
 86:   1328.51   0.004932   24.93  0.001159  ( 0.026578 -0.002652 -0.021100)
 87:   1354.61   0.033858  171.10  0.007800  (-0.039738  0.034604  0.070875)
 88:   1367.82   0.041653  210.50  0.009503  (-0.015757 -0.057890 -0.076834)
 89:   1376.86   0.048180  243.48  0.010920  ( 0.041583  0.065493  0.070009)
 90:   1387.63   0.016531   83.54  0.003718  (-0.006909 -0.017808  0.057904)
 91:   1412.07   0.061267  309.62  0.013540  ( 0.062697 -0.081056 -0.055126)
 92:   1446.00   0.033719  170.40  0.007277  (-0.017296  0.083530 -0.000840)
 93:   1464.85   0.003189   16.12  0.000679  ( 0.014514 -0.015195  0.015421)
 94:   1465.58   0.034797  175.85  0.007409  ( 0.006545  0.040196  0.075834)
 95:   1469.02   0.089384  451.71  0.018988  ( 0.030339  0.000832 -0.134413)
 96:   1470.90   0.013209   66.75  0.002802  (-0.021878 -0.014547 -0.045958)
 97:   1473.87   0.002323   11.74  0.000492  ( 0.002667  0.017598  0.013231)
 98:   1474.40   0.049240  248.84  0.010422  (-0.020676 -0.073568 -0.067691)
 99:   1483.86   0.004624   23.37  0.000972  ( 0.015699  0.015489 -0.022044)
100:   1497.78   0.014010   70.80  0.002919  (-0.004671 -0.029803  0.044823)
101:   1505.61   0.006065   30.65  0.001257  (-0.008536 -0.023317  0.025308)
102:   1511.10   0.001298    6.56  0.000268  ( 0.010244  0.009035  0.009031)
103:   1537.95   0.031929  161.36  0.006479  (-0.027550 -0.042643  0.062460)
104:   1606.53   0.013351   67.47  0.002593  (-0.015661  0.015599  0.045877)
105:   1646.52   0.005262   26.59  0.000997  (-0.010858  0.019042 -0.022733)
106:   1662.92   0.009554   48.28  0.001793  ( 0.014824  0.021288 -0.033466)
107:   1680.15   0.026812  135.50  0.004980  ( 0.067300  0.018859 -0.009743)
108:   1795.25   0.087068  440.00  0.015135  ( 0.079676 -0.041205  0.084194)
109:   3038.39   0.012443   62.88  0.001278  (-0.017837  0.020086 -0.023587)
110:   3075.82   0.004936   24.94  0.000501  ( 0.012232  0.017378 -0.007009)
111:   3110.23   0.007401   37.40  0.000743  (-0.004281 -0.022019 -0.015473)
112:   3140.36   0.003414   17.25  0.000339  ( 0.003156 -0.014909  0.010342)
113:   3157.47   0.000697    3.52  0.000069  ( 0.003045  0.007121 -0.002992)
114:   3161.74   0.003012   15.22  0.000297  (-0.007277  0.011784  0.010267)
115:   3166.44   0.003743   18.91  0.000369  (-0.012997 -0.006465  0.012575)
116:   3194.74   0.000510    2.58  0.000050  ( 0.006739 -0.001680  0.001271)
117:   3195.75   0.001667    8.42  0.000163  (-0.010368 -0.000804 -0.007388)
118:   3209.54   0.002582   13.05  0.000251  (-0.013305 -0.002006  0.008366)
119:   3212.45   0.000738    3.73  0.000072  ( 0.006802  0.004272  0.002677)
120:   3223.69   0.001694    8.56  0.000164  ( 0.001315 -0.011267 -0.005940)
121:   3223.82   0.004292   21.69  0.000415  ( 0.002183  0.019756 -0.004510)
122:   3233.40   0.000389    1.96  0.000038  (-0.004679  0.002421 -0.003123)
123:   3234.38   0.000728    3.68  0.000070  ( 0.007548  0.002121  0.002962)
124:   3236.19   0.000618    3.13  0.000060  (-0.001368 -0.007481  0.001336)
125:   3248.91   0.000097    0.49  0.000009  (-0.000004 -0.000447 -0.003013)

* The epsilon (eps) is given for a Dirac delta lineshape.
** The dipole moment derivative (T) already includes vibrational overlap.

The first frequency considered to be a vibration is 7
The total number of vibrations considered is 119


--------------------------
THERMOCHEMISTRY AT 298.15K
--------------------------

Temperature         ... 298.15 K
Pressure            ... 1.00 atm
Total Mass          ... 348.33 AMU

Throughout the following assumptions are being made:
  (1) The electronic state is orbitally nondegenerate
  (2) There are no thermally accessible electronically excited states
  (3) Hindered rotations indicated by low frequency modes are not
      treated as such but are treated as vibrations and this may
      cause some error
  (4) All equations used are the standard statistical mechanics
      equations for an ideal gas
  (5) All vibrations are strictly harmonic

freq.      19.46  E(vib)   ...       0.57 
freq.      25.17  E(vib)   ...       0.56 
freq.      49.49  E(vib)   ...       0.52 
freq.      58.84  E(vib)   ...       0.51 
freq.      81.07  E(vib)   ...       0.48 
freq.      89.71  E(vib)   ...       0.47 
freq.      93.24  E(vib)   ...       0.47 
freq.      97.80  E(vib)   ...       0.46 
freq.     110.52  E(vib)   ...       0.45 
freq.     124.57  E(vib)   ...       0.43 
freq.     141.26  E(vib)   ...       0.41 
freq.     145.50  E(vib)   ...       0.41 
freq.     174.86  E(vib)   ...       0.38 
freq.     192.96  E(vib)   ...       0.36 
freq.     208.43  E(vib)   ...       0.34 
freq.     225.34  E(vib)   ...       0.33 
freq.     240.40  E(vib)   ...       0.31 
freq.     257.05  E(vib)   ...       0.30 
freq.     271.45  E(vib)   ...       0.29 
freq.     288.75  E(vib)   ...       0.27 
freq.     304.77  E(vib)   ...       0.26 
freq.     315.32  E(vib)   ...       0.25 
freq.     320.84  E(vib)   ...       0.25 
freq.     362.82  E(vib)   ...       0.22 
freq.     382.57  E(vib)   ...       0.21 
freq.     440.84  E(vib)   ...       0.17 
freq.     461.15  E(vib)   ...       0.16 
freq.     486.93  E(vib)   ...       0.15 
freq.     510.60  E(vib)   ...       0.14 
freq.     547.63  E(vib)   ...       0.12 
freq.     577.74  E(vib)   ...       0.11 
freq.     582.66  E(vib)   ...       0.11 
freq.     588.71  E(vib)   ...       0.10 
freq.     614.47  E(vib)   ...       0.10 
freq.     635.57  E(vib)   ...       0.09 
freq.     652.35  E(vib)   ...       0.08 
freq.     709.27  E(vib)   ...       0.07 
freq.     719.14  E(vib)   ...       0.07 
freq.     733.98  E(vib)   ...       0.06 
freq.     753.79  E(vib)   ...       0.06 
freq.     764.47  E(vib)   ...       0.06 
freq.     769.43  E(vib)   ...       0.06 
freq.     780.84  E(vib)   ...       0.05 
freq.     805.20  E(vib)   ...       0.05 
freq.     826.58  E(vib)   ...       0.04 
freq.     843.46  E(vib)   ...       0.04 
freq.     859.95  E(vib)   ...       0.04 
freq.     868.49  E(vib)   ...       0.04 
freq.     877.70  E(vib)   ...       0.04 
freq.     913.22  E(vib)   ...       0.03 
freq.     941.66  E(vib)   ...       0.03 
freq.     965.88  E(vib)   ...       0.03 
freq.     976.19  E(vib)   ...       0.03 
freq.     983.63  E(vib)   ...       0.02 
freq.     995.57  E(vib)   ...       0.02 
freq.    1000.87  E(vib)   ...       0.02 
freq.    1019.78  E(vib)   ...       0.02 
freq.    1049.38  E(vib)   ...       0.02 
freq.    1060.17  E(vib)   ...       0.02 
freq.    1071.91  E(vib)   ...       0.02 
freq.    1073.78  E(vib)   ...       0.02 
freq.    1087.66  E(vib)   ...       0.02 
freq.    1114.61  E(vib)   ...       0.01 
freq.    1130.95  E(vib)   ...       0.01 
freq.    1156.24  E(vib)   ...       0.01 
freq.    1170.59  E(vib)   ...       0.01 
freq.    1171.49  E(vib)   ...       0.01 
freq.    1173.34  E(vib)   ...       0.01 
freq.    1177.82  E(vib)   ...       0.01 
freq.    1195.66  E(vib)   ...       0.01 
freq.    1201.43  E(vib)   ...       0.01 
freq.    1204.48  E(vib)   ...       0.01 
freq.    1214.34  E(vib)   ...       0.01 
freq.    1216.53  E(vib)   ...       0.01 
freq.    1232.29  E(vib)   ...       0.01 
freq.    1256.55  E(vib)   ...       0.01 
freq.    1294.11  E(vib)   ...       0.01 
freq.    1298.87  E(vib)   ...       0.01 
freq.    1305.79  E(vib)   ...       0.01 
freq.    1328.51  E(vib)   ...       0.01 
freq.    1354.61  E(vib)   ...       0.01 
freq.    1367.82  E(vib)   ...       0.01 
freq.    1376.86  E(vib)   ...       0.01 
freq.    1387.63  E(vib)   ...       0.00 
freq.    1412.07  E(vib)   ...       0.00 
freq.    1446.00  E(vib)   ...       0.00 
freq.    1464.85  E(vib)   ...       0.00 
freq.    1465.58  E(vib)   ...       0.00 
freq.    1469.02  E(vib)   ...       0.00 
freq.    1470.90  E(vib)   ...       0.00 
freq.    1473.87  E(vib)   ...       0.00 
freq.    1474.40  E(vib)   ...       0.00 
freq.    1483.86  E(vib)   ...       0.00 
freq.    1497.78  E(vib)   ...       0.00 
freq.    1505.61  E(vib)   ...       0.00 
freq.    1511.10  E(vib)   ...       0.00 
freq.    1537.95  E(vib)   ...       0.00 
freq.    1606.53  E(vib)   ...       0.00 
freq.    1646.52  E(vib)   ...       0.00 
freq.    1662.92  E(vib)   ...       0.00 
freq.    1680.15  E(vib)   ...       0.00 
freq.    1795.25  E(vib)   ...       0.00 
freq.    3038.39  E(vib)   ...       0.00 
freq.    3075.82  E(vib)   ...       0.00 
freq.    3110.23  E(vib)   ...       0.00 
freq.    3140.36  E(vib)   ...       0.00 
freq.    3157.47  E(vib)   ...       0.00 
freq.    3161.74  E(vib)   ...       0.00 
freq.    3166.44  E(vib)   ...       0.00 
freq.    3194.74  E(vib)   ...       0.00 
freq.    3195.75  E(vib)   ...       0.00 
freq.    3209.54  E(vib)   ...       0.00 
freq.    3212.45  E(vib)   ...       0.00 
freq.    3223.69  E(vib)   ...       0.00 
freq.    3223.82  E(vib)   ...       0.00 
freq.    3233.40  E(vib)   ...       0.00 
freq.    3234.38  E(vib)   ...       0.00 
freq.    3236.19  E(vib)   ...       0.00 
freq.    3248.91  E(vib)   ...       0.00 

------------
INNER ENERGY
------------

The inner energy is: U= E(el) + E(ZPE) + E(vib) + E(rot) + E(trans)
    E(el)   - is the total energy from the electronic structure calculation
              = E(kin-el) + E(nuc-el) + E(el-el) + E(nuc-nuc)
    E(ZPE)  - the the zero temperature vibrational energy from the frequency calculation
    E(vib)  - the the finite temperature correction to E(ZPE) due to population
              of excited vibrational states
    E(rot)  - is the rotational thermal energy
    E(trans)- is the translational thermal energy

Summary of contributions to the inner energy U:
Electronic energy                ...  -1242.52319538 Eh
Zero point energy                ...      0.32607660 Eh     204.62 kcal/mol
Thermal vibrational correction   ...      0.01920922 Eh      12.05 kcal/mol
Thermal rotational correction    ...      0.00141627 Eh       0.89 kcal/mol
Thermal translational correction ...      0.00141627 Eh       0.89 kcal/mol
-----------------------------------------------------------------------
Total thermal energy                  -1242.17507702 Eh


Summary of corrections to the electronic energy:
(perhaps to be used in another calculation)
Total thermal correction                  0.02204176 Eh      13.83 kcal/mol
Non-thermal (ZPE) correction              0.32607660 Eh     204.62 kcal/mol
-----------------------------------------------------------------------
Total correction                          0.34811836 Eh     218.45 kcal/mol


--------
ENTHALPY
--------

The enthalpy is H = U + kB*T
                kB is Boltzmann's constant
Total free energy                 ...  -1242.17507702 Eh 
Thermal Enthalpy correction       ...      0.00094421 Eh       0.59 kcal/mol
-----------------------------------------------------------------------
Total Enthalpy                    ...  -1242.17413281 Eh


Note: Only C1 symmetry has been detected, increase convergence thresholds 
      if your molecule has a higher symmetry. Symmetry factor of 1.0 is   
      used for the rotational entropy correction. 
 

Note: Rotational entropy computed according to Herzberg 
Infrared and Raman Spectra, Chapter V,1, Van Nostrand Reinhold, 1945 
Point Group:  C1, Symmetry Number:   1  
Rotational constants in cm-1:     0.010727     0.006560     0.005695 

Vibrational entropy computed according to the QRRHO of S. Grimme
Chem.Eur.J. 2012 18 9955


-------
ENTROPY
-------

The entropy contributions are T*S = T*(S(el)+S(vib)+S(rot)+S(trans))
     S(el)   - electronic entropy
     S(vib)  - vibrational entropy
     S(rot)  - rotational entropy
     S(trans)- translational entropy
The entropies will be listed as multiplied by the temperature to get
units of energy

Electronic entropy                ...      0.00000000 Eh      0.00 kcal/mol
Vibrational entropy               ...      0.03449322 Eh     21.64 kcal/mol
Rotational entropy                ...      0.01646459 Eh     10.33 kcal/mol
Translational entropy             ...      0.02063872 Eh     12.95 kcal/mol
-----------------------------------------------------------------------
Final entropy term                ...      0.07159653 Eh     44.93 kcal/mol

In case the symmetry of your molecule has not been determined correctly
or in case you have a reason to use a different symmetry number we print 
out the resulting rotational entropy values for sn=1,12 :
 --------------------------------------------------------
|  sn= 1 | S(rot)=       0.01646459 Eh     10.33 kcal/mol|
|  sn= 2 | S(rot)=       0.01581014 Eh      9.92 kcal/mol|
|  sn= 3 | S(rot)=       0.01542730 Eh      9.68 kcal/mol|
|  sn= 4 | S(rot)=       0.01515568 Eh      9.51 kcal/mol|
|  sn= 5 | S(rot)=       0.01494499 Eh      9.38 kcal/mol|
|  sn= 6 | S(rot)=       0.01477285 Eh      9.27 kcal/mol|
|  sn= 7 | S(rot)=       0.01462730 Eh      9.18 kcal/mol|
|  sn= 8 | S(rot)=       0.01450122 Eh      9.10 kcal/mol|
|  sn= 9 | S(rot)=       0.01439002 Eh      9.03 kcal/mol|
|  sn=10 | S(rot)=       0.01429054 Eh      8.97 kcal/mol|
|  sn=11 | S(rot)=       0.01420055 Eh      8.91 kcal/mol|
|  sn=12 | S(rot)=       0.01411839 Eh      8.86 kcal/mol|
 --------------------------------------------------------


-------------------
GIBBS FREE ENERGY
-------------------

The Gibbs free energy is G = H - T*S

Total enthalpy                    ...  -1242.17413281 Eh 
Total entropy correction          ...     -0.07159653 Eh    -44.93 kcal/mol
-----------------------------------------------------------------------
Final Gibbs free energy         ...  -1242.24572935 Eh

For completeness - the Gibbs free energy minus the electronic energy
G-E(el)                           ...      0.27746603 Eh    174.11 kcal/mol


Timings for individual modules:

Sum of individual times         ...     8018.388 sec (= 133.640 min)
GTO integral calculation        ...       88.722 sec (=   1.479 min)   1.1 %
SCF iterations                  ...     4207.938 sec (=  70.132 min)  52.5 %
SCF Gradient evaluation         ...     1067.016 sec (=  17.784 min)  13.3 %
Geometry relaxation             ...        5.472 sec (=   0.091 min)   0.1 %
Analytical frequency calculation...     2649.241 sec (=  44.154 min)  33.0 %
                             ****ORCA TERMINATED NORMALLY****
TOTAL RUN TIME: 0 days 2 hours 15 minutes 10 seconds 990 msec
