
                                 *****************
                                 * O   R   C   A *
                                 *****************

                                            #,                                       
                                            ###                                      
                                            ####                                     
                                            #####                                    
                                            ######                                   
                                           ########,                                 
                                     ,,################,,,,,                         
                               ,,#################################,,                 
                          ,,##########################################,,             
                       ,#########################################, ''#####,          
                    ,#############################################,,   '####,        
                  ,##################################################,,,,####,       
                ,###########''''           ''''###############################       
              ,#####''   ,,,,##########,,,,          '''####'''          '####       
            ,##' ,,,,###########################,,,                        '##       
           ' ,,###''''                  '''############,,,                           
         ,,##''                                '''############,,,,        ,,,,,,###''
      ,#''                                            '''#######################'''  
     '                                                          ''''####''''         
             ,#######,   #######,   ,#######,      ##                                
            ,#'     '#,  ##    ##  ,#'     '#,    #''#        ######   ,####,        
            ##       ##  ##   ,#'  ##            #'  '#       #        #'  '#        
            ##       ##  #######   ##           ,######,      #####,   #    #        
            '#,     ,#'  ##    ##  '#,     ,#' ,#      #,         ##   #,  ,#        
             '#######'   ##     ##  '#######'  #'      '#     #####' # '####'        



                  #######################################################
                  #                        -***-                        #
                  #          Department of theory and spectroscopy      #
                  #    Directorship and core code : Frank Neese         #
                  #        Max Planck Institute fuer Kohlenforschung    #
                  #                Kaiser Wilhelm Platz 1               #
                  #                 D-45470 Muelheim/Ruhr               #
                  #                      Germany                        #
                  #                                                     #
                  #                  All rights reserved                #
                  #                        -***-                        #
                  #######################################################


                         Program Version 5.0.4 -  RELEASE  -


 With contributions from (in alphabetic order):
   Daniel Aravena         : Magnetic Suceptibility
   Michael Atanasov       : Ab Initio Ligand Field Theory (pilot matlab implementation)
   Alexander A. Auer      : GIAO ZORA, VPT2 properties, NMR spectrum
   Ute Becker             : Parallelization
   Giovanni Bistoni       : ED, misc. LED, open-shell LED, HFLD
   Martin Brehm           : Molecular dynamics
   Dmytro Bykov           : SCF Hessian
   Vijay G. Chilkuri      : MRCI spin determinant printing, contributions to CSF-ICE
   Dipayan Datta          : RHF DLPNO-CCSD density
   Achintya Kumar Dutta   : EOM-CC, STEOM-CC
   Dmitry Ganyushin       : Spin-Orbit,Spin-Spin,Magnetic field MRCI
   Miquel Garcia          : C-PCM and meta-GGA Hessian, CC/C-PCM, Gaussian charge scheme
   Yang Guo               : DLPNO-NEVPT2, F12-NEVPT2, CIM, IAO-localization
   Andreas Hansen         : Spin unrestricted coupled pair/coupled cluster methods
   Benjamin Helmich-Paris : MC-RPA, TRAH-SCF, COSX integrals
   Lee Huntington         : MR-EOM, pCC
   Robert Izsak           : Overlap fitted RIJCOSX, COSX-SCS-MP3, EOM
   Marcus Kettner         : VPT2
   Christian Kollmar      : KDIIS, OOCD, Brueckner-CCSD(T), CCSD density, CASPT2, CASPT2-K
   Simone Kossmann        : Meta GGA functionals, TD-DFT gradient, OOMP2, MP2 Hessian
   Martin Krupicka        : Initial AUTO-CI
   Lucas Lang             : DCDCAS
   Marvin Lechner         : AUTO-CI (C++ implementation), FIC-MRCC
   Dagmar Lenk            : GEPOL surface, SMD
   Dimitrios Liakos       : Extrapolation schemes; Compound Job, initial MDCI parallelization
   Dimitrios Manganas     : Further ROCIS development; embedding schemes
   Dimitrios Pantazis     : SARC Basis sets
   Anastasios Papadopoulos: AUTO-CI, single reference methods and gradients
   Taras Petrenko         : DFT Hessian,TD-DFT gradient, ASA, ECA, R-Raman, ABS, FL, XAS/XES, NRVS
   Peter Pinski           : DLPNO-MP2, DLPNO-MP2 Gradient
   Christoph Reimann      : Effective Core Potentials
   Marius Retegan         : Local ZFS, SOC
   Christoph Riplinger    : Optimizer, TS searches, QM/MM, DLPNO-CCSD(T), (RO)-DLPNO pert. Triples
   Tobias Risthaus        : Range-separated hybrids, TD-DFT gradient, RPA, STAB
   Michael Roemelt        : Original ROCIS implementation
   Masaaki Saitow         : Open-shell DLPNO-CCSD energy and density
   Barbara Sandhoefer     : DKH picture change effects
   Avijit Sen             : IP-ROCIS
   Kantharuban Sivalingam : CASSCF convergence, NEVPT2, FIC-MRCI
   Bernardo de Souza      : ESD, SOC TD-DFT
   Georgi Stoychev        : AutoAux, RI-MP2 NMR, DLPNO-MP2 response
   Willem Van den Heuvel  : Paramagnetic NMR
   Boris Wezisla          : Elementary symmetry handling
   Frank Wennmohs         : Technical directorship


 We gratefully acknowledge several colleagues who have allowed us to
 interface, adapt or use parts of their codes:
   Stefan Grimme, W. Hujo, H. Kruse, P. Pracht,  : VdW corrections, initial TS optimization,
                  C. Bannwarth, S. Ehlert          DFT functionals, gCP, sTDA/sTD-DF
   Ed Valeev, F. Pavosevic, A. Kumar             : LibInt (2-el integral package), F12 methods
   Garnet Chan, S. Sharma, J. Yang, R. Olivares  : DMRG
   Ulf Ekstrom                                   : XCFun DFT Library
   Mihaly Kallay                                 : mrcc  (arbitrary order and MRCC methods)
   Jiri Pittner, Ondrej Demel                    : Mk-CCSD
   Frank Weinhold                                : gennbo (NPA and NBO analysis)
   Christopher J. Cramer and Donald G. Truhlar   : smd solvation model
   Lars Goerigk                                  : TD-DFT with DH, B97 family of functionals
   V. Asgeirsson, H. Jonsson                     : NEB implementation
   FAccTs GmbH                                   : IRC, NEB, NEB-TS, DLPNO-Multilevel, CI-OPT
                                                   MM, QMMM, 2- and 3-layer-ONIOM, Crystal-QMMM,
                                                   LR-CPCM, SF, NACMEs, symmetry and pop. for TD-DFT,
                                                   nearIR, NL-DFT gradient (VV10), updates on ESD,
                                                   ML-optimized integration grids
   S Lehtola, MJT Oliveira, MAL Marques          : LibXC Library
   Liviu Ungur et al                             : ANISO software


 Your calculation uses the libint2 library for the computation of 2-el integrals
 For citations please refer to: http://libint.valeyev.net

 Your ORCA version has been built with support for libXC version: 5.1.0
 For citations please refer to: https://tddft.org/programs/libxc/

 This ORCA versions uses:
   CBLAS   interface :  Fast vector & matrix operations
   LAPACKE interface :  Fast linear algebra routines
   SCALAPACK package :  Parallel linear algebra routines
   Shared memory     :  Shared parallel matrices
   BLAS/LAPACK       :  OpenBLAS 0.3.15  USE64BITINT DYNAMIC_ARCH NO_AFFINITY Haswell SINGLE_THREADED
        Core in use  :  Haswell
   Copyright (c) 2011-2014, The OpenBLAS Project


Your calculation utilizes the atom-pairwise dispersion correction
with the Becke-Johnson damping scheme (D3BJ)
Cite in your paper:
S.Grimme, S.Ehrlich, L.Goerigk, J Comput Chem, (2011), 32, 1456–1465 
S.Grimme, J.Antony, S.Ehrlich and H.Krieg, J.Chem.Phys., 132, (2010), 154104 
   

================================================================================

----- Orbital basis set information -----
Your calculation utilizes the basis: def2-TZVP
   F. Weigend and R. Ahlrichs, Phys. Chem. Chem. Phys. 7, 3297 (2005).

----- AuxJ basis set information -----
Your calculation utilizes the auxiliary basis: def2/J
   F. Weigend, Phys. Chem. Chem. Phys. 8, 1057 (2006).

================================================================================
                                        WARNINGS
                       Please study these warnings very carefully!
================================================================================


WARNING: Geometry Optimization
  ===> : Switching off AutoStart
         For restart on a previous wavefunction, please use MOREAD

INFO   : the flag for use of the SHARK integral package has been found!

================================================================================
                                       INPUT FILE
================================================================================
NAME = TS1_CCH/TS1_CCH.inp
|  1> %pal nprocs 24 end
|  2> %maxcore 3500
|  3> ! PBE0 D3BJ def2-TZVP TightSCF OPTTS FREQ TightOpt
|  4> ! CPCM(dmso)
|  5> %scf
|  6> MaxIter 800
|  7> end
|  8> %geom
|  9> MaxIter 800
| 10> MaxStep 0.2
| 11> end
| 12> *xyz 0 1
| 13> 
| 14> C       4.19265700      0.61538100      0.38445700
| 15> C       3.99438900      1.25723700     -0.86318800
| 16> C       2.72379300      1.41478000     -1.31019700
| 17> N       1.66411000      1.02411600     -0.56325400
| 18> C       1.80346800      0.36377700      0.64128200
| 19> C       3.13352200      0.20214200      1.13163700
| 20> C       0.33422300      0.92912600     -1.09759100
| 21> C      -0.52793300      2.07132900     -0.58328500
| 22> O      -0.14382700      2.93618300      0.16079700
| 23> O      -1.71705200      2.04398900     -1.16024000
| 24> C      -2.63232500      3.07333900     -0.77401000
| 25> H       5.19986100      0.48774400      0.76444500
| 26> H       2.47978400      1.85583600     -2.26807900
| 27> H       1.00420600      0.54152800      1.35281300
| 28> H       3.26738900     -0.23881500      2.11030000
| 29> H       0.38623100      1.07943200     -2.17731500
| 30> H      -2.22913400      4.05302300     -1.02987500
| 31> H      -2.82305200      3.02142300      0.29801500
| 32> C       0.82984500     -1.27878300      0.06693100
| 33> C      -0.15923000     -0.56753000     -0.84697400
| 34> C      -1.59660700     -0.77135400     -0.45489200
| 35> C      -2.41366400     -1.53888200     -1.27035400
| 36> C      -3.73788600     -1.79878600     -0.93950100
| 37> C      -4.25444600     -1.27936100      0.23458500
| 38> C      -3.46083800     -0.50363000      1.07079500
| 39> C      -2.14039200     -0.24981000      0.72584600
| 40> O      -1.30603800      0.51185200      1.46232400
| 41> C      -1.76945700      1.04336600      2.68772000
| 42> N       1.88106200     -1.94458800     -0.61698300
| 43> O       2.12060500     -1.61471600     -1.77967100
| 44> H      -0.04268600     -1.04107800     -1.82027900
| 45> H      -1.99812000     -1.94412100     -2.18716500
| 46> H      -4.35420500     -2.40225600     -1.59485800
| 47> H      -5.28471400     -1.47157600      0.51203900
| 48> H      -3.87672000     -0.10062600      1.98433700
| 49> H      -2.04147500      0.24266600      3.38091900
| 50> H      -2.62817200      1.70182500      2.53258000
| 51> H      -0.94110900      1.61709000      3.09814100
| 52> O       2.58898400     -2.73475700      0.00377800
| 53> H      -3.54451100      2.87840500     -1.33131800
| 54> H       4.82397800      1.60678100     -1.46031700
| 55> C       0.40408400     -1.94958200      1.24141600
| 56> C       0.04948200     -2.46637700      2.26940400
| 57> H      -0.27803500     -2.93624600      3.16940300
| 58> *
| 59> 
| 60>                          ****END OF INPUT****
================================================================================

                       *****************************
                       * Geometry Optimization Run *
                       *****************************

Geometry optimization settings:
Update method            Update   .... Bofill
Choice of coordinates    CoordSys .... Z-matrix Internals
Initial Hessian          InHess   .... Almoef's Model

Convergence Tolerances:
Energy Change            TolE     ....  1.0000e-06 Eh
Max. Gradient            TolMAXG  ....  1.0000e-04 Eh/bohr
RMS Gradient             TolRMSG  ....  3.0000e-05 Eh/bohr
Max. Displacement        TolMAXD  ....  1.0000e-03 bohr
RMS Displacement         TolRMSD  ....  6.0000e-04 bohr
Strict Convergence                ....  False
------------------------------------------------------------------------------
                        ORCA OPTIMIZATION COORDINATE SETUP
------------------------------------------------------------------------------

The optimization will be done in new redundant internal coordinates
Making redundant internal coordinates   ...  (new redundants) done
Following TS mode number                ...     0
Evaluating the initial hessian          ...  (Almloef) done
Evaluating the coordinates              ...  done
Calculating the B-matrix                .... done
Calculating the G-matrix                .... done
Diagonalizing the G-matrix              .... done
Small eigenvalue found = 3.790e-03
Small eigenvalue found = 6.231e-03
Small eigenvalue found = 9.433e-03
Small eigenvalue found = 1.856e-02
Small eigenvalue found = 2.050e-02
Small eigenvalue found = 2.235e-02
Small eigenvalue found = 2.986e-02
The first mode is                       ....  114
The number of degrees of freedom        ....  126

    -----------------------------------------------------------------
                    Redundant Internal Coordinates


    -----------------------------------------------------------------
         Definition                    Initial Value    Approx d2E/dq
    -----------------------------------------------------------------
      1. B(C   1,C   0)                  1.4170         0.565785   
      2. B(C   2,C   1)                  1.3561         0.707617   
      3. B(N   3,C   2)                  1.3541         0.638587   
      4. B(C   4,N   3)                  1.3807         0.579013   
      5. B(C   5,C   4)                  1.4268         0.545890   
      6. B(C   5,C   0)                  1.3604         0.696452   
      7. B(C   6,N   3)                  1.4364         0.471961   
      8. B(C   7,C   6)                  1.5207         0.386594   
      9. B(O   8,C   7)                  1.2038         1.108980   
     10. B(O   9,C   7)                  1.3220         0.718453   
     11. B(C  10,O   9)                  1.4305         0.482157   
     12. B(H  11,C   0)                  1.0840         0.368072   
     13. B(H  12,C   2)                  1.0824         0.370284   
     14. B(H  13,C   4)                  1.0848         0.367107   
     15. B(H  14,C   5)                  1.0817         0.371205   
     16. B(H  15,C   6)                  1.0914         0.358285   
     17. B(H  16,C  10)                  1.0899         0.360276   
     18. B(H  17,C  10)                  1.0901         0.359973   
     19. B(C  18,C   4)                  1.9939         0.067948   
     20. B(C  19,C  18)                  1.5229         0.383378   
     21. B(C  19,C   6)                  1.5957         0.293457   
     22. B(C  20,C  19)                  1.5038         0.411363   
     23. B(C  21,C  20)                  1.3862         0.633488   
     24. B(C  22,C  21)                  1.3895         0.626055   
     25. B(C  23,C  22)                  1.3839         0.639011   
     26. B(C  24,C  23)                  1.3895         0.625855   
     27. B(C  25,C  24)                  1.3882         0.629031   
     28. B(C  25,C  20)                  1.4007         0.600799   
     29. B(O  26,C  25)                  1.3486         0.651559   
     30. B(C  27,O  26)                  1.4138         0.512729   
     31. B(N  28,C  18)                  1.4199         0.501401   
     32. B(O  29,N  28)                  1.2321         0.895265   
     33. B(H  30,C  19)                  1.0886         0.361894   
     34. B(H  31,C  21)                  1.0851         0.366643   
     35. B(H  32,C  22)                  1.0833         0.369086   
     36. B(H  33,C  23)                  1.0841         0.367924   
     37. B(H  34,C  24)                  1.0816         0.371341   
     38. B(H  35,C  27)                  1.0935         0.355561   
     39. B(H  36,C  27)                  1.0932         0.355926   
     40. B(H  37,C  27)                  1.0880         0.362743   
     41. B(O  38,N  28)                  1.2292         0.904904   
     42. B(H  39,C  10)                  1.0866         0.364641   
     43. B(H  40,C   1)                  1.0803         0.373218   
     44. B(C  41,C  18)                  1.4180         0.563771   
     45. B(C  42,C  41)                  1.2040         1.237412   
     46. B(H  43,C  42)                  1.0668         0.392150   
     47. A(C   5,C   0,H  11)          119.6736         0.361293   
     48. A(C   1,C   0,H  11)          119.4702         0.348784   
     49. A(C   1,C   0,C   5)          120.8127         0.436006   
     50. A(C   0,C   1,H  40)          121.7230         0.349601   
     51. A(C   0,C   1,C   2)          118.2908         0.437258   
     52. A(C   2,C   1,H  40)          119.9821         0.363135   
     53. A(C   1,C   2,H  12)          123.3845         0.362646   
     54. A(N   3,C   2,H  12)          115.4238         0.354162   
     55. A(C   1,C   2,N   3)          121.1913         0.443985   
     56. A(C   4,N   3,C   6)          112.7282         0.403185   
     57. A(C   2,N   3,C   6)          122.5785         0.410226   
     58. A(C   2,N   3,C   4)          122.7000         0.425439   
     59. A(H  13,C   4,C  18)           87.9454         0.249700   
     60. A(N   3,C   4,C  18)           95.3593         0.293296   
     61. A(N   3,C   4,H  13)          114.8032         0.347843   
     62. A(C   5,C   4,H  13)          118.6857         0.346534   
     63. A(C   5,C   4,C  18)          117.4432         0.292262   
     64. A(N   3,C   4,C   5)          116.6221         0.416399   
     65. A(C   0,C   5,H  14)          121.6255         0.361816   
     66. A(C   4,C   5,H  14)          118.1958         0.347182   
     67. A(C   0,C   5,C   4)          120.1713         0.433206   
     68. A(C   7,C   6,C  19)          118.4277         0.350786   
     69. A(N   3,C   6,C  19)          106.8529         0.360626   
     70. A(C   7,C   6,H  15)          104.9616         0.325879   
     71. A(N   3,C   6,H  15)          108.3491         0.334783   
     72. A(N   3,C   6,C   7)          110.4530         0.378112   
     73. A(H  15,C   6,C  19)          107.4149         0.311552   
     74. A(C   6,C   7,O   9)          110.2940         0.406959   
     75. A(C   6,C   7,O   8)          124.5949         0.439785   
     76. A(O   8,C   7,O   9)          124.8637         0.489286   
     77. A(C   7,O   9,C  10)          116.2822         0.420509   
     78. A(H  16,C  10,H  39)          110.5741         0.291435   
     79. A(H  16,C  10,H  17)          109.7802         0.290846   
     80. A(O   9,C  10,H  17)          110.0711         0.336237   
     81. A(H  17,C  10,H  39)          110.4243         0.291397   
     82. A(O   9,C  10,H  39)          105.6376         0.336959   
     83. A(O   9,C  10,H  16)          110.2873         0.336284   
     84. A(C  19,C  18,N  28)          114.2532         0.381545   
     85. A(C   4,C  18,N  28)           99.4110         0.286748   
     86. A(C  19,C  18,C  41)          121.5320         0.391905   
     87. A(C   4,C  18,C  41)          107.3213         0.293751   
     88. A(C   4,C  18,C  19)           96.0416         0.276637   
     89. A(N  28,C  18,C  41)          113.5423         0.408226   
     90. A(C  20,C  19,H  30)          106.0500         0.329778   
     91. A(C  18,C  19,H  30)          105.2977         0.325969   
     92. A(C   6,C  19,H  30)          103.5600         0.312058   
     93. A(C  18,C  19,C  20)          113.6413         0.371049   
     94. A(C   6,C  19,C  20)          117.6237         0.354492   
     95. A(C   6,C  19,C  18)          109.3567         0.350292   
     96. A(C  21,C  20,C  25)          118.2440         0.433291   
     97. A(C  19,C  20,C  25)          122.7121         0.401237   
     98. A(C  19,C  20,C  21)          119.0159         0.405004   
     99. A(C  22,C  21,H  31)          119.7560         0.354570   
    100. A(C  20,C  21,H  31)          118.5602         0.355281   
    101. A(C  20,C  21,C  22)          121.6837         0.436515   
    102. A(C  23,C  22,H  32)          120.6627         0.356206   
    103. A(C  21,C  22,H  32)          120.1571         0.354970   
    104. A(C  21,C  22,C  23)          119.1801         0.437198   
    105. A(C  24,C  23,H  33)          119.1905         0.354761   
    106. A(C  22,C  23,H  33)          120.3509         0.356015   
    107. A(C  22,C  23,C  24)          120.4585         0.437173   
    108. A(C  25,C  24,H  34)          120.4967         0.355623   
    109. A(C  23,C  24,H  34)          119.7803         0.355317   
    110. A(C  23,C  24,C  25)          119.7229         0.435935   
    111. A(C  24,C  25,O  26)          123.7847         0.436229   
    112. A(C  20,C  25,O  26)          115.4974         0.432638   
    113. A(C  20,C  25,C  24)          120.7097         0.432741   
    114. A(C  25,O  26,C  27)          118.8729         0.417800   
    115. A(O  26,C  27,H  36)          111.1567         0.339061   
    116. A(O  26,C  27,H  35)          110.8375         0.339003   
    117. A(H  36,C  27,H  37)          109.5097         0.290641   
    118. A(H  35,C  27,H  37)          109.6573         0.290594   
    119. A(O  26,C  27,H  37)          106.0001         0.340137   
    120. A(H  35,C  27,H  36)          109.6106         0.289730   
    121. A(C  18,N  28,O  29)          118.2247         0.437586   
    122. A(O  29,N  28,O  38)          122.4603         0.484081   
    123. A(C  18,N  28,O  38)          118.9849         0.438432   
    124. L(C  18,C  41,C  42,C   4, 2) 178.6353         0.483899   
    125. L(C  18,C  41,C  42,C   4, 1) 177.2371         0.483899   
    126. L(C  41,C  42,H  43, 2)       180.9651         0.403604   
    127. L(C  41,C  42,H  43, 1)       179.1218         0.403604   
    128. D(H  40,C   1,C   0,H  11)      1.3165         0.021945   
    129. D(C   2,C   1,C   0,H  11)   -179.4262         0.021945   
    130. D(H  40,C   1,C   0,C   5)    178.9093         0.021945   
    131. D(C   2,C   1,C   0,C   5)     -1.8334         0.021945   
    132. D(H  12,C   2,C   1,H  40)      1.8614         0.035331   
    133. D(N   3,C   2,C   1,C   0)      2.8339         0.035331   
    134. D(H  12,C   2,C   1,C   0)   -177.4093         0.035331   
    135. D(N   3,C   2,C   1,H  40)   -177.8954         0.035331   
    136. D(C   6,N   3,C   2,C   1)   -167.4279         0.033179   
    137. D(C   6,N   3,C   2,H  12)     12.7970         0.033179   
    138. D(C   4,N   3,C   2,C   1)     -4.6651         0.033179   
    139. D(C   4,N   3,C   2,H  12)    175.5597         0.033179   
    140. D(H  13,C   4,N   3,C   2)    150.4552         0.029215   
    141. D(C   5,C   4,N   3,C   2)      5.0555         0.029215   
    142. D(C   5,C   4,N   3,C   6)    169.3481         0.029215   
    143. D(C  18,C   4,N   3,C   6)     44.9589         0.029215   
    144. D(C  18,C   4,N   3,C   2)   -119.3336         0.029215   
    145. D(H  13,C   4,N   3,C   6)    -45.2522         0.029215   
    146. D(H  14,C   5,C   4,C  18)    -72.7051         0.022109   
    147. D(H  14,C   5,C   4,H  13)     31.0691         0.022109   
    148. D(C   0,C   5,C   4,C  18)    108.2710         0.022109   
    149. D(H  14,C   5,C   4,N   3)    175.0835         0.022109   
    150. D(H  14,C   5,C   0,H  11)      1.0713         0.034133   
    151. D(C   0,C   5,C   4,N   3)     -3.9404         0.022109   
    152. D(C   0,C   5,C   4,H  13)   -147.9548         0.022109   
    153. D(H  14,C   5,C   0,C   1)   -176.5166         0.034133   
    154. D(C   4,C   5,C   0,H  11)   -179.9390         0.034133   
    155. D(C   4,C   5,C   0,C   1)      2.4730         0.034133   
    156. D(C   7,C   6,N   3,C   4)     89.0975         0.019035   
    157. D(C   7,C   6,N   3,C   2)   -106.5880         0.019035   
    158. D(H  15,C   6,N   3,C   2)      7.8682         0.019035   
    159. D(C  19,C   6,N   3,C   4)    -40.9823         0.019035   
    160. D(C  19,C   6,N   3,C   2)    123.3321         0.019035   
    161. D(H  15,C   6,N   3,C   4)   -156.4462         0.019035   
    162. D(O   9,C   7,C   6,C  19)    -61.4566         0.011130   
    163. D(O   9,C   7,C   6,N   3)    174.9198         0.011130   
    164. D(O   9,C   7,C   6,H  15)     58.3402         0.011130   
    165. D(O   8,C   7,C   6,C  19)    124.0309         0.011130   
    166. D(O   8,C   7,C   6,H  15)   -116.1722         0.011130   
    167. D(O   8,C   7,C   6,N   3)      0.4074         0.011130   
    168. D(C  10,O   9,C   7,O   8)     -5.0894         0.038853   
    169. D(C  10,O   9,C   7,C   6)   -179.5839         0.038853   
    170. D(H  39,C  10,O   9,C   7)   -179.0806         0.018343   
    171. D(H  17,C  10,O   9,C   7)    -59.8656         0.018343   
    172. D(H  16,C  10,O   9,C   7)     61.4122         0.018343   
    173. D(C  41,C  18,C   4,H  13)    -44.8521         0.001775   
    174. D(C  41,C  18,C   4,C   5)     76.6538         0.001775   
    175. D(C  41,C  18,C   4,N   3)   -159.5763         0.001775   
    176. D(N  28,C  18,C   4,C   5)    -41.7576         0.001775   
    177. D(N  28,C  18,C   4,N   3)     82.0123         0.001775   
    178. D(C  19,C  18,C   4,H  13)     80.8722         0.001775   
    179. D(N  28,C  18,C   4,H  13)   -163.2636         0.001775   
    180. D(C  19,C  18,C   4,N   3)    -33.8520         0.001775   
    181. D(C  19,C  18,C   4,C   5)   -157.6219         0.001775   
    182. D(H  30,C  19,C   6,C   7)    132.5559         0.007221   
    183. D(H  30,C  19,C   6,N   3)   -102.0523         0.007221   
    184. D(C  20,C  19,C   6,H  15)   -102.5291         0.007221   
    185. D(C  20,C  19,C   6,C   7)     15.9911         0.007221   
    186. D(C  20,C  19,C   6,N   3)    141.3828         0.007221   
    187. D(C  18,C  19,C   6,H  15)    125.8989         0.007221   
    188. D(C  18,C  19,C   6,C   7)   -115.5809         0.007221   
    189. D(H  30,C  19,C   6,H  15)     14.0358         0.007221   
    190. D(C  18,C  19,C   6,N   3)      9.8108         0.007221   
    191. D(H  30,C  19,C  18,C  41)   -121.4462         0.011704   
    192. D(H  30,C  19,C  18,C   4)    123.9592         0.011704   
    193. D(C  20,C  19,C  18,C  41)     -5.8118         0.011704   
    194. D(C  20,C  19,C  18,N  28)    136.4125         0.011704   
    195. D(C  20,C  19,C  18,C   4)   -120.4064         0.011704   
    196. D(C   6,C  19,C  18,C  41)    127.8381         0.011704   
    197. D(H  30,C  19,C  18,N  28)     20.7781         0.011704   
    198. D(C   6,C  19,C  18,N  28)    -89.9376         0.011704   
    199. D(C   6,C  19,C  18,C   4)     13.2435         0.011704   
    200. D(C  25,C  20,C  19,H  30)   -177.4369         0.012530   
    201. D(C  25,C  20,C  19,C  18)     67.3730         0.012530   
    202. D(C  25,C  20,C  19,C   6)    -62.2283         0.012530   
    203. D(C  21,C  20,C  19,H  30)      4.5255         0.012530   
    204. D(C  21,C  20,C  19,C  18)   -110.6646         0.012530   
    205. D(C  21,C  20,C  19,C   6)    119.7341         0.012530   
    206. D(H  31,C  21,C  20,C  25)    179.9005         0.027845   
    207. D(H  31,C  21,C  20,C  19)     -1.9738         0.027845   
    208. D(C  22,C  21,C  20,C  25)     -0.2317         0.027845   
    209. D(C  22,C  21,C  20,C  19)    177.8940         0.027845   
    210. D(H  32,C  22,C  21,H  31)     -0.1061         0.027154   
    211. D(H  32,C  22,C  21,C  20)   -179.9724         0.027154   
    212. D(C  23,C  22,C  21,H  31)    179.8079         0.027154   
    213. D(C  23,C  22,C  21,C  20)     -0.0584         0.027154   
    214. D(H  33,C  23,C  22,H  32)      0.0101         0.028365   
    215. D(H  33,C  23,C  22,C  21)   -179.9034         0.028365   
    216. D(C  24,C  23,C  22,H  32)   -179.8728         0.028365   
    217. D(C  24,C  23,C  22,C  21)      0.2137         0.028365   
    218. D(H  34,C  24,C  23,H  33)     -0.0711         0.027136   
    219. D(H  34,C  24,C  23,C  22)    179.8132         0.027136   
    220. D(C  25,C  24,C  23,H  33)   -179.9570         0.027136   
    221. D(C  25,C  24,C  23,C  22)     -0.0727         0.027136   
    222. D(O  26,C  25,C  24,H  34)     -1.2014         0.027429   
    223. D(O  26,C  25,C  24,C  23)    178.6837         0.027429   
    224. D(C  20,C  25,C  24,H  34)    179.8884         0.027429   
    225. D(C  20,C  25,C  24,C  23)     -0.2264         0.027429   
    226. D(O  26,C  25,C  20,C  21)   -178.6227         0.024887   
    227. D(O  26,C  25,C  20,C  19)      3.3253         0.024887   
    228. D(C  24,C  25,C  20,C  21)      0.3738         0.024887   
    229. D(C  24,C  25,C  20,C  19)   -177.6782         0.024887   
    230. D(C  27,O  26,C  25,C  24)      2.8169         0.031387   
    231. D(C  27,O  26,C  25,C  20)   -178.2212         0.031387   
    232. D(H  37,C  27,O  26,C  25)   -179.7819         0.020820   
    233. D(H  36,C  27,O  26,C  25)    -60.8672         0.020820   
    234. D(H  35,C  27,O  26,C  25)     61.2985         0.020820   
    235. D(O  38,N  28,C  18,C  41)    -22.0969         0.021567   
    236. D(O  38,N  28,C  18,C  19)   -167.3795         0.021567   
    237. D(O  38,N  28,C  18,C   4)     91.5691         0.021567   
    238. D(O  29,N  28,C  18,C  41)    164.3353         0.021567   
    239. D(O  29,N  28,C  18,C  19)     19.0526         0.021567   
    240. D(O  29,N  28,C  18,C   4)    -81.9987         0.021567   
    -----------------------------------------------------------------

Number of atoms                         .... 44
Number of degrees of freedom            .... 240

         *************************************************************
         *                GEOMETRY OPTIMIZATION CYCLE   1            *
         *************************************************************
---------------------------------
CARTESIAN COORDINATES (ANGSTROEM)
---------------------------------
  C      4.192657    0.615381    0.384457
  C      3.994389    1.257237   -0.863188
  C      2.723793    1.414780   -1.310197
  N      1.664110    1.024116   -0.563254
  C      1.803468    0.363777    0.641282
  C      3.133522    0.202142    1.131637
  C      0.334223    0.929126   -1.097591
  C     -0.527933    2.071329   -0.583285
  O     -0.143827    2.936183    0.160797
  O     -1.717052    2.043989   -1.160240
  C     -2.632325    3.073339   -0.774010
  H      5.199861    0.487744    0.764445
  H      2.479784    1.855836   -2.268079
  H      1.004206    0.541528    1.352813
  H      3.267389   -0.238815    2.110300
  H      0.386231    1.079432   -2.177315
  H     -2.229134    4.053023   -1.029875
  H     -2.823052    3.021423    0.298015
  C      0.829845   -1.278783    0.066931
  C     -0.159230   -0.567530   -0.846974
  C     -1.596607   -0.771354   -0.454892
  C     -2.413664   -1.538882   -1.270354
  C     -3.737886   -1.798786   -0.939501
  C     -4.254446   -1.279361    0.234585
  C     -3.460838   -0.503630    1.070795
  C     -2.140392   -0.249810    0.725846
  O     -1.306038    0.511852    1.462324
  C     -1.769457    1.043366    2.687720
  N      1.881062   -1.944588   -0.616983
  O      2.120605   -1.614716   -1.779671
  H     -0.042686   -1.041078   -1.820279
  H     -1.998120   -1.944121   -2.187165
  H     -4.354205   -2.402256   -1.594858
  H     -5.284714   -1.471576    0.512039
  H     -3.876720   -0.100626    1.984337
  H     -2.041475    0.242666    3.380919
  H     -2.628172    1.701825    2.532580
  H     -0.941109    1.617090    3.098141
  O      2.588984   -2.734757    0.003778
  H     -3.544511    2.878405   -1.331318
  H      4.823978    1.606781   -1.460317
  C      0.404084   -1.949582    1.241416
  C      0.049482   -2.466377    2.269404
  H     -0.278035   -2.936246    3.169403

----------------------------
CARTESIAN COORDINATES (A.U.)
----------------------------
  NO LB      ZA    FRAG     MASS         X           Y           Z
   0 C     6.0000    0    12.011    7.922974    1.162902    0.726518
   1 C     6.0000    0    12.011    7.548301    2.375834   -1.631189
   2 C     6.0000    0    12.011    5.147223    2.673547   -2.475914
   3 N     7.0000    0    14.007    3.144712    1.935299   -1.064396
   4 C     6.0000    0    12.011    3.408061    0.687439    1.211847
   5 C     6.0000    0    12.011    5.921498    0.381993    2.138484
   6 C     6.0000    0    12.011    0.631590    1.755794   -2.074146
   7 C     6.0000    0    12.011   -0.997649    3.914245   -1.102249
   8 O     8.0000    0    15.999   -0.271794    5.548582    0.303862
   9 O     8.0000    0    15.999   -3.244758    3.862579   -2.192536
  10 C     6.0000    0    12.011   -4.974373    5.807769   -1.462667
  11 H     1.0000    0     1.008    9.826313    0.921703    1.444592
  12 H     1.0000    0     1.008    4.686113    3.507022   -4.286048
  13 H     1.0000    0     1.008    1.897674    1.023340    2.556446
  14 H     1.0000    0     1.008    6.174470   -0.451295    3.987889
  15 H     1.0000    0     1.008    0.729871    2.039831   -4.114529
  16 H     1.0000    0     1.008   -4.212453    7.659103   -1.946182
  17 H     1.0000    0     1.008   -5.334795    5.709662    0.563167
  18 C     6.0000    0    12.011    1.568180   -2.416550    0.126481
  19 C     6.0000    0    12.011   -0.300901   -1.072476   -1.600549
  20 C     6.0000    0    12.011   -3.017150   -1.457648   -0.859621
  21 C     6.0000    0    12.011   -4.561164   -2.908066   -2.400621
  22 C     6.0000    0    12.011   -7.063581   -3.399213   -1.775400
  23 C     6.0000    0    12.011   -8.039738   -2.417642    0.443301
  24 C     6.0000    0    12.011   -6.540036   -0.951723    2.023509
  25 C     6.0000    0    12.011   -4.044755   -0.472072    1.371650
  26 O     8.0000    0    15.999   -2.468054    0.967260    2.763392
  27 C     6.0000    0    12.011   -3.343789    1.971676    5.079055
  28 N     7.0000    0    14.007    3.554692   -3.674739   -1.165929
  29 O     8.0000    0    15.999    4.007363   -3.051371   -3.363091
  30 H     1.0000    0     1.008   -0.080665   -1.967352   -3.439829
  31 H     1.0000    0     1.008   -3.775900   -3.673856   -4.133143
  32 H     1.0000    0     1.008   -8.228255   -4.539606   -3.013845
  33 H     1.0000    0     1.008   -9.986662   -2.780876    0.967613
  34 H     1.0000    0     1.008   -7.325939   -0.190156    3.749853
  35 H     1.0000    0     1.008   -3.857829    0.458572    6.389011
  36 H     1.0000    0     1.008   -4.966525    3.215983    4.785883
  37 H     1.0000    0     1.008   -1.778438    3.055857    5.854638
  38 O     8.0000    0    15.999    4.892471   -5.167942    0.007139
  39 H     1.0000    0     1.008   -6.698155    5.439397   -2.515826
  40 H     1.0000    0     1.008    9.115997    3.036376   -2.759599
  41 C     6.0000    0    12.011    0.763608   -3.684176    2.345936
  42 C     6.0000    0    12.011    0.093507   -4.660777    4.288552
  43 H     1.0000    0     1.008   -0.525410   -5.548701    5.989304

--------------------------------
INTERNAL COORDINATES (ANGSTROEM)
--------------------------------
 C      0   0   0     0.000000000000     0.00000000     0.00000000
 C      1   0   0     1.417006482196     0.00000000     0.00000000
 C      2   1   0     1.356116159533   118.29075736     0.00000000
 N      3   2   1     1.354056965801   121.19127630     2.83390535
 C      4   3   2     1.380715474810   122.69997852   355.33486456
 C      1   2   3     1.360445284363   120.81270313   358.16659364
 C      4   3   2     1.436362963334   122.57845958   192.57210529
 C      7   4   3     1.520674627651   110.45302186   253.41197117
 O      8   7   4     1.203813890631   124.59488107     0.40739246
 O      8   7   4     1.321979025471   110.29398637   174.91981402
 C     10   8   7     1.430545245677   116.28223581   180.41608577
 H      1   2   3     1.084039658651   119.47015609   180.57379653
 H      3   2   1     1.082408755111   123.38451394   182.59070426
 H      5   4   3     1.084754131869   114.80321992   150.45524467
 H      6   1   2     1.081732276077   121.62548638   183.48336165
 H      7   4   3     1.091375573245   108.34912809     7.86819829
 H     11  10   8     1.089867249055   110.28731489    61.41215745
 H     11  10   8     1.090096170166   110.07112367   300.13436729
 C      5   4   3     1.993946882675    95.35925318   240.66636688
 C     19   5   4     1.522948631655    96.04161321   326.14796896
 C     20  19   5     1.503770314187   113.64129217   239.59364436
 C     21  20  19     1.386239389672   119.01585295   249.33542569
 C     22  21  20     1.389452302927   121.68365122   177.89404436
 C     23  22  21     1.383876620086   119.18013154   359.94161397
 C     24  23  22     1.389539278367   120.45847804     0.21365214
 C     25  24  23     1.388161389723   119.72291934   359.92725534
 O     26  25  24     1.348582753873   123.78466538   178.68373535
 C     27  26  25     1.413810333310   118.87288922     2.81685923
 N     19   5   4     1.419891488287    99.41099018    82.01225181
 O     29  19   5     1.232087566116   118.22471778   278.00130935
 H     20  19   5     1.088647250153   105.29769904   123.95922659
 H     22  21  20     1.085098093620   118.56020909   358.02621797
 H     23  22  21     1.083290334172   120.15706370   180.02762409
 H     24  23  22     1.084149196451   120.35094661   180.09656333
 H     25  24  23     1.081632584432   119.78027426   179.81319530
 H     28  27  26     1.093452850344   110.83751273    61.29852466
 H     28  27  26     1.093173419685   111.15674034   299.13283153
 H     28  27  26     1.088009666557   106.00008417   180.21806512
 O     29  19   5     1.229172414987   118.98487036    91.56911151
 H     11  10   8     1.086588592714   105.63758677   180.91940363
 H      2   1   3     1.080260135105   121.72300281   180.74270744
 C     19   5   4     1.417976989498   107.32128211   200.42367596
 C     42  19   5     1.203984625555   177.07464145    19.67677206
 H     43  42  19     1.066790730392   178.87556197   145.22465605

---------------------------
INTERNAL COORDINATES (A.U.)
---------------------------
 C      0   0   0     0.000000000000     0.00000000     0.00000000
 C      1   0   0     2.677754181341     0.00000000     0.00000000
 C      2   1   0     2.562688147302   118.29075736     0.00000000
 N      3   2   1     2.558796835092   121.19127630     2.83390535
 C      4   3   2     2.609174116259   122.69997852   355.33486456
 C      1   2   3     2.570869007631   120.81270313   358.16659364
 C      4   3   2     2.714332629609   122.57845958   192.57210529
 C      7   4   3     2.873658585063   110.45302186   253.41197117
 O      8   7   4     2.274878569503   124.59488107     0.40739246
 O      8   7   4     2.498178312929   110.29398637   174.91981402
 C     10   8   7     2.703338736513   116.28223581   180.41608577
 H      1   2   3     2.048538073161   119.47015609   180.57379653
 H      3   2   1     2.045456112118   123.38451394   182.59070426
 H      5   4   3     2.049888231871   114.80321992   150.45524467
 H      6   1   2     2.044177752009   121.62548638   183.48336165
 H      7   4   3     2.062400942684   108.34912809     7.86819829
 H     11  10   8     2.059550623043   110.28731489    61.41215745
 H     11  10   8     2.059983221250   110.07112367   300.13436729
 C      5   4   3     3.768013533842    95.35925318   240.66636688
 C     19   5   4     2.877955829858    96.04161321   326.14796896
 C     20  19   5     2.841714062133   113.64129217   239.59364436
 C     21  20  19     2.619612802533   119.01585295   249.33542569
 C     22  21  20     2.625684328678   121.68365122   177.89404436
 C     23  22  21     2.615147815099   119.18013154   359.94161397
 C     24  23  22     2.625848688440   120.45847804     0.21365214
 C     25  24  23     2.623244856260   119.72291934   359.92725534
 O     26  25  24     2.548452073750   123.78466538   178.68373535
 C     27  26  25     2.671714335263   118.87288922     2.81685923
 N     19   5   4     2.683206052748    99.41099018    82.01225181
 O     29  19   5     2.328308072968   118.22471778   278.00130935
 H     20  19   5     2.057245159235   105.29769904   123.95922659
 H     22  21  20     2.050538225382   118.56020909   358.02621797
 H     23  22  21     2.047122055109   120.15706370   180.02762409
 H     24  23  22     2.048745069603   120.35094661   180.09656333
 H     25  24  23     2.043989362101   119.78027426   179.81319530
 H     28  27  26     2.066326427505   110.83751273    61.29852466
 H     28  27  26     2.065798380087   111.15674034   299.13283153
 H     28  27  26     2.056040300851   106.00008417   180.21806512
 O     29  19   5     2.322799235697   118.98487036    91.56911151
 H     11  10   8     2.053354860472   105.63758677   180.91940363
 H      2   1   3     2.041395808742   121.72300281   180.74270744
 C     19   5   4     2.679588174354   107.32128211   200.42367596
 C     42  19   5     2.275201211751   177.07464145    19.67677206
 H     43  42  19     2.015942322647   178.87556197   145.22465605

---------------------
BASIS SET INFORMATION
---------------------
There are 4 groups of distinct atoms

 Group   1 Type C   : 11s6p2d1f contracted to 5s3p2d1f pattern {62111/411/11/1}
 Group   2 Type N   : 11s6p2d1f contracted to 5s3p2d1f pattern {62111/411/11/1}
 Group   3 Type O   : 11s6p2d1f contracted to 5s3p2d1f pattern {62111/411/11/1}
 Group   4 Type H   : 5s1p contracted to 3s1p pattern {311/1}

Atom   0C    basis set group =>   1
Atom   1C    basis set group =>   1
Atom   2C    basis set group =>   1
Atom   3N    basis set group =>   2
Atom   4C    basis set group =>   1
Atom   5C    basis set group =>   1
Atom   6C    basis set group =>   1
Atom   7C    basis set group =>   1
Atom   8O    basis set group =>   3
Atom   9O    basis set group =>   3
Atom  10C    basis set group =>   1
Atom  11H    basis set group =>   4
Atom  12H    basis set group =>   4
Atom  13H    basis set group =>   4
Atom  14H    basis set group =>   4
Atom  15H    basis set group =>   4
Atom  16H    basis set group =>   4
Atom  17H    basis set group =>   4
Atom  18C    basis set group =>   1
Atom  19C    basis set group =>   1
Atom  20C    basis set group =>   1
Atom  21C    basis set group =>   1
Atom  22C    basis set group =>   1
Atom  23C    basis set group =>   1
Atom  24C    basis set group =>   1
Atom  25C    basis set group =>   1
Atom  26O    basis set group =>   3
Atom  27C    basis set group =>   1
Atom  28N    basis set group =>   2
Atom  29O    basis set group =>   3
Atom  30H    basis set group =>   4
Atom  31H    basis set group =>   4
Atom  32H    basis set group =>   4
Atom  33H    basis set group =>   4
Atom  34H    basis set group =>   4
Atom  35H    basis set group =>   4
Atom  36H    basis set group =>   4
Atom  37H    basis set group =>   4
Atom  38O    basis set group =>   3
Atom  39H    basis set group =>   4
Atom  40H    basis set group =>   4
Atom  41C    basis set group =>   1
Atom  42C    basis set group =>   1
Atom  43H    basis set group =>   4
---------------------------------
AUXILIARY/J BASIS SET INFORMATION
---------------------------------
There are 4 groups of distinct atoms

 Group   1 Type C   : 12s5p4d2f1g contracted to 6s4p3d1f1g pattern {711111/2111/211/2/1}
 Group   2 Type N   : 12s5p4d2f1g contracted to 6s4p3d1f1g pattern {711111/2111/211/2/1}
 Group   3 Type O   : 12s5p4d2f1g contracted to 6s4p3d1f1g pattern {711111/2111/211/2/1}
 Group   4 Type H   : 5s2p1d contracted to 3s1p1d pattern {311/2/1}

Atom   0C    basis set group =>   1
Atom   1C    basis set group =>   1
Atom   2C    basis set group =>   1
Atom   3N    basis set group =>   2
Atom   4C    basis set group =>   1
Atom   5C    basis set group =>   1
Atom   6C    basis set group =>   1
Atom   7C    basis set group =>   1
Atom   8O    basis set group =>   3
Atom   9O    basis set group =>   3
Atom  10C    basis set group =>   1
Atom  11H    basis set group =>   4
Atom  12H    basis set group =>   4
Atom  13H    basis set group =>   4
Atom  14H    basis set group =>   4
Atom  15H    basis set group =>   4
Atom  16H    basis set group =>   4
Atom  17H    basis set group =>   4
Atom  18C    basis set group =>   1
Atom  19C    basis set group =>   1
Atom  20C    basis set group =>   1
Atom  21C    basis set group =>   1
Atom  22C    basis set group =>   1
Atom  23C    basis set group =>   1
Atom  24C    basis set group =>   1
Atom  25C    basis set group =>   1
Atom  26O    basis set group =>   3
Atom  27C    basis set group =>   1
Atom  28N    basis set group =>   2
Atom  29O    basis set group =>   3
Atom  30H    basis set group =>   4
Atom  31H    basis set group =>   4
Atom  32H    basis set group =>   4
Atom  33H    basis set group =>   4
Atom  34H    basis set group =>   4
Atom  35H    basis set group =>   4
Atom  36H    basis set group =>   4
Atom  37H    basis set group =>   4
Atom  38O    basis set group =>   3
Atom  39H    basis set group =>   4
Atom  40H    basis set group =>   4
Atom  41C    basis set group =>   1
Atom  42C    basis set group =>   1
Atom  43H    basis set group =>   4


           ************************************************************
           *        Program running with 24 parallel MPI-processes    *
           *              working on a common directory               *
           ************************************************************
------------------------------------------------------------------------------
                           ORCA GTO INTEGRAL CALCULATION
                           -- RI-GTO INTEGRALS CHOSEN --
------------------------------------------------------------------------------
------------------------------------------------------------------------------
                   ___                                                        
                  /   \      - P O W E R E D   B Y -                         
                 /     \                                                     
                 |  |  |   _    _      __       _____    __    __             
                 |  |  |  | |  | |    /  \     |  _  \  |  |  /  |          
                  \  \/   | |  | |   /    \    | | | |  |  | /  /          
                 / \  \   | |__| |  /  /\  \   | |_| |  |  |/  /          
                |  |  |   |  __  | /  /__\  \  |    /   |      \           
                |  |  |   | |  | | |   __   |  |    \   |  |\   \          
                \     /   | |  | | |  |  |  |  | |\  \  |  | \   \       
                 \___/    |_|  |_| |__|  |__|  |_| \__\ |__|  \__/        
                                                                              
                      - O R C A' S   B I G   F R I E N D -                    
                                      &                                       
                       - I N T E G R A L  F E E D E R -                       
                                                                              
 v1 FN, 2020, v2 2021                                                         
------------------------------------------------------------------------------


Reading SHARK input file TS1_CCH/TS1_CCH.SHARKINP.tmp ... ok
----------------------
SHARK INTEGRAL PACKAGE
----------------------

Number of atoms                             ...     44
Number of basis functions                   ...    914
Number of shells                            ...    358
Maximum angular momentum                    ...      3
Integral batch strategy                     ... SHARK/LIBINT Hybrid
RI-J (if used) integral strategy            ... SPLIT-RIJ (Revised 2003 algorithm where possible)
Printlevel                                  ...      1
Contraction scheme used                     ... SEGMENTED contraction
Coulomb Range Separation                    ... NOT USED
Exchange Range Separation                   ... NOT USED
Finite Nucleus Model                        ... NOT USED
Auxiliary Coulomb fitting basis             ... AVAILABLE
   # of basis functions in Aux-J            ...   1472
   # of shells in Aux-J                     ...    480
   Maximum angular momentum in Aux-J        ...      4
Auxiliary J/K fitting basis                 ... NOT available
Auxiliary Correlation fitting basis         ... NOT available
Auxiliary 'external' fitting basis          ... NOT available
Integral threshold                          ...     2.500000e-11
Primitive cut-off                           ...     2.500000e-12
Primitive pair pre-selection threshold      ...     2.500000e-12

Calculating pre-screening integrals         ... done (  0.1 sec) Dimension = 358
Organizing shell pair data                  ... done (  0.6 sec)
Shell pair information
Total number of shell pairs                 ...     64261
Shell pairs after pre-screening             ...     47961
Total number of primitive shell pairs       ...    198132
Primitive shell pairs kept                  ...     96859
          la=0 lb=0:  12065 shell pairs
          la=1 lb=0:  13659 shell pairs
          la=1 lb=1:   3875 shell pairs
          la=2 lb=0:   6940 shell pairs
          la=2 lb=1:   3987 shell pairs
          la=2 lb=2:   1053 shell pairs
          la=3 lb=0:   3228 shell pairs
          la=3 lb=1:   1920 shell pairs
          la=3 lb=2:    980 shell pairs
          la=3 lb=3:    254 shell pairs

Calculating one electron integrals          ... done (  0.1 sec)
Calculating RI/J V-Matrix + Cholesky decomp.... done (  0.2 sec)
Calculating Nuclear repulsion               ... done (  0.0 sec) ENN=   2539.175116875889 Eh

SHARK setup successfully completed in   1.8 seconds

Maximum memory used throughout the entire GTOINT-calculation: 72.0 MB


           ************************************************************
           *        Program running with 24 parallel MPI-processes    *
           *              working on a common directory               *
           ************************************************************
-------------------------------------------------------------------------------
                                 ORCA SCF
-------------------------------------------------------------------------------

------------
SCF SETTINGS
------------
Hamiltonian:
 Density Functional     Method          .... DFT(GTOs)
 Exchange Functional    Exchange        .... PBE
   PBE kappa parameter   XKappa         ....  0.804000
   PBE mue parameter    XMuePBE         ....  0.219520
 Correlation Functional Correlation     .... PBE
   PBE beta parameter  CBetaPBE         ....  0.066725
 LDA part of GGA corr.  LDAOpt          .... PW91-LDA
 Gradients option       PostSCFGGA      .... off
 Hybrid DFT is turned on
   Fraction HF Exchange ScalHFX         ....  0.250000
   Scaling of DF-GGA-X  ScalDFX         ....  0.750000
   Scaling of DF-GGA-C  ScalDFC         ....  1.000000
   Scaling of DF-LDA-C  ScalLDAC        ....  1.000000
   Perturbative correction              ....  0.000000
   Density functional embedding theory  .... OFF
   NL short-range parameter             ....  6.900000
 RI-approximation to the Coulomb term is turned on
   Number of AuxJ basis functions       .... 1472
   RIJ-COSX (HFX calculated with COS-X)).... on


General Settings:
 Integral files         IntName         .... TS1_CCH/TS1_CCH
 Hartree-Fock type      HFTyp           .... RHF
 Total Charge           Charge          ....    0
 Multiplicity           Mult            ....    1
 Number of Electrons    NEL             ....  186
 Basis Dimension        Dim             ....  914
 Nuclear Repulsion      ENuc            ....   2539.1751168759 Eh

Convergence Acceleration:
 DIIS                   CNVDIIS         .... on
   Start iteration      DIISMaxIt       ....    12
   Startup error        DIISStart       ....  0.200000
   # of expansion vecs  DIISMaxEq       ....     5
   Bias factor          DIISBfac        ....   1.050
   Max. coefficient     DIISMaxC        ....  10.000
 Trust-Rad. Augm. Hess. CNVTRAH         .... auto
   Auto Start mean grad. ratio tolernc. ....  1.125000
   Auto Start start iteration           ....    20
   Auto Start num. interpolation iter.  ....    10
   Max. Number of Micro iterations      ....    16
   Max. Number of Macro iterations      .... Maxiter - #DIIS iter
   Number of Davidson start vectors     ....     2
   Converg. threshold I  (grad. norm)   ....   1.000e-05
   Converg. threshold II (energy diff.) ....   1.000e-08
   Grad. Scal. Fac. for Micro threshold ....   0.100
   Minimum threshold for Micro iter.    ....   0.010
   NR start threshold (gradient norm)   ....   0.001
   Initial trust radius                 ....   0.400
   Minimum AH scaling param. (alpha)    ....   1.000
   Maximum AH scaling param. (alpha)    .... 1000.000
   Orbital update algorithm             .... Taylor
   White noise on init. David. guess    .... on
   Maximum white noise                  ....   0.010
   Quad. conv. algorithm                .... NR
 SOSCF                  CNVSOSCF        .... on
   Start iteration      SOSCFMaxIt      ....   150
   Startup grad/error   SOSCFStart      ....  0.003300
 Level Shifting         CNVShift        .... on
   Level shift para.    LevelShift      ....    0.2500
   Turn off err/grad.   ShiftErr        ....    0.0010
 Zerner damping         CNVZerner       .... off
 Static damping         CNVDamp         .... on
   Fraction old density DampFac         ....    0.7000
   Max. Damping (<1)    DampMax         ....    0.9800
   Min. Damping (>=0)   DampMin         ....    0.0000
   Turn off err/grad.   DampErr         ....    0.1000
 Fernandez-Rico         CNVRico         .... off

SCF Procedure:
 Maximum # iterations   MaxIter         ....   800
 SCF integral mode      SCFMode         .... Direct
   Integral package                     .... SHARK and LIBINT hybrid scheme
 Reset frequency        DirectResetFreq ....    20
 Integral Threshold     Thresh          ....  2.500e-11 Eh
 Primitive CutOff       TCut            ....  2.500e-12 Eh

Convergence Tolerance:
 Convergence Check Mode ConvCheckMode   .... Total+1el-Energy
 Convergence forced     ConvForced      .... 0
 Energy Change          TolE            ....  1.000e-08 Eh
 1-El. energy change                    ....  1.000e-05 Eh
 Orbital Gradient       TolG            ....  1.000e-05
 Orbital Rotation angle TolX            ....  1.000e-05
 DIIS Error             TolErr          ....  5.000e-07


Diagonalization of the overlap matrix:
Smallest eigenvalue                        ... 5.234e-06
Time for diagonalization                   ...    0.255 sec
Threshold for overlap eigenvalues          ... 1.000e-08
Number of eigenvalues below threshold      ... 0
Time for construction of square roots      ...    0.158 sec
Total time needed                          ...    0.419 sec

Time for model grid setup =    0.341 sec

------------------------------
INITIAL GUESS: MODEL POTENTIAL
------------------------------
Loading Hartree-Fock densities                     ... done
Calculating cut-offs                               ... done
Initializing the effective Hamiltonian             ... done
Setting up the integral package (SHARK)            ... done
Starting the Coulomb interaction                   ... done (   0.5 sec)
Reading the grid                                   ... done
Mapping shells                                     ... done
Starting the XC term evaluation                    ... done (   0.3 sec)
  promolecular density results
     # of electrons  =    185.991005964
     EX              =   -156.410746168
     EC              =     -6.299429230
     EX+EC           =   -162.710175398
Transforming the Hamiltonian                       ... done (   0.1 sec)
Diagonalizing the Hamiltonian                      ... done (   0.3 sec)
Back transforming the eigenvectors                 ... done (   0.1 sec)
Now organizing SCF variables                       ... done
                      ------------------
                      INITIAL GUESS DONE (   1.8 sec)
                      ------------------
-------------------
DFT GRID GENERATION
-------------------

General Integration Accuracy     IntAcc      ... 4.388
Radial Grid Type                 RadialGrid  ... OptM3 with GC (2021)
Angular Grid (max. ang.)         AngularGrid ... 4 (Lebedev-302)
Angular grid pruning method      GridPruning ... 4 (adaptive)
Weight generation scheme         WeightScheme... Becke
Basis function cutoff            BFCut       ... 1.0000e-11
Integration weight cutoff        WCut        ... 1.0000e-14
Angular grids for H and He will be reduced by one unit
Partially contracted basis set               ... off
Rotationally invariant grid construction     ... off

Total number of grid points                  ...   211794
Total number of batches                      ...     3329
Average number of points per batch           ...       63
Average number of grid points per atom       ...     4814
Time for grid setup =    1.511 sec

--------------------
COSX GRID GENERATION
--------------------

GRIDX 1
-------
General Integration Accuracy     IntAcc      ... 3.816
Radial Grid Type                 RadialGrid  ... OptM3 with GC (2021)
Angular Grid (max. ang.)         AngularGrid ... 1 (Lebedev-50)
Angular grid pruning method      GridPruning ... 4 (adaptive)
Weight generation scheme         WeightScheme... Becke
Basis function cutoff            BFCut       ... 1.0000e-11
Integration weight cutoff        WCut        ... 1.0000e-14
Angular grids for H and He will be reduced by one unit
Partially contracted basis set               ... on
Rotationally invariant grid construction     ... off

Total number of grid points                  ...    26835
Total number of batches                      ...      443
Average number of points per batch           ...       60
Average number of grid points per atom       ...      610
UseSFitting                                  ... on

GRIDX 2
-------
General Integration Accuracy     IntAcc      ... 4.020
Radial Grid Type                 RadialGrid  ... OptM3 with GC (2021)
Angular Grid (max. ang.)         AngularGrid ... 2 (Lebedev-110)
Angular grid pruning method      GridPruning ... 4 (adaptive)
Weight generation scheme         WeightScheme... Becke
Basis function cutoff            BFCut       ... 1.0000e-11
Integration weight cutoff        WCut        ... 1.0000e-14
Angular grids for H and He will be reduced by one unit
Partially contracted basis set               ... on
Rotationally invariant grid construction     ... off

Total number of grid points                  ...    58217
Total number of batches                      ...      932
Average number of points per batch           ...       62
Average number of grid points per atom       ...     1323
UseSFitting                                  ... on

GRIDX 3
-------
General Integration Accuracy     IntAcc      ... 4.338
Radial Grid Type                 RadialGrid  ... OptM3 with GC (2021)
Angular Grid (max. ang.)         AngularGrid ... 3 (Lebedev-194)
Angular grid pruning method      GridPruning ... 4 (adaptive)
Weight generation scheme         WeightScheme... Becke
Basis function cutoff            BFCut       ... 1.0000e-11
Integration weight cutoff        WCut        ... 1.0000e-14
Angular grids for H and He will be reduced by one unit
Partially contracted basis set               ... on
Rotationally invariant grid construction     ... off

Total number of grid points                  ...   127199
Total number of batches                      ...     2009
Average number of points per batch           ...       63
Average number of grid points per atom       ...     2891
UseSFitting                                  ... on

Time for X-Grid setup             =    2.835 sec


--------------------
CPCM SOLVATION MODEL
--------------------
CPCM parameters:
  Epsilon                                         ...      47.2000
  Refrac                                          ...       1.4790
  Rsolv                                           ...       1.3000
  Surface type                                    ... GAUSSIAN VDW
  Epsilon function type                           ...         CPCM
Radii:
 Radius for C  used is    3.8550 Bohr (=   2.0400 Ang.)
 Radius for N  used is    3.5149 Bohr (=   1.8600 Ang.)
 Radius for O  used is    3.4469 Bohr (=   1.8240 Ang.)
 Radius for H  used is    2.4944 Bohr (=   1.3200 Ang.)
Calculating surface                               ...        done! (  0.0s)
GEPOL surface points                              ...         2207
GEPOL Volume                                      ...    2706.5013
GEPOL Surface-area                                ...    1306.4543
Calculating surface distance matrix               ...        done! (  0.1s)
Performing Cholesky decomposition & store         ...        done! (  0.3s)
Overall time for CPCM initialization              ...                 0.4s
--------------
SCF ITERATIONS
--------------
ITER       Energy         Delta-E        Max-DP      RMS-DP      [F,P]     Damp
               ***  Starting incremental Fock matrix formation  ***
  0  -1218.7811388916   0.000000000000 0.16234428  0.00079450  0.2624921 0.7000
  1  -1219.0435066807  -0.262367789162 0.13224635  0.00064862  0.1037872 0.7000
                               ***Turning on DIIS***
  2  -1219.1495618382  -0.106055157432 0.17026448  0.00119108  0.0348557 0.0000
  3  -1219.3257265952  -0.176164756984 0.13824663  0.00054514  0.0519981 0.0000
  4  -1219.3561473165  -0.030420721397 0.06976248  0.00022313  0.0171034 0.0000
  5  -1219.3585157380  -0.002368421426 0.02568965  0.00008337  0.0050863 0.0000
                      *** Initiating the SOSCF procedure ***
                           *** Shutting down DIIS ***
                      *** Re-Reading the Fockian *** 
                      *** Removing any level shift *** 
ITER      Energy       Delta-E        Grad      Rot      Max-DP    RMS-DP
  6  -1219.35866752  -0.0001517809  0.000234  0.000234  0.009892  0.000031
               *** Restarting incremental Fock matrix formation ***
  7  -1219.35871545  -0.0000479352  0.000130  0.000547  0.004958  0.000025
  8  -1219.35871462   0.0000008383  0.000238  0.000316  0.001333  0.000007
  9  -1219.35871813  -0.0000035101  0.000053  0.000160  0.000313  0.000005
 10  -1219.35871787   0.0000002532  0.000071  0.000084  0.000363  0.000002
 11  -1219.35871827  -0.0000003991  0.000007  0.000039  0.001192  0.000003
 12  -1219.35871827   0.0000000033  0.000013  0.000037  0.000545  0.000001
                  ***Gradient check signals convergence***
              ***Rediagonalizing the Fockian in SOSCF/NRSCF***

               *****************************************************
               *                     SUCCESS                       *
               *           SCF CONVERGED AFTER  13 CYCLES          *
               *****************************************************

Old exchange energy                            =    -39.820046509 Eh
New exchange energy                            =    -39.819995011 Eh
Exchange energy change after final integration =      0.000051498 Eh
Total energy after final integration           =  -1219.358666792 Eh
Final COS-X integration done in                =    19.989 sec

----------------
TOTAL SCF ENERGY
----------------

Total Energy       :        -1219.35866679 Eh          -33180.43618 eV

Components:
Nuclear Repulsion  :         2539.17511688 Eh           69094.46763 eV
Electronic Energy  :        -3758.53378367 Eh         -102274.90381 eV
One Electron Energy:        -6712.59271146 Eh         -182658.93388 eV
Two Electron Energy:         2954.05892779 Eh           80384.03007 eV
Max COSX asymmetry :            0.00000241 Eh               0.00007 eV
CPCM Dielectric    :           -0.03983676 Eh              -1.08401 eV

Virial components:
Potential Energy   :        -2433.39766387 Eh          -66216.11680 eV
Kinetic Energy     :         1214.03899708 Eh           33035.68061 eV
Virial Ratio       :            2.00438179


DFT components:
N(Alpha)           :       92.999929534934 electrons
N(Beta)            :       92.999929534934 electrons
N(Total)           :      185.999859069869 electrons
E(X)               :     -119.277587935607 Eh       
E(C)               :       -6.293537190441 Eh       
E(XC)              :     -125.571125126048 Eh       
DFET-embed. en.    :        0.000000000000 Eh       
CPCM Solvation Model Properties:
Surface-charge          :           -0.02947230
Charge-correction       :           -0.00019424 Eh              -0.00529 eV
Free-energy (cav+disp)  :  This term is not implemented in the current solvation scheme

---------------
SCF CONVERGENCE
---------------

  Last Energy change         ...   -2.1775e-08  Tolerance :   1.0000e-08
  Last MAX-Density change    ...    2.3315e-15  Tolerance :   1.0000e-07
  Last RMS-Density change    ...    1.5287e-17  Tolerance :   5.0000e-09
  Last Orbital Gradient      ...    1.3994e-06  Tolerance :   1.0000e-05
  Last Orbital Rotation      ...    5.3488e-06  Tolerance :   1.0000e-05

             **** THE GBW FILE WAS UPDATED (TS1_CCH/TS1_CCH.gbw) ****
             **** DENSITY TS1_CCH/TS1_CCH.scfp WAS UPDATED ****
             **** ENERGY FILE WAS UPDATED (TS1_CCH/TS1_CCH.en.tmp) ****
             **** THE GBW FILE WAS UPDATED (TS1_CCH/TS1_CCH.gbw) ****
             **** DENSITY TS1_CCH/TS1_CCH.scfp WAS UPDATED ****
----------------
ORBITAL ENERGIES
----------------

  NO   OCC          E(Eh)            E(eV) 
   0   2.0000     -19.266025      -524.2552 
   1   2.0000     -19.248349      -523.7742 
   2   2.0000     -19.222957      -523.0832 
   3   2.0000     -19.222292      -523.0652 
   4   2.0000     -19.204836      -522.5902 
   5   2.0000     -14.602604      -397.3571 
   6   2.0000     -14.463116      -393.5614 
   7   2.0000     -10.364709      -282.0381 
   8   2.0000     -10.302079      -280.3338 
   9   2.0000     -10.297555      -280.2107 
  10   2.0000     -10.296254      -280.1753 
  11   2.0000     -10.290440      -280.0171 
  12   2.0000     -10.284008      -279.8421 
  13   2.0000     -10.271901      -279.5126 
  14   2.0000     -10.267926      -279.4045 
  15   2.0000     -10.267862      -279.4027 
  16   2.0000     -10.250590      -278.9327 
  17   2.0000     -10.240572      -278.6601 
  18   2.0000     -10.238261      -278.5972 
  19   2.0000     -10.236905      -278.5603 
  20   2.0000     -10.229873      -278.3690 
  21   2.0000     -10.229703      -278.3644 
  22   2.0000     -10.229649      -278.3629 
  23   2.0000     -10.225546      -278.2512 
  24   2.0000     -10.224119      -278.2124 
  25   2.0000     -10.221040      -278.1286 
  26   2.0000      -1.251447       -34.0536 
  27   2.0000      -1.157687       -31.5023 
  28   2.0000      -1.112494       -30.2725 
  29   2.0000      -1.070153       -29.1204 
  30   2.0000      -1.066465       -29.0200 
  31   2.0000      -1.045396       -28.4467 
  32   2.0000      -0.904808       -24.6211 
  33   2.0000      -0.880330       -23.9550 
  34   2.0000      -0.868262       -23.6266 
  35   2.0000      -0.818380       -22.2692 
  36   2.0000      -0.813898       -22.1473 
  37   2.0000      -0.788881       -21.4665 
  38   2.0000      -0.780519       -21.2390 
  39   2.0000      -0.772204       -21.0127 
  40   2.0000      -0.750386       -20.4190 
  41   2.0000      -0.725323       -19.7371 
  42   2.0000      -0.707363       -19.2483 
  43   2.0000      -0.682571       -18.5737 
  44   2.0000      -0.661516       -18.0008 
  45   2.0000      -0.639913       -17.4129 
  46   2.0000      -0.631060       -17.1720 
  47   2.0000      -0.613878       -16.7045 
  48   2.0000      -0.602294       -16.3892 
  49   2.0000      -0.577888       -15.7251 
  50   2.0000      -0.569626       -15.5003 
  51   2.0000      -0.557801       -15.1785 
  52   2.0000      -0.554305       -15.0834 
  53   2.0000      -0.546270       -14.8647 
  54   2.0000      -0.535912       -14.5829 
  55   2.0000      -0.530816       -14.4442 
  56   2.0000      -0.525880       -14.3099 
  57   2.0000      -0.520770       -14.1709 
  58   2.0000      -0.514771       -14.0076 
  59   2.0000      -0.506057       -13.7705 
  60   2.0000      -0.499008       -13.5787 
  61   2.0000      -0.490463       -13.3462 
  62   2.0000      -0.484386       -13.1808 
  63   2.0000      -0.475570       -12.9409 
  64   2.0000      -0.470604       -12.8058 
  65   2.0000      -0.465278       -12.6609 
  66   2.0000      -0.461937       -12.5699 
  67   2.0000      -0.447414       -12.1747 
  68   2.0000      -0.443564       -12.0700 
  69   2.0000      -0.430667       -11.7190 
  70   2.0000      -0.424251       -11.5445 
  71   2.0000      -0.406660       -11.0658 
  72   2.0000      -0.404025       -10.9941 
  73   2.0000      -0.398020       -10.8307 
  74   2.0000      -0.389752       -10.6057 
  75   2.0000      -0.383447       -10.4341 
  76   2.0000      -0.381574       -10.3832 
  77   2.0000      -0.377742       -10.2789 
  78   2.0000      -0.371326       -10.1043 
  79   2.0000      -0.356230        -9.6935 
  80   2.0000      -0.345789        -9.4094 
  81   2.0000      -0.344548        -9.3756 
  82   2.0000      -0.333467        -9.0741 
  83   2.0000      -0.332007        -9.0344 
  84   2.0000      -0.326796        -8.8926 
  85   2.0000      -0.315875        -8.5954 
  86   2.0000      -0.313905        -8.5418 
  87   2.0000      -0.305255        -8.3064 
  88   2.0000      -0.295018        -8.0278 
  89   2.0000      -0.287389        -7.8203 
  90   2.0000      -0.271447        -7.3865 
  91   2.0000      -0.240439        -6.5427 
  92   2.0000      -0.211608        -5.7581 
  93   0.0000      -0.068449        -1.8626 
  94   0.0000      -0.038929        -1.0593 
  95   0.0000      -0.015561        -0.4234 
  96   0.0000      -0.005259        -0.1431 
  97   0.0000       0.002052         0.0558 
  98   0.0000       0.002425         0.0660 
  99   0.0000       0.025496         0.6938 
 100   0.0000       0.044465         1.2100 
 101   0.0000       0.057587         1.5670 
 102   0.0000       0.062254         1.6940 
 103   0.0000       0.069315         1.8862 
 104   0.0000       0.076392         2.0787 
 105   0.0000       0.078292         2.1304 
 106   0.0000       0.088321         2.4033 
 107   0.0000       0.090500         2.4626 
 108   0.0000       0.093888         2.5548 
 109   0.0000       0.100391         2.7318 
 110   0.0000       0.107183         2.9166 
 111   0.0000       0.109143         2.9699 
 112   0.0000       0.112522         3.0619 
 113   0.0000       0.117126         3.1872 
 114   0.0000       0.121095         3.2952 
 115   0.0000       0.127844         3.4788 
 116   0.0000       0.130451         3.5497 
 117   0.0000       0.135068         3.6754 
 118   0.0000       0.142491         3.8774 
 119   0.0000       0.143920         3.9163 
 120   0.0000       0.148400         4.0382 
 121   0.0000       0.152814         4.1583 
 122   0.0000       0.155956         4.2438 
 123   0.0000       0.159728         4.3464 
 124   0.0000       0.164090         4.4651 
 125   0.0000       0.170428         4.6376 
 126   0.0000       0.172085         4.6827 
 127   0.0000       0.184172         5.0116 
 128   0.0000       0.189298         5.1511 
 129   0.0000       0.193151         5.2559 
 130   0.0000       0.204457         5.5636 
 131   0.0000       0.206398         5.6164 
 132   0.0000       0.210861         5.7378 
 133   0.0000       0.215645         5.8680 
 134   0.0000       0.220503         6.0002 
 135   0.0000       0.224070         6.0973 
 136   0.0000       0.228005         6.2043 
 137   0.0000       0.228682         6.2228 
 138   0.0000       0.232260         6.3201 
 139   0.0000       0.236021         6.4225 
 140   0.0000       0.242152         6.5893 
 141   0.0000       0.246702         6.7131 
 142   0.0000       0.254873         6.9354 
 143   0.0000       0.258184         7.0255 
 144   0.0000       0.260439         7.0869 
 145   0.0000       0.267090         7.2679 
 146   0.0000       0.268791         7.3142 
 147   0.0000       0.273510         7.4426 
 148   0.0000       0.276777         7.5315 
 149   0.0000       0.280926         7.6444 
 150   0.0000       0.284383         7.7385 
 151   0.0000       0.291209         7.9242 
 152   0.0000       0.295208         8.0330 
 153   0.0000       0.298977         8.1356 
 154   0.0000       0.311830         8.4853 
 155   0.0000       0.312478         8.5030 
 156   0.0000       0.312917         8.5149 
 157   0.0000       0.318520         8.6674 
 158   0.0000       0.320185         8.7127 
 159   0.0000       0.324539         8.8312 
 160   0.0000       0.326045         8.8721 
 161   0.0000       0.330067         8.9816 
 162   0.0000       0.337187         9.1753 
 163   0.0000       0.342314         9.3148 
 164   0.0000       0.343871         9.3572 
 165   0.0000       0.350574         9.5396 
 166   0.0000       0.353837         9.6284 
 167   0.0000       0.357048         9.7158 
 168   0.0000       0.359829         9.7915 
 169   0.0000       0.363042         9.8789 
 170   0.0000       0.366853         9.9826 
 171   0.0000       0.371676        10.1138 
 172   0.0000       0.374861        10.2005 
 173   0.0000       0.380492        10.3537 
 174   0.0000       0.384266        10.4564 
 175   0.0000       0.389004        10.5853 
 176   0.0000       0.392127        10.6703 
 177   0.0000       0.393914        10.7189 
 178   0.0000       0.399457        10.8698 
 179   0.0000       0.403329        10.9751 
 180   0.0000       0.403859        10.9896 
 181   0.0000       0.409744        11.1497 
 182   0.0000       0.412945        11.2368 
 183   0.0000       0.417520        11.3613 
 184   0.0000       0.421267        11.4633 
 185   0.0000       0.426325        11.6009 
 186   0.0000       0.427782        11.6405 
 187   0.0000       0.432878        11.7792 
 188   0.0000       0.439104        11.9486 
 189   0.0000       0.439920        11.9708 
 190   0.0000       0.442955        12.0534 
 191   0.0000       0.449044        12.2191 
 192   0.0000       0.453321        12.3355 
 193   0.0000       0.455399        12.3920 
 194   0.0000       0.459145        12.4940 
 195   0.0000       0.463567        12.6143 
 196   0.0000       0.467467        12.7204 
 197   0.0000       0.468366        12.7449 
 198   0.0000       0.474932        12.9236 
 199   0.0000       0.477458        12.9923 
 200   0.0000       0.485122        13.2009 
 201   0.0000       0.487779        13.2731 
 202   0.0000       0.490191        13.3388 
 203   0.0000       0.494066        13.4442 
 204   0.0000       0.499590        13.5945 
 205   0.0000       0.502306        13.6684 
 206   0.0000       0.505897        13.7662 
 207   0.0000       0.509391        13.8612 
 208   0.0000       0.513157        13.9637 
 209   0.0000       0.521587        14.1931 
 210   0.0000       0.525455        14.2984 
 211   0.0000       0.527604        14.3568 
 212   0.0000       0.533326        14.5125 
 213   0.0000       0.536209        14.5910 
 214   0.0000       0.541526        14.7357 
 215   0.0000       0.546433        14.8692 
 216   0.0000       0.551389        15.0041 
 217   0.0000       0.558062        15.1856 
 218   0.0000       0.560241        15.2449 
 219   0.0000       0.562691        15.3116 
 220   0.0000       0.565869        15.3981 
 221   0.0000       0.577318        15.7096 
 222   0.0000       0.577414        15.7122 
 223   0.0000       0.583987        15.8911 
 224   0.0000       0.592676        16.1275 
 225   0.0000       0.597616        16.2620 
 226   0.0000       0.607241        16.5239 
 227   0.0000       0.618986        16.8435 
 228   0.0000       0.621004        16.8984 
 229   0.0000       0.625028        17.0079 
 230   0.0000       0.633484        17.2380 
 231   0.0000       0.643695        17.5158 
 232   0.0000       0.650320        17.6961 
 233   0.0000       0.654249        17.8030 
 234   0.0000       0.661968        18.0131 
 235   0.0000       0.666193        18.1280 
 236   0.0000       0.673726        18.3330 
 237   0.0000       0.677256        18.4291 
 238   0.0000       0.679263        18.4837 
 239   0.0000       0.685773        18.6608 
 240   0.0000       0.692409        18.8414 
 241   0.0000       0.693829        18.8800 
 242   0.0000       0.705559        19.1992 
 243   0.0000       0.715050        19.4575 
 244   0.0000       0.717362        19.5204 
 245   0.0000       0.718796        19.5594 
 246   0.0000       0.721151        19.6235 
 247   0.0000       0.727226        19.7888 
 248   0.0000       0.732698        19.9377 
 249   0.0000       0.737047        20.0561 
 250   0.0000       0.740622        20.1534 
 251   0.0000       0.747856        20.3502 
 252   0.0000       0.755451        20.5569 
 253   0.0000       0.757331        20.6080 
 254   0.0000       0.759850        20.6766 
 255   0.0000       0.769656        20.9434 
 256   0.0000       0.774380        21.0720 
 257   0.0000       0.780250        21.2317 
 258   0.0000       0.794126        21.6093 
 259   0.0000       0.799052        21.7433 
 260   0.0000       0.802406        21.8346 
 261   0.0000       0.807938        21.9851 
 262   0.0000       0.816101        22.2072 
 263   0.0000       0.825147        22.4534 
 264   0.0000       0.831699        22.6317 
 265   0.0000       0.833963        22.6933 
 266   0.0000       0.845487        23.0069 
 267   0.0000       0.845946        23.0193 
 268   0.0000       0.852032        23.1850 
 269   0.0000       0.854405        23.2495 
 270   0.0000       0.865657        23.5557 
 271   0.0000       0.879826        23.9413 
 272   0.0000       0.882032        24.0013 
 273   0.0000       0.887902        24.1610 
 274   0.0000       0.893902        24.3243 
 275   0.0000       0.899377        24.4733 
 276   0.0000       0.906263        24.6607 
 277   0.0000       0.916057        24.9272 
 278   0.0000       0.917418        24.9642 
 279   0.0000       0.931260        25.3409 
 280   0.0000       0.935610        25.4592 
 281   0.0000       0.940238        25.5852 
 282   0.0000       0.944852        25.7107 
 283   0.0000       0.947546        25.7840 
 284   0.0000       0.955925        26.0120 
[...]
 23:    215.33   0.001400    7.07  0.002029  ( 0.002737 -0.011500  0.043464)
 24:    239.42   0.002367   11.96  0.003085  ( 0.040017  0.038506 -0.000930)
 25:    250.34   0.001089    5.50  0.001358  ( 0.002064  0.030770 -0.020169)
 26:    272.95   0.003090   15.62  0.003533  ( 0.056260 -0.015588  0.011172)
 27:    293.02   0.001437    7.26  0.001530  (-0.003568 -0.038739  0.004094)
 28:    295.20   0.001245    6.29  0.001316  ( 0.034294  0.002924  0.011469)
 29:    315.39   0.001044    5.28  0.001033  (-0.006650  0.031443  0.000027)
 30:    335.13   0.000853    4.31  0.000794  (-0.027660  0.005383 -0.000614)
 31:    369.97   0.002677   13.53  0.002258  (-0.040396  0.024637 -0.004339)
 32:    421.98   0.001765    8.92  0.001305  (-0.004720 -0.033873  0.011640)
 33:    449.87   0.001597    8.07  0.001108  (-0.017526  0.028265  0.001240)
 34:    469.14   0.001276    6.45  0.000849  (-0.009323  0.026118  0.008913)
 35:    490.05   0.000499    2.52  0.000318  (-0.012093  0.001171  0.013052)
 36:    495.87   0.002372   11.99  0.001493  ( 0.005841 -0.038148  0.001912)
 37:    516.97   0.002196   11.10  0.001326  ( 0.002750 -0.036168 -0.003191)
 38:    547.91   0.008968   45.32  0.005108  (-0.021738 -0.062547  0.026891)
 39:    555.79   0.001880    9.50  0.001055  ( 0.001584 -0.026165  0.019190)
 40:    574.56   0.005526   27.93  0.003001  (-0.049167 -0.015130 -0.018846)
 41:    588.46   0.004034   20.38  0.002139  (-0.005289 -0.022068  0.040300)
 42:    621.51   0.002688   13.59  0.001350  (-0.030700  0.014560 -0.013978)
 43:    623.85   0.015677   79.22  0.007842  ( 0.046679  0.052676  0.053743)
 44:    634.85   0.008823   44.59  0.004337  ( 0.024129  0.061121  0.004338)
 45:    646.56   0.005179   26.17  0.002499  ( 0.009263  0.048661  0.006760)
 46:    671.89   0.006955   35.15  0.003230  ( 0.030424 -0.047882  0.003469)
 47:    702.92   0.040352  203.92  0.017914  ( 0.006389 -0.130904 -0.027164)
 48:    713.41   0.012188   61.59  0.005331  ( 0.070197 -0.019947 -0.002428)
 49:    717.87   0.011777   59.52  0.005120  (-0.017503 -0.069222 -0.004639)
 50:    750.20   0.008452   42.71  0.003516  ( 0.015862  0.038072  0.042600)
 51:    765.45   0.016599   83.89  0.006767  (-0.018399  0.070745 -0.037735)
 52:    772.71   0.010501   53.07  0.004241  ( 0.011634 -0.058028  0.027169)
 53:    790.92   0.002016   10.19  0.000795  (-0.022661 -0.016593  0.002576)
 54:    795.53   0.000444    2.25  0.000174  (-0.009812 -0.005910 -0.006563)
 55:    821.84   0.002895   14.63  0.001099  (-0.003182  0.032126  0.007558)
 56:    830.13   0.001055    5.33  0.000397  ( 0.015417 -0.008242  0.009543)
 57:    835.41   0.005151   26.03  0.001924  ( 0.033988  0.026288  0.008832)
 58:    869.07   0.004697   23.74  0.001687  ( 0.011080  0.037203  0.013410)
 59:    878.99   0.005649   28.55  0.002006  ( 0.026668  0.024381  0.026458)
 60:    909.98   0.001922    9.71  0.000659  ( 0.011152 -0.014480 -0.018031)
 61:    937.38   0.006966   35.20  0.002319  ( 0.009553  0.044721 -0.015090)
 62:    956.12   0.002353   11.89  0.000768  ( 0.007990 -0.026433  0.002339)
 63:    964.46   0.000056    0.28  0.000018  ( 0.002627  0.001133 -0.003158)
 64:    987.63   0.000934    4.72  0.000295  ( 0.004867 -0.016093 -0.003538)
 65:    996.13   0.011474   57.99  0.003595  ( 0.018721 -0.055404 -0.013213)
 66:   1003.25   0.018380   92.89  0.005717  ( 0.004215  0.075459 -0.002324)
 67:   1013.18   0.000642    3.24  0.000198  (-0.005141  0.012692  0.003195)
 68:   1047.07   0.007761   39.22  0.002313  ( 0.038768 -0.019359 -0.020867)
 69:   1052.81   0.005252   26.54  0.001557  ( 0.023596 -0.031510  0.002666)
 70:   1072.41   0.011342   57.32  0.003300  ( 0.031519 -0.018722 -0.044232)
 71:   1084.18   0.001382    6.98  0.000398  (-0.005712  0.011241 -0.015453)
 72:   1090.75   0.022423  113.32  0.006415  ( 0.010777  0.059977  0.051978)
 73:   1098.59   0.006179   31.22  0.001755  ( 0.028426 -0.029914 -0.007226)
 74:   1147.90   0.009693   48.98  0.002635  (-0.007725  0.005481  0.050451)
 75:   1162.25   0.019661   99.36  0.005279  ( 0.010126 -0.071842 -0.003893)
 76:   1171.44   0.000195    0.98  0.000052  ( 0.001232  0.001350 -0.006967)
 77:   1172.23   0.000262    1.33  0.000070  ( 0.001740 -0.005972  0.005584)
 78:   1174.28   0.001098    5.55  0.000292  (-0.004407  0.008666  0.014044)
 79:   1176.32   0.004480   22.64  0.001188  ( 0.002815  0.029232  0.018055)
 80:   1198.92   0.011928   60.28  0.003105  (-0.053868  0.014246  0.000108)
 81:   1206.82   0.004975   25.14  0.001286  ( 0.023985 -0.025619 -0.007398)
 82:   1207.31   0.002072   10.47  0.000536  ( 0.000802 -0.008249 -0.021610)
 83:   1222.56   0.006018   30.41  0.001536  ( 0.010338 -0.035814 -0.012108)
 84:   1239.05   0.024400  123.31  0.006145  (-0.066011  0.038138 -0.018262)
 85:   1240.48   0.005724   28.93  0.001440  (-0.030882  0.021261 -0.005850)
 86:   1261.09   0.057283  289.49  0.014175  ( 0.104808 -0.052750  0.020194)
 87:   1270.75   0.043952  222.11  0.010793  (-0.081281  0.063607 -0.011873)
 88:   1297.35   0.021573  109.02  0.005189  ( 0.026907 -0.004906  0.066642)
 89:   1308.80   0.055774  281.86  0.013298  ( 0.050092  0.072526  0.074359)
 90:   1332.40   0.000994    5.02  0.000233  (-0.014849 -0.001577  0.003123)
 91:   1345.09   0.008808   44.51  0.002043  (-0.043451 -0.005705 -0.011086)
 92:   1355.96   0.098783  499.21  0.022734  ( 0.056116 -0.118289 -0.074784)
 93:   1369.36   0.041373  209.08  0.009429  (-0.070596  0.061840  0.024910)
 94:   1374.64   0.014023   70.87  0.003183  (-0.038100 -0.014517 -0.039001)
 95:   1389.69   0.002728   13.79  0.000613  ( 0.020976 -0.002505 -0.012900)
 96:   1418.95   0.005697   28.79  0.001253  ( 0.008860 -0.011184 -0.032392)
 97:   1465.06   0.004808   24.30  0.001024  (-0.001434 -0.027898 -0.015616)
 98:   1465.38   0.003062   15.48  0.000652  ( 0.005227 -0.020741  0.013952)
 99:   1469.09   0.012504   63.19  0.002656  (-0.050073  0.007964  0.009240)
100:   1472.02   0.005043   25.49  0.001069  ( 0.016898 -0.008087  0.026800)
101:   1474.83   0.003028   15.30  0.000641  (-0.007827  0.015008  0.018819)
102:   1482.26   0.020597  104.09  0.004336  ( 0.046560  0.028941 -0.036483)
103:   1483.44   0.003158   15.96  0.000664  (-0.017958 -0.014645 -0.011290)
104:   1499.28   0.011292   57.07  0.002350  ( 0.018284  0.032385  0.031102)
105:   1512.10   0.006899   34.86  0.001424  ( 0.022500  0.017985 -0.024374)
106:   1541.53   0.031578  159.58  0.006393  ( 0.024571  0.075834 -0.006165)
107:   1547.47   0.097366  492.05  0.019635  ( 0.052720 -0.043785  0.122222)
108:   1597.63   0.047674  240.92  0.009312  (-0.024765 -0.065523  0.066374)
109:   1651.82   0.008342   42.15  0.001576  ( 0.005653  0.019919  0.033870)
110:   1665.23   0.011419   57.71  0.002140  (-0.032825 -0.026447 -0.019054)
111:   1686.21   0.044623  225.51  0.008258  (-0.089718 -0.013541 -0.005051)
112:   1794.56   0.104669  528.95  0.018201  (-0.072443 -0.086925 -0.073466)
113:   2210.96   0.020109  101.62  0.002838  (-0.032648 -0.029831  0.029708)
114:   3039.85   0.012091   61.10  0.001241  (-0.010803  0.013834  0.030547)
115:   3074.43   0.006286   31.76  0.000638  ( 0.016744 -0.018482 -0.004009)
116:   3111.88   0.000954    4.82  0.000096  (-0.005884  0.007809  0.000324)
117:   3112.49   0.007300   36.89  0.000732  ( 0.009192 -0.022077  0.012650)
118:   3129.50   0.000522    2.64  0.000052  ( 0.007197 -0.000184 -0.000464)
119:   3158.87   0.003723   18.82  0.000368  (-0.006615 -0.010856  0.014359)
120:   3166.19   0.003333   16.84  0.000328  ( 0.016900  0.005485  0.003575)
121:   3168.36   0.001024    5.17  0.000101  ( 0.001505  0.008545  0.005053)
122:   3185.43   0.001003    5.07  0.000098  ( 0.005734 -0.002559 -0.007669)
123:   3190.95   0.002013   10.17  0.000197  (-0.010349 -0.003728 -0.008711)
124:   3196.18   0.001740    8.79  0.000170  ( 0.010838 -0.000341 -0.007235)
125:   3203.22   0.001330    6.72  0.000130  (-0.009782  0.001346 -0.005662)
126:   3214.33   0.003310   16.73  0.000321  (-0.011893 -0.009357 -0.009612)
127:   3224.44   0.000400    2.02  0.000039  (-0.004677 -0.001462 -0.003835)
128:   3230.61   0.000373    1.89  0.000036  ( 0.003604 -0.001777 -0.004460)
129:   3231.10   0.000178    0.90  0.000017  ( 0.003316  0.001484  0.001997)
130:   3248.46   0.000033    0.17  0.000003  (-0.000849  0.000074 -0.001555)
131:   3452.13   0.043782  221.26  0.003958  ( 0.024136  0.030863 -0.049221)

* The epsilon (eps) is given for a Dirac delta lineshape.
** The dipole moment derivative (T) already includes vibrational overlap.

The first frequency considered to be a vibration is 7
The total number of vibrations considered is 125


--------------------------
THERMOCHEMISTRY AT 298.15K
--------------------------

Temperature         ... 298.15 K
Pressure            ... 1.00 atm
Total Mass          ... 354.36 AMU

Throughout the following assumptions are being made:
  (1) The electronic state is orbitally nondegenerate
  (2) There are no thermally accessible electronically excited states
  (3) Hindered rotations indicated by low frequency modes are not
      treated as such but are treated as vibrations and this may
      cause some error
  (4) All equations used are the standard statistical mechanics
      equations for an ideal gas
  (5) All vibrations are strictly harmonic

freq.      24.78  E(vib)   ...       0.56 
freq.      48.83  E(vib)   ...       0.53 
freq.      68.99  E(vib)   ...       0.50 
freq.      83.91  E(vib)   ...       0.48 
freq.      86.19  E(vib)   ...       0.48 
freq.      89.13  E(vib)   ...       0.47 
freq.      92.44  E(vib)   ...       0.47 
freq.     108.71  E(vib)   ...       0.45 
freq.     117.62  E(vib)   ...       0.44 
freq.     120.83  E(vib)   ...       0.44 
freq.     127.05  E(vib)   ...       0.43 
freq.     135.99  E(vib)   ...       0.42 
freq.     145.90  E(vib)   ...       0.41 
freq.     162.20  E(vib)   ...       0.39 
freq.     187.61  E(vib)   ...       0.36 
freq.     206.85  E(vib)   ...       0.35 
freq.     215.33  E(vib)   ...       0.34 
freq.     239.42  E(vib)   ...       0.31 
freq.     250.34  E(vib)   ...       0.30 
freq.     272.95  E(vib)   ...       0.29 
freq.     293.02  E(vib)   ...       0.27 
freq.     295.20  E(vib)   ...       0.27 
freq.     315.39  E(vib)   ...       0.25 
freq.     335.13  E(vib)   ...       0.24 
freq.     369.97  E(vib)   ...       0.21 
freq.     421.98  E(vib)   ...       0.18 
freq.     449.87  E(vib)   ...       0.17 
freq.     469.14  E(vib)   ...       0.16 
freq.     490.05  E(vib)   ...       0.15 
freq.     495.87  E(vib)   ...       0.14 
freq.     516.97  E(vib)   ...       0.13 
freq.     547.91  E(vib)   ...       0.12 
freq.     555.79  E(vib)   ...       0.12 
freq.     574.56  E(vib)   ...       0.11 
freq.     588.46  E(vib)   ...       0.10 
freq.     621.51  E(vib)   ...       0.09 
freq.     623.85  E(vib)   ...       0.09 
freq.     634.85  E(vib)   ...       0.09 
freq.     646.56  E(vib)   ...       0.09 
freq.     671.89  E(vib)   ...       0.08 
freq.     702.92  E(vib)   ...       0.07 
freq.     713.41  E(vib)   ...       0.07 
freq.     717.87  E(vib)   ...       0.07 
freq.     750.20  E(vib)   ...       0.06 
freq.     765.45  E(vib)   ...       0.06 
freq.     772.71  E(vib)   ...       0.05 
freq.     790.92  E(vib)   ...       0.05 
freq.     795.53  E(vib)   ...       0.05 
freq.     821.84  E(vib)   ...       0.05 
freq.     830.13  E(vib)   ...       0.04 
freq.     835.41  E(vib)   ...       0.04 
freq.     869.07  E(vib)   ...       0.04 
freq.     878.99  E(vib)   ...       0.04 
freq.     909.98  E(vib)   ...       0.03 
freq.     937.38  E(vib)   ...       0.03 
freq.     956.12  E(vib)   ...       0.03 
freq.     964.46  E(vib)   ...       0.03 
freq.     987.63  E(vib)   ...       0.02 
freq.     996.13  E(vib)   ...       0.02 
freq.    1003.25  E(vib)   ...       0.02 
freq.    1013.18  E(vib)   ...       0.02 
freq.    1047.07  E(vib)   ...       0.02 
freq.    1052.81  E(vib)   ...       0.02 
freq.    1072.41  E(vib)   ...       0.02 
freq.    1084.18  E(vib)   ...       0.02 
freq.    1090.75  E(vib)   ...       0.02 
freq.    1098.59  E(vib)   ...       0.02 
freq.    1147.90  E(vib)   ...       0.01 
freq.    1162.25  E(vib)   ...       0.01 
freq.    1171.44  E(vib)   ...       0.01 
freq.    1172.23  E(vib)   ...       0.01 
freq.    1174.28  E(vib)   ...       0.01 
freq.    1176.32  E(vib)   ...       0.01 
freq.    1198.92  E(vib)   ...       0.01 
freq.    1206.82  E(vib)   ...       0.01 
freq.    1207.31  E(vib)   ...       0.01 
freq.    1222.56  E(vib)   ...       0.01 
freq.    1239.05  E(vib)   ...       0.01 
freq.    1240.48  E(vib)   ...       0.01 
freq.    1261.09  E(vib)   ...       0.01 
freq.    1270.75  E(vib)   ...       0.01 
freq.    1297.35  E(vib)   ...       0.01 
freq.    1308.80  E(vib)   ...       0.01 
freq.    1332.40  E(vib)   ...       0.01 
freq.    1345.09  E(vib)   ...       0.01 
freq.    1355.96  E(vib)   ...       0.01 
freq.    1369.36  E(vib)   ...       0.01 
freq.    1374.64  E(vib)   ...       0.01 
freq.    1389.69  E(vib)   ...       0.00 
freq.    1418.95  E(vib)   ...       0.00 
freq.    1465.06  E(vib)   ...       0.00 
freq.    1465.38  E(vib)   ...       0.00 
freq.    1469.09  E(vib)   ...       0.00 
freq.    1472.02  E(vib)   ...       0.00 
freq.    1474.83  E(vib)   ...       0.00 
freq.    1482.26  E(vib)   ...       0.00 
freq.    1483.44  E(vib)   ...       0.00 
freq.    1499.28  E(vib)   ...       0.00 
freq.    1512.10  E(vib)   ...       0.00 
freq.    1541.53  E(vib)   ...       0.00 
freq.    1547.47  E(vib)   ...       0.00 
freq.    1597.63  E(vib)   ...       0.00 
freq.    1651.82  E(vib)   ...       0.00 
freq.    1665.23  E(vib)   ...       0.00 
freq.    1686.21  E(vib)   ...       0.00 
freq.    1794.56  E(vib)   ...       0.00 
freq.    2210.96  E(vib)   ...       0.00 
freq.    3039.85  E(vib)   ...       0.00 
freq.    3074.43  E(vib)   ...       0.00 
freq.    3111.88  E(vib)   ...       0.00 
freq.    3112.49  E(vib)   ...       0.00 
freq.    3129.50  E(vib)   ...       0.00 
freq.    3158.87  E(vib)   ...       0.00 
freq.    3166.19  E(vib)   ...       0.00 
freq.    3168.36  E(vib)   ...       0.00 
freq.    3185.43  E(vib)   ...       0.00 
freq.    3190.95  E(vib)   ...       0.00 
freq.    3196.18  E(vib)   ...       0.00 
freq.    3203.22  E(vib)   ...       0.00 
freq.    3214.33  E(vib)   ...       0.00 
freq.    3224.44  E(vib)   ...       0.00 
freq.    3230.61  E(vib)   ...       0.00 
freq.    3231.10  E(vib)   ...       0.00 
freq.    3248.46  E(vib)   ...       0.00 
freq.    3452.13  E(vib)   ...       0.00 

------------
INNER ENERGY
------------

The inner energy is: U= E(el) + E(ZPE) + E(vib) + E(rot) + E(trans)
    E(el)   - is the total energy from the electronic structure calculation
              = E(kin-el) + E(nuc-el) + E(el-el) + E(nuc-nuc)
    E(ZPE)  - the the zero temperature vibrational energy from the frequency calculation
    E(vib)  - the the finite temperature correction to E(ZPE) due to population
              of excited vibrational states
    E(rot)  - is the rotational thermal energy
    E(trans)- is the translational thermal energy

Summary of contributions to the inner energy U:
Electronic energy                ...  -1219.41952698 Eh
Zero point energy                ...      0.34300631 Eh     215.24 kcal/mol
Thermal vibrational correction   ...      0.02023359 Eh      12.70 kcal/mol
Thermal rotational correction    ...      0.00141627 Eh       0.89 kcal/mol
Thermal translational correction ...      0.00141627 Eh       0.89 kcal/mol
-----------------------------------------------------------------------
Total thermal energy                  -1219.05345454 Eh


Summary of corrections to the electronic energy:
(perhaps to be used in another calculation)
Total thermal correction                  0.02306613 Eh      14.47 kcal/mol
Non-thermal (ZPE) correction              0.34300631 Eh     215.24 kcal/mol
-----------------------------------------------------------------------
Total correction                          0.36607244 Eh     229.71 kcal/mol


--------
ENTHALPY
--------

The enthalpy is H = U + kB*T
                kB is Boltzmann's constant
Total free energy                 ...  -1219.05345454 Eh 
Thermal Enthalpy correction       ...      0.00094421 Eh       0.59 kcal/mol
-----------------------------------------------------------------------
Total Enthalpy                    ...  -1219.05251033 Eh


Note: Only C1 symmetry has been detected, increase convergence thresholds 
      if your molecule has a higher symmetry. Symmetry factor of 1.0 is   
      used for the rotational entropy correction. 
 

Note: Rotational entropy computed according to Herzberg 
Infrared and Raman Spectra, Chapter V,1, Van Nostrand Reinhold, 1945 
Point Group:  C1, Symmetry Number:   1  
Rotational constants in cm-1:     0.011465     0.006803     0.005629 

Vibrational entropy computed according to the QRRHO of S. Grimme
Chem.Eur.J. 2012 18 9955


-------
ENTROPY
-------

The entropy contributions are T*S = T*(S(el)+S(vib)+S(rot)+S(trans))
     S(el)   - electronic entropy
     S(vib)  - vibrational entropy
     S(rot)  - rotational entropy
     S(trans)- translational entropy
The entropies will be listed as multiplied by the temperature to get
units of energy

Electronic entropy                ...      0.00000000 Eh      0.00 kcal/mol
Vibrational entropy               ...      0.03595757 Eh     22.56 kcal/mol
Rotational entropy                ...      0.01642162 Eh     10.30 kcal/mol
Translational entropy             ...      0.02066304 Eh     12.97 kcal/mol
-----------------------------------------------------------------------
Final entropy term                ...      0.07304222 Eh     45.83 kcal/mol

In case the symmetry of your molecule has not been determined correctly
or in case you have a reason to use a different symmetry number we print 
out the resulting rotational entropy values for sn=1,12 :
 --------------------------------------------------------
|  sn= 1 | S(rot)=       0.01642162 Eh     10.30 kcal/mol|
|  sn= 2 | S(rot)=       0.01576716 Eh      9.89 kcal/mol|
|  sn= 3 | S(rot)=       0.01538433 Eh      9.65 kcal/mol|
|  sn= 4 | S(rot)=       0.01511271 Eh      9.48 kcal/mol|
|  sn= 5 | S(rot)=       0.01490202 Eh      9.35 kcal/mol|
|  sn= 6 | S(rot)=       0.01472987 Eh      9.24 kcal/mol|
|  sn= 7 | S(rot)=       0.01458433 Eh      9.15 kcal/mol|
|  sn= 8 | S(rot)=       0.01445825 Eh      9.07 kcal/mol|
|  sn= 9 | S(rot)=       0.01434704 Eh      9.00 kcal/mol|
|  sn=10 | S(rot)=       0.01424756 Eh      8.94 kcal/mol|
|  sn=11 | S(rot)=       0.01415757 Eh      8.88 kcal/mol|
|  sn=12 | S(rot)=       0.01407542 Eh      8.83 kcal/mol|
 --------------------------------------------------------


-------------------
GIBBS FREE ENERGY
-------------------

The Gibbs free energy is G = H - T*S

Total enthalpy                    ...  -1219.05251033 Eh 
Total entropy correction          ...     -0.07304222 Eh    -45.83 kcal/mol
-----------------------------------------------------------------------
Final Gibbs free energy         ...  -1219.12555256 Eh

For completeness - the Gibbs free energy minus the electronic energy
G-E(el)                           ...      0.29397442 Eh    184.47 kcal/mol


Timings for individual modules:

Sum of individual times         ...    10786.856 sec (= 179.781 min)
GTO integral calculation        ...      110.640 sec (=   1.844 min)   1.0 %
SCF iterations                  ...     5842.352 sec (=  97.373 min)  54.2 %
SCF Gradient evaluation         ...     1532.205 sec (=  25.537 min)  14.2 %
Geometry relaxation             ...        6.448 sec (=   0.107 min)   0.1 %
Analytical frequency calculation...     3295.210 sec (=  54.920 min)  30.5 %
                             ****ORCA TERMINATED NORMALLY****
TOTAL RUN TIME: 0 days 3 hours 1 minutes 36 seconds 439 msec
