
                                 *****************
                                 * O   R   C   A *
                                 *****************

                                            #,                                       
                                            ###                                      
                                            ####                                     
                                            #####                                    
                                            ######                                   
                                           ########,                                 
                                     ,,################,,,,,                         
                               ,,#################################,,                 
                          ,,##########################################,,             
                       ,#########################################, ''#####,          
                    ,#############################################,,   '####,        
                  ,##################################################,,,,####,       
                ,###########''''           ''''###############################       
              ,#####''   ,,,,##########,,,,          '''####'''          '####       
            ,##' ,,,,###########################,,,                        '##       
           ' ,,###''''                  '''############,,,                           
         ,,##''                                '''############,,,,        ,,,,,,###''
      ,#''                                            '''#######################'''  
     '                                                          ''''####''''         
             ,#######,   #######,   ,#######,      ##                                
            ,#'     '#,  ##    ##  ,#'     '#,    #''#        ######   ,####,        
            ##       ##  ##   ,#'  ##            #'  '#       #        #'  '#        
            ##       ##  #######   ##           ,######,      #####,   #    #        
            '#,     ,#'  ##    ##  '#,     ,#' ,#      #,         ##   #,  ,#        
             '#######'   ##     ##  '#######'  #'      '#     #####' # '####'        



                  #######################################################
                  #                        -***-                        #
                  #          Department of theory and spectroscopy      #
                  #    Directorship and core code : Frank Neese         #
                  #        Max Planck Institute fuer Kohlenforschung    #
                  #                Kaiser Wilhelm Platz 1               #
                  #                 D-45470 Muelheim/Ruhr               #
                  #                      Germany                        #
                  #                                                     #
                  #                  All rights reserved                #
                  #                        -***-                        #
                  #######################################################


                         Program Version 5.0.4 -  RELEASE  -


 With contributions from (in alphabetic order):
   Daniel Aravena         : Magnetic Suceptibility
   Michael Atanasov       : Ab Initio Ligand Field Theory (pilot matlab implementation)
   Alexander A. Auer      : GIAO ZORA, VPT2 properties, NMR spectrum
   Ute Becker             : Parallelization
   Giovanni Bistoni       : ED, misc. LED, open-shell LED, HFLD
   Martin Brehm           : Molecular dynamics
   Dmytro Bykov           : SCF Hessian
   Vijay G. Chilkuri      : MRCI spin determinant printing, contributions to CSF-ICE
   Dipayan Datta          : RHF DLPNO-CCSD density
   Achintya Kumar Dutta   : EOM-CC, STEOM-CC
   Dmitry Ganyushin       : Spin-Orbit,Spin-Spin,Magnetic field MRCI
   Miquel Garcia          : C-PCM and meta-GGA Hessian, CC/C-PCM, Gaussian charge scheme
   Yang Guo               : DLPNO-NEVPT2, F12-NEVPT2, CIM, IAO-localization
   Andreas Hansen         : Spin unrestricted coupled pair/coupled cluster methods
   Benjamin Helmich-Paris : MC-RPA, TRAH-SCF, COSX integrals
   Lee Huntington         : MR-EOM, pCC
   Robert Izsak           : Overlap fitted RIJCOSX, COSX-SCS-MP3, EOM
   Marcus Kettner         : VPT2
   Christian Kollmar      : KDIIS, OOCD, Brueckner-CCSD(T), CCSD density, CASPT2, CASPT2-K
   Simone Kossmann        : Meta GGA functionals, TD-DFT gradient, OOMP2, MP2 Hessian
   Martin Krupicka        : Initial AUTO-CI
   Lucas Lang             : DCDCAS
   Marvin Lechner         : AUTO-CI (C++ implementation), FIC-MRCC
   Dagmar Lenk            : GEPOL surface, SMD
   Dimitrios Liakos       : Extrapolation schemes; Compound Job, initial MDCI parallelization
   Dimitrios Manganas     : Further ROCIS development; embedding schemes
   Dimitrios Pantazis     : SARC Basis sets
   Anastasios Papadopoulos: AUTO-CI, single reference methods and gradients
   Taras Petrenko         : DFT Hessian,TD-DFT gradient, ASA, ECA, R-Raman, ABS, FL, XAS/XES, NRVS
   Peter Pinski           : DLPNO-MP2, DLPNO-MP2 Gradient
   Christoph Reimann      : Effective Core Potentials
   Marius Retegan         : Local ZFS, SOC
   Christoph Riplinger    : Optimizer, TS searches, QM/MM, DLPNO-CCSD(T), (RO)-DLPNO pert. Triples
   Tobias Risthaus        : Range-separated hybrids, TD-DFT gradient, RPA, STAB
   Michael Roemelt        : Original ROCIS implementation
   Masaaki Saitow         : Open-shell DLPNO-CCSD energy and density
   Barbara Sandhoefer     : DKH picture change effects
   Avijit Sen             : IP-ROCIS
   Kantharuban Sivalingam : CASSCF convergence, NEVPT2, FIC-MRCI
   Bernardo de Souza      : ESD, SOC TD-DFT
   Georgi Stoychev        : AutoAux, RI-MP2 NMR, DLPNO-MP2 response
   Willem Van den Heuvel  : Paramagnetic NMR
   Boris Wezisla          : Elementary symmetry handling
   Frank Wennmohs         : Technical directorship


 We gratefully acknowledge several colleagues who have allowed us to
 interface, adapt or use parts of their codes:
   Stefan Grimme, W. Hujo, H. Kruse, P. Pracht,  : VdW corrections, initial TS optimization,
                  C. Bannwarth, S. Ehlert          DFT functionals, gCP, sTDA/sTD-DF
   Ed Valeev, F. Pavosevic, A. Kumar             : LibInt (2-el integral package), F12 methods
   Garnet Chan, S. Sharma, J. Yang, R. Olivares  : DMRG
   Ulf Ekstrom                                   : XCFun DFT Library
   Mihaly Kallay                                 : mrcc  (arbitrary order and MRCC methods)
   Jiri Pittner, Ondrej Demel                    : Mk-CCSD
   Frank Weinhold                                : gennbo (NPA and NBO analysis)
   Christopher J. Cramer and Donald G. Truhlar   : smd solvation model
   Lars Goerigk                                  : TD-DFT with DH, B97 family of functionals
   V. Asgeirsson, H. Jonsson                     : NEB implementation
   FAccTs GmbH                                   : IRC, NEB, NEB-TS, DLPNO-Multilevel, CI-OPT
                                                   MM, QMMM, 2- and 3-layer-ONIOM, Crystal-QMMM,
                                                   LR-CPCM, SF, NACMEs, symmetry and pop. for TD-DFT,
                                                   nearIR, NL-DFT gradient (VV10), updates on ESD,
                                                   ML-optimized integration grids
   S Lehtola, MJT Oliveira, MAL Marques          : LibXC Library
   Liviu Ungur et al                             : ANISO software


 Your calculation uses the libint2 library for the computation of 2-el integrals
 For citations please refer to: http://libint.valeyev.net

 Your ORCA version has been built with support for libXC version: 5.1.0
 For citations please refer to: https://tddft.org/programs/libxc/

 This ORCA versions uses:
   CBLAS   interface :  Fast vector & matrix operations
   LAPACKE interface :  Fast linear algebra routines
   SCALAPACK package :  Parallel linear algebra routines
   Shared memory     :  Shared parallel matrices
   BLAS/LAPACK       :  OpenBLAS 0.3.15  USE64BITINT DYNAMIC_ARCH NO_AFFINITY Haswell SINGLE_THREADED
        Core in use  :  Haswell
   Copyright (c) 2011-2014, The OpenBLAS Project


Your calculation utilizes the atom-pairwise dispersion correction
with the Becke-Johnson damping scheme (D3BJ)
Cite in your paper:
S.Grimme, S.Ehrlich, L.Goerigk, J Comput Chem, (2011), 32, 1456–1465 
S.Grimme, J.Antony, S.Ehrlich and H.Krieg, J.Chem.Phys., 132, (2010), 154104 
   

================================================================================

----- Orbital basis set information -----
Your calculation utilizes the basis: def2-TZVP
   F. Weigend and R. Ahlrichs, Phys. Chem. Chem. Phys. 7, 3297 (2005).

----- AuxJ basis set information -----
Your calculation utilizes the auxiliary basis: def2/J
   F. Weigend, Phys. Chem. Chem. Phys. 8, 1057 (2006).

================================================================================
                                        WARNINGS
                       Please study these warnings very carefully!
================================================================================


WARNING: Geometry Optimization
  ===> : Switching off AutoStart
         For restart on a previous wavefunction, please use MOREAD

INFO   : the flag for use of the SHARK integral package has been found!

================================================================================
                                       INPUT FILE
================================================================================
NAME = TS1_CN/TS1_CN.inp
|  1> %pal nprocs 24 end
|  2> ! PBE0 D3BJ def2-TZVP TightSCF OPTTS FREQ TightOpt
|  3> ! CPCM(dmso)
|  4> %scf
|  5> MaxIter 800
|  6> end
|  7> 
|  8> %geom
|  9> MaxIter 800
| 10> MaxStep 0.15
| 11> end
| 12> 
| 13> *xyz 0 1
| 14> C       4.15500300      0.64857300      0.68188900
| 15> C       4.02357300      1.38180400     -0.53166200
| 16> C       2.77105500      1.59838000     -1.02481000
| 17> N       1.66730500      1.17553200     -0.35131500
| 18> C       1.74239500      0.40773300      0.80395500
| 19> C       3.05220600      0.19941300      1.35375200
| 20> C       0.35967400      1.11625000     -0.94515100
| 21> C      -0.56984800      2.11875700     -0.27241100
| 22> O      -0.25559500      2.83777700      0.64126300
| 23> O      -1.73220900      2.15860000     -0.90147400
| 24> C      -2.71722600      3.04371300     -0.37935800
| 25> H       5.15003300      0.47805500      1.10101300
| 26> H       2.57687900      2.11952200     -1.96420600
| 27> H       0.90604700      0.55102800      1.49477500
| 28> H       3.13404400     -0.31612300      2.31132800
| 29> H       0.42422500      1.43609700     -1.99459800
| 30> H      -3.59323900      2.94136100     -1.02852900
| 31> H      -2.35025400      4.07945500     -0.39069200
| 32> C       0.86657900     -1.16718600      0.02404800
| 33> C      -0.06111300     -0.42413600     -0.92861700
| 34> C      -1.52273300     -0.73765600     -0.74353900
| 35> C      -2.23710700     -1.37504100     -1.75580000
| 36> C      -3.58301300     -1.71012600     -1.59276300
| 37> C      -4.22107500     -1.40621500     -0.39386500
| 38> C      -3.53003500     -0.76659800      0.63791000
| 39> C      -2.18848700     -0.42845100      0.45826400
| 40> O      -1.43828300      0.21539300      1.37523700
| 41> C      -1.95773800      0.46463300      2.66156000
| 42> N       1.99896700     -1.79879300     -0.59656900
| 43> O       2.33122500     -1.42419200     -1.71090100
| 44> H       0.21710400     -0.78377000     -1.92631200
| 45> H      -1.72312000     -1.61582600     -2.69039700
| 46> H      -4.12472400     -2.20927100     -2.39892600
| 47> H      -5.27262300     -1.66637400     -0.24876800
| 48> H      -4.04125800     -0.53084100      1.57179000
| 49> H      -2.84914900      1.11062000      2.61722100
| 50> H      -1.16608600      0.98060000      3.21815800
| 51> H      -2.21077100     -0.47885100      3.17145000
| 52> O       2.64626300     -2.59103600      0.07119300
| 53> H      -2.97494800      2.76105700      0.65127100
| 54> H       4.89343200      1.75788400     -1.06913500
| 55> C       0.35074800     -1.96428700      1.08942900
| 56> N      -0.06114700     -2.57005500      1.99043600
| 57> *
| 58> 
| 59>                          ****END OF INPUT****
================================================================================

                       *****************************
                       * Geometry Optimization Run *
                       *****************************

Geometry optimization settings:
Update method            Update   .... Bofill
Choice of coordinates    CoordSys .... Z-matrix Internals
Initial Hessian          InHess   .... Almoef's Model

Convergence Tolerances:
Energy Change            TolE     ....  1.0000e-06 Eh
Max. Gradient            TolMAXG  ....  1.0000e-04 Eh/bohr
RMS Gradient             TolRMSG  ....  3.0000e-05 Eh/bohr
Max. Displacement        TolMAXD  ....  1.0000e-03 bohr
RMS Displacement         TolRMSD  ....  6.0000e-04 bohr
Strict Convergence                ....  False
------------------------------------------------------------------------------
                        ORCA OPTIMIZATION COORDINATE SETUP
------------------------------------------------------------------------------

The optimization will be done in new redundant internal coordinates
Making redundant internal coordinates   ...  (new redundants) done
Following TS mode number                ...     0
Evaluating the initial hessian          ...  (Almloef) done
Evaluating the coordinates              ...  done
Calculating the B-matrix                .... done
Calculating the G-matrix                .... done
Diagonalizing the G-matrix              .... done
Small eigenvalue found = 3.890e-03
Small eigenvalue found = 6.309e-03
Small eigenvalue found = 9.455e-03
Small eigenvalue found = 2.019e-02
Small eigenvalue found = 2.292e-02
Small eigenvalue found = 2.728e-02
The first mode is                       ....  114
The number of degrees of freedom        ....  123

    -----------------------------------------------------------------
                    Redundant Internal Coordinates


    -----------------------------------------------------------------
         Definition                    Initial Value    Approx d2E/dq
    -----------------------------------------------------------------
      1. B(C   1,C   0)                  1.4239         0.551554   
      2. B(C   2,C   1)                  1.3634         0.688894   
      3. B(N   3,C   2)                  1.3604         0.623903   
      4. B(C   4,N   3)                  1.3892         0.561299   
      5. B(C   5,C   4)                  1.4357         0.528205   
      6. B(C   5,C   0)                  1.3672         0.679319   
      7. B(C   6,N   3)                  1.4374         0.470205   
      8. B(C   7,C   6)                  1.5237         0.382345   
      9. B(O   8,C   7)                  1.2044         1.106652   
     10. B(O   9,C   7)                  1.3223         0.717693   
     11. B(C  10,O   9)                  1.4235         0.494839   
     12. B(H  11,C   0)                  1.0931         0.356047   
     13. B(H  12,C   2)                  1.0917         0.357889   
     14. B(H  13,C   4)                  1.0942         0.354604   
     15. B(H  14,C   5)                  1.0906         0.359296   
     16. B(H  15,C   6)                  1.0990         0.348385   
     17. B(H  16,C  10)                  1.0951         0.353384   
     18. B(H  17,C  10)                  1.0989         0.348530   
     19. B(C  18,C   4)                  1.9636         0.075965   
     20. B(C  19,C  18)                  1.5233         0.382947   
     21. B(C  19,C   6)                  1.5969         0.292163   
     22. B(C  20,C  19)                  1.5063         0.407587   
     23. B(C  21,C  20)                  1.3933         0.617286   
     24. B(C  22,C  21)                  1.3965         0.609963   
     25. B(C  23,C  22)                  1.3917         0.620896   
     26. B(C  24,C  23)                  1.3969         0.609257   
     27. B(C  25,C  24)                  1.3951         0.613149   
     28. B(C  25,C  20)                  1.4082         0.584282   
     29. B(O  26,C  25)                  1.3484         0.651999   
     30. B(C  27,O  26)                  1.4095         0.520986   
     31. B(N  28,C  18)                  1.4375         0.470000   
     32. B(O  29,N  28)                  1.2217         0.930220   
     33. B(H  30,C  19)                  1.0964         0.351707   
     34. B(H  31,C  21)                  1.0934         0.355566   
     35. B(H  32,C  22)                  1.0920         0.357445   
     36. B(H  33,C  23)                  1.0929         0.356249   
     37. B(H  34,C  24)                  1.0904         0.359517   
     38. B(H  35,C  27)                  1.1018         0.344872   
     39. B(H  36,C  27)                  1.0967         0.351354   
     40. B(H  37,C  27)                  1.1019         0.344702   
     41. B(O  38,N  28)                  1.2217         0.930094   
     42. B(H  39,C  10)                  1.0993         0.347976   
     43. B(H  40,C   1)                  1.0895         0.360788   
     44. B(C  41,C  18)                  1.4271         0.545278   
     45. B(N  42,C  41)                  1.1612         1.296831   
     46. A(C   5,C   0,H  11)          119.6415         0.357734   
     47. A(C   1,C   0,H  11)          119.4148         0.345356   
     48. A(C   1,C   0,C   5)          120.8983         0.432072   
     49. A(C   0,C   1,H  40)          121.6343         0.346124   
     50. A(C   0,C   1,C   2)          118.3494         0.433160   
     51. A(C   2,C   1,H  40)          120.0135         0.359395   
     52. A(N   3,C   2,H  12)          115.4729         0.350744   
     53. A(C   1,C   2,H  12)          123.3998         0.358902   
     54. A(C   1,C   2,N   3)          121.1253         0.439985   
     55. A(C   4,N   3,C   6)          111.7129         0.400720   
     56. A(C   2,N   3,C   4)          122.6602         0.421327   
     57. A(C   2,N   3,C   6)          123.1201         0.408270   
     58. A(H  13,C   4,C  18)           90.8525         0.252521   
     59. A(C   5,C   4,C  18)          116.2721         0.295910   
     60. A(N   3,C   4,C  18)           95.0994         0.297050   
     61. A(N   3,C   4,C   5)          116.6138         0.411690   
     62. A(N   3,C   4,H  13)          114.2898         0.344022   
     63. A(C   5,C   4,H  13)          118.3304         0.342625   
     64. A(C   4,C   5,H  14)          118.2473         0.343380   
     65. A(C   0,C   5,H  14)          121.7512         0.358287   
     66. A(C   0,C   5,C   4)          120.0008         0.428729   
     67. A(C   7,C   6,C  19)          117.9915         0.349871   
     68. A(N   3,C   6,C  19)          105.9752         0.360125   
     69. A(C   7,C   6,H  15)          105.4240         0.323794   
     70. A(N   3,C   6,H  15)          109.2125         0.333023   
     71. A(N   3,C   6,C   7)          110.2085         0.377146   
     72. A(H  15,C   6,C  19)          107.8241         0.309924   
     73. A(C   6,C   7,O   9)          110.2457         0.406088   
     74. A(C   6,C   7,O   8)          124.6505         0.438742   
     75. A(O   8,C   7,O   9)          124.9102         0.488999   
     76. A(C   7,O   9,C  10)          116.9064         0.422383   
     77. A(H  16,C  10,H  39)          110.1317         0.288429   
     78. A(H  16,C  10,H  17)          110.4328         0.288501   
     79. A(O   9,C  10,H  17)          110.5605         0.335883   
     80. A(H  17,C  10,H  39)          109.2871         0.287806   
     81. A(O   9,C  10,H  39)          110.2563         0.335794   
     82. A(O   9,C  10,H  16)          106.1402         0.336657   
     83. A(C  19,C  18,N  28)          115.0920         0.377221   
     84. A(C   4,C  18,N  28)           99.9349         0.288856   
     85. A(C  19,C  18,C  41)          121.2812         0.389550   
     86. A(C   4,C  18,C  41)          108.2223         0.297406   
     87. A(C   4,C  18,C  19)           97.4000         0.281385   
     88. A(N  28,C  18,C  41)          111.2008         0.401222   
     89. A(C  20,C  19,H  30)          106.8437         0.327728   
     90. A(C  18,C  19,H  30)          104.7474         0.324382   
     91. A(C   6,C  19,H  30)          103.8932         0.310399   
     92. A(C  18,C  19,C  20)          114.3673         0.370390   
     93. A(C   6,C  19,C  20)          117.2410         0.353674   
     94. A(C   6,C  19,C  18)          108.4536         0.349964   
     95. A(C  21,C  20,C  25)          118.5595         0.429125   
     96. A(C  19,C  20,C  25)          121.1910         0.398626   
     97. A(C  19,C  20,C  21)          120.2299         0.402501   
     98. A(C  22,C  21,H  31)          119.9976         0.351183   
     99. A(C  20,C  21,H  31)          118.7314         0.351892   
    100. A(C  20,C  21,C  22)          121.2706         0.432452   
    101. A(C  23,C  22,H  32)          120.5534         0.352553   
    102. A(C  21,C  22,H  32)          120.1038         0.351496   
    103. A(C  21,C  22,C  23)          119.3423         0.432906   
    104. A(C  24,C  23,H  33)          119.1381         0.351228   
    105. A(C  22,C  23,H  33)          120.2320         0.352354   
    106. A(C  22,C  23,C  24)          120.6298         0.432816   
    107. A(C  25,C  24,H  34)          120.5769         0.352149   
    108. A(C  23,C  24,H  34)          119.9773         0.351771   
    109. A(C  23,C  24,C  25)          119.4448         0.431840   
    110. A(C  24,C  25,O  26)          124.2750         0.434277   
    111. A(C  20,C  25,O  26)          114.9716         0.430529   
    112. A(C  20,C  25,C  24)          120.7485         0.428608   
    113. A(C  25,O  26,C  27)          120.0014         0.419042   
    114. A(O  26,C  27,H  36)          106.2806         0.339233   
    115. A(O  26,C  27,H  35)          111.4161         0.338181   
    116. A(H  36,C  27,H  37)          109.4965         0.287744   
    117. A(H  35,C  27,H  37)          109.5641         0.286908   
    118. A(O  26,C  27,H  37)          110.8260         0.338153   
    119. A(H  35,C  27,H  36)          109.1845         0.287766   
    120. A(C  18,N  28,O  29)          118.2502         0.435511   
    121. A(O  29,N  28,O  38)          123.5943         0.490005   
    122. A(C  18,N  28,O  38)          117.7959         0.435501   
    123. L(C  18,C  41,N  42,C   4, 2) 179.0762         0.481852   
    124. L(C  18,C  41,N  42,C   4, 1) 177.3463         0.481852   
    125. D(H  40,C   1,C   0,H  11)      1.5491         0.020815   
    126. D(C   2,C   1,C   0,H  11)   -179.0639         0.020815   
    127. D(H  40,C   1,C   0,C   5)    179.0918         0.020815   
    128. D(C   2,C   1,C   0,C   5)     -1.5212         0.020815   
    129. D(H  12,C   2,C   1,H  40)      1.5486         0.033336   
    130. D(N   3,C   2,C   1,C   0)      2.6804         0.033336   
    131. D(H  12,C   2,C   1,C   0)   -177.8487         0.033336   
    132. D(N   3,C   2,C   1,H  40)   -177.9223         0.033336   
    133. D(C   6,N   3,C   2,C   1)   -166.1734         0.031551   
    134. D(C   6,N   3,C   2,H  12)     14.3159         0.031551   
    135. D(C   4,N   3,C   2,C   1)     -5.6338         0.031551   
    136. D(C   4,N   3,C   2,H  12)    174.8555         0.031551   
    137. D(H  13,C   4,N   3,C   2)    150.8288         0.027342   
    138. D(C   5,C   4,N   3,C   2)      6.8813         0.027342   
    139. D(C   5,C   4,N   3,C   6)    169.4035         0.027342   
    140. D(C  18,C   4,N   3,C   6)     46.5992         0.027342   
    141. D(C  18,C   4,N   3,C   2)   -115.9231         0.027342   
    142. D(H  13,C   4,N   3,C   6)    -46.6490         0.027342   
    143. D(H  14,C   5,C   4,C  18)    -74.8514         0.020652   
    144. D(H  14,C   5,C   4,H  13)     31.7061         0.020652   
    145. D(C   0,C   5,C   4,C  18)    105.4409         0.020652   
    146. D(H  14,C   5,C   4,N   3)    174.1584         0.020652   
    147. D(H  14,C   5,C   0,H  11)      0.9072         0.032343   
    148. D(C   0,C   5,C   4,N   3)     -5.5493         0.020652   
    149. D(C   0,C   5,C   4,H  13)   -148.0015         0.020652   
    150. D(H  14,C   5,C   0,C   1)   -176.6300         0.032343   
    151. D(C   4,C   5,C   0,H  11)   -179.3957         0.032343   
    152. D(C   4,C   5,C   0,C   1)      3.0672         0.032343   
    153. D(C   7,C   6,N   3,C   4)     83.5229         0.018891   
    154. D(C   7,C   6,N   3,C   2)   -114.0488         0.018891   
    155. D(H  15,C   6,N   3,C   2)      1.3169         0.018891   
    156. D(C  19,C   6,N   3,C   4)    -45.2030         0.018891   
    157. D(C  19,C   6,N   3,C   2)    117.2253         0.018891   
    158. D(H  15,C   6,N   3,C   4)   -161.1114         0.018891   
    159. D(O   9,C   7,C   6,C  19)    -64.2396         0.010900   
    160. D(O   9,C   7,C   6,N   3)    173.9050         0.010900   
    161. D(O   9,C   7,C   6,H  15)     56.1744         0.010900   
    162. D(O   8,C   7,C   6,C  19)    120.6135         0.010900   
    163. D(O   8,C   7,C   6,H  15)   -118.9725         0.010900   
    164. D(O   8,C   7,C   6,N   3)     -1.2419         0.010900   
    165. D(C  10,O   9,C   7,O   8)     -5.5129         0.038762   
    166. D(C  10,O   9,C   7,C   6)    179.3556         0.038762   
    167. D(H  39,C  10,O   9,C   7)    -61.0966         0.019346   
    168. D(H  17,C  10,O   9,C   7)     59.8643         0.019346   
    169. D(H  16,C  10,O   9,C   7)    179.6468         0.019346   
    170. D(C  41,C  18,C   4,H  13)    -44.3511         0.001844   
    171. D(C  41,C  18,C   4,C   5)     78.1033         0.001844   
    172. D(C  41,C  18,C   4,N   3)   -158.8301         0.001844   
    173. D(N  28,C  18,C   4,C   5)    -38.2684         0.001844   
    174. D(N  28,C  18,C   4,N   3)     84.7983         0.001844   
    175. D(C  19,C  18,C   4,H  13)     82.0904         0.001844   
    176. D(N  28,C  18,C   4,H  13)   -160.7227         0.001844   
    177. D(C  19,C  18,C   4,N   3)    -32.3886         0.001844   
    178. D(C  19,C  18,C   4,C   5)   -155.4553         0.001844   
    179. D(H  30,C  19,C   6,C   7)    140.3175         0.007167   
    180. D(H  30,C  19,C   6,N   3)    -95.6905         0.007167   
    181. D(C  20,C  19,C   6,H  15)    -96.4301         0.007167   
    182. D(C  20,C  19,C   6,C   7)     22.7318         0.007167   
    183. D(C  20,C  19,C   6,N   3)    146.7238         0.007167   
    184. D(C  18,C  19,C   6,H  15)    132.1933         0.007167   
    185. D(C  18,C  19,C   6,C   7)   -108.6448         0.007167   
    186. D(H  30,C  19,C   6,H  15)     21.1556         0.007167   
    187. D(C  18,C  19,C   6,N   3)     15.3472         0.007167   
    188. D(H  30,C  19,C  18,C  41)   -123.4590         0.011679   
    189. D(H  30,C  19,C  18,C   4)    119.9335         0.011679   
    190. D(C  20,C  19,C  18,C  41)     -6.8334         0.011679   
    191. D(C  20,C  19,C  18,N  28)    131.9085         0.011679   
    192. D(C  20,C  19,C  18,C   4)   -123.4409         0.011679   
    193. D(C   6,C  19,C  18,C  41)    126.0788         0.011679   
    194. D(H  30,C  19,C  18,N  28)     15.2828         0.011679   
    195. D(C   6,C  19,C  18,N  28)    -95.1793         0.011679   
    196. D(C   6,C  19,C  18,C   4)      9.4713         0.011679   
    197. D(C  25,C  20,C  19,H  30)    178.5249         0.012309   
    198. D(C  25,C  20,C  19,C  18)     63.1143         0.012309   
    199. D(C  25,C  20,C  19,C   6)    -65.4964         0.012309   
    200. D(C  21,C  20,C  19,H  30)      0.1582         0.012309   
    201. D(C  21,C  20,C  19,C  18)   -115.2524         0.012309   
    202. D(C  21,C  20,C  19,C   6)    116.1370         0.012309   
    203. D(H  31,C  21,C  20,C  25)    179.9586         0.026353   
    204. D(H  31,C  21,C  20,C  19)     -1.6322         0.026353   
    205. D(C  22,C  21,C  20,C  25)     -0.2502         0.026353   
    206. D(C  22,C  21,C  20,C  19)    178.1590         0.026353   
    207. D(H  32,C  22,C  21,H  31)     -0.2283         0.025696   
    208. D(H  32,C  22,C  21,C  20)    179.9831         0.025696   
    209. D(C  23,C  22,C  21,H  31)    179.5239         0.025696   
    210. D(C  23,C  22,C  21,C  20)     -0.2647         0.025696   
    211. D(H  33,C  23,C  22,H  32)      0.0576         0.026681   
    212. D(H  33,C  23,C  22,C  21)   -179.6935         0.026681   
    213. D(C  24,C  23,C  22,H  32)   -179.9376         0.026681   
    214. D(C  24,C  23,C  22,C  21)      0.3113         0.026681   
    215. D(H  34,C  24,C  23,H  33)     -0.1762         0.025633   
    216. D(H  34,C  24,C  23,C  22)    179.8190         0.025633   
    217. D(C  25,C  24,C  23,H  33)   -179.8337         0.025633   
    218. D(C  25,C  24,C  23,C  22)      0.1615         0.025633   
    219. D(O  26,C  25,C  24,H  34)     -1.1894         0.025980   
    220. D(O  26,C  25,C  24,C  23)    178.4661         0.025980   
    221. D(C  20,C  25,C  24,H  34)    179.6543         0.025980   
    222. D(C  20,C  25,C  24,C  23)     -0.6903         0.025980   
    223. D(O  26,C  25,C  20,C  21)   -178.4998         0.023471   
    224. D(O  26,C  25,C  20,C  19)      3.1069         0.023471   
    225. D(C  24,C  25,C  20,C  21)      0.7311         0.023471   
    226. D(C  24,C  25,C  20,C  19)   -177.6622         0.023471   
    227. D(C  27,O  26,C  25,C  24)      6.7615         0.031433   
    228. D(C  27,O  26,C  25,C  20)   -174.0384         0.031433   
    229. D(H  37,C  27,O  26,C  25)     60.4097         0.021523   
    230. D(H  36,C  27,O  26,C  25)    179.2970         0.021523   
    231. D(H  35,C  27,O  26,C  25)    -61.8687         0.021523   
    232. D(O  38,N  28,C  18,C  41)    -25.0120         0.018874   
    233. D(O  38,N  28,C  18,C  19)   -167.8190         0.018874   
    234. D(O  38,N  28,C  18,C   4)     89.0957         0.018874   
    235. D(O  29,N  28,C  18,C  41)    161.6215         0.018874   
    236. D(O  29,N  28,C  18,C  19)     18.8145         0.018874   
    237. D(O  29,N  28,C  18,C   4)    -84.2708         0.018874   
    -----------------------------------------------------------------

Number of atoms                         .... 43
Number of degrees of freedom            .... 237

         *************************************************************
         *                GEOMETRY OPTIMIZATION CYCLE   1            *
         *************************************************************
---------------------------------
CARTESIAN COORDINATES (ANGSTROEM)
---------------------------------
  C      4.155003    0.648573    0.681889
  C      4.023573    1.381804   -0.531662
  C      2.771055    1.598380   -1.024810
  N      1.667305    1.175532   -0.351315
  C      1.742395    0.407733    0.803955
  C      3.052206    0.199413    1.353752
  C      0.359674    1.116250   -0.945151
  C     -0.569848    2.118757   -0.272411
  O     -0.255595    2.837777    0.641263
  O     -1.732209    2.158600   -0.901474
  C     -2.717226    3.043713   -0.379358
  H      5.150033    0.478055    1.101013
  H      2.576879    2.119522   -1.964206
  H      0.906047    0.551028    1.494775
  H      3.134044   -0.316123    2.311328
  H      0.424225    1.436097   -1.994598
  H     -3.593239    2.941361   -1.028529
  H     -2.350254    4.079455   -0.390692
  C      0.866579   -1.167186    0.024048
  C     -0.061113   -0.424136   -0.928617
  C     -1.522733   -0.737656   -0.743539
  C     -2.237107   -1.375041   -1.755800
  C     -3.583013   -1.710126   -1.592763
  C     -4.221075   -1.406215   -0.393865
  C     -3.530035   -0.766598    0.637910
  C     -2.188487   -0.428451    0.458264
  O     -1.438283    0.215393    1.375237
  C     -1.957738    0.464633    2.661560
  N      1.998967   -1.798793   -0.596569
  O      2.331225   -1.424192   -1.710901
  H      0.217104   -0.783770   -1.926312
  H     -1.723120   -1.615826   -2.690397
  H     -4.124724   -2.209271   -2.398926
  H     -5.272623   -1.666374   -0.248768
  H     -4.041258   -0.530841    1.571790
  H     -2.849149    1.110620    2.617221
  H     -1.166086    0.980600    3.218158
  H     -2.210771   -0.478851    3.171450
  O      2.646263   -2.591036    0.071193
  H     -2.974948    2.761057    0.651271
  H      4.893432    1.757884   -1.069135
  C      0.350748   -1.964287    1.089429
  N     -0.061147   -2.570055    1.990436

----------------------------
CARTESIAN COORDINATES (A.U.)
----------------------------
  NO LB      ZA    FRAG     MASS         X           Y           Z
   0 C     6.0000    0    12.011    7.851818    1.225625    1.288583
   1 C     6.0000    0    12.011    7.603451    2.611231   -1.004696
   2 C     6.0000    0    12.011    5.236535    3.020500   -1.936610
   3 N     7.0000    0    14.007    3.150750    2.221434   -0.663889
   4 C     6.0000    0    12.011    3.292649    0.770504    1.519255
   5 C     6.0000    0    12.011    5.767833    0.376836    2.558221
   6 C     6.0000    0    12.011    0.679685    2.109407   -1.786077
   7 C     6.0000    0    12.011   -1.076857    4.003870   -0.514782
   8 O     8.0000    0    15.999   -0.483005    5.362621    1.211811
   9 O     8.0000    0    15.999   -3.273401    4.079163   -1.703539
  10 C     6.0000    0    12.011   -5.134813    5.751784   -0.716883
  11 H     1.0000    0     1.008    9.732152    0.903393    2.080613
  12 H     1.0000    0     1.008    4.869596    4.005316   -3.711811
  13 H     1.0000    0     1.008    1.712181    1.041292    2.824715
  14 H     1.0000    0     1.008    5.922485   -0.597386    4.367777
  15 H     1.0000    0     1.008    0.801669    2.713830   -3.769244
  16 H     1.0000    0     1.008   -6.790238    5.558367   -1.943638
  17 H     1.0000    0     1.008   -4.441336    7.709053   -0.738301
  18 C     6.0000    0    12.011    1.637597   -2.205662    0.045444
  19 C     6.0000    0    12.011   -0.115487   -0.801501   -1.754832
  20 C     6.0000    0    12.011   -2.877548   -1.393968   -1.405085
  21 C     6.0000    0    12.011   -4.227520   -2.598451   -3.317981
  22 C     6.0000    0    12.011   -6.770913   -3.231670   -3.009886
  23 C     6.0000    0    12.011   -7.976676   -2.657361   -0.744297
  24 C     6.0000    0    12.011   -6.670799   -1.448660    1.205475
  25 C     6.0000    0    12.011   -4.135641   -0.809655    0.865993
  26 O     8.0000    0    15.999   -2.717961    0.407034    2.598821
  27 C     6.0000    0    12.011   -3.699589    0.878029    5.029619
  28 N     7.0000    0    14.007    3.777500   -3.399226   -1.127352
  29 O     8.0000    0    15.999    4.405377   -2.691333   -3.233134
  30 H     1.0000    0     1.008    0.410267   -1.481111   -3.640202
  31 H     1.0000    0     1.008   -3.256225   -3.053469   -5.084114
  32 H     1.0000    0     1.008   -7.794599   -4.174917   -4.533313
  33 H     1.0000    0     1.008   -9.963813   -3.148990   -0.470103
  34 H     1.0000    0     1.008   -7.636871   -1.003144    2.970253
  35 H     1.0000    0     1.008   -5.384111    2.098768    4.945831
  36 H     1.0000    0     1.008   -2.203583    1.853065    6.081437
  37 H     1.0000    0     1.008   -4.177752   -0.904897    5.993172
  38 O     8.0000    0    15.999    5.000712   -4.896348    0.134535
  39 H     1.0000    0     1.008   -5.621837    5.217642    1.230724
  40 H     1.0000    0     1.008    9.247246    3.321919   -2.020372
  41 C     6.0000    0    12.011    0.662818   -3.711964    2.058722
  42 N     7.0000    0    14.007   -0.115551   -4.856700    3.761379

--------------------------------
INTERNAL COORDINATES (ANGSTROEM)
--------------------------------
 C      0   0   0     0.000000000000     0.00000000     0.00000000
 C      1   0   0     1.423940860381     0.00000000     0.00000000
 C      2   1   0     1.363415363711   118.34939244     0.00000000
 N      3   2   1     1.360389653235   121.12531453     2.68040754
 C      4   3   2     1.389173346059   122.66019354   354.36621855
 C      1   2   3     1.367225592058   120.89830171   358.47876611
 C      4   3   2     1.437377606122   123.12011871   193.82664531
 C      7   4   3     1.523683215479   110.20846157   245.95120604
 O      8   7   4     1.204385688509   124.65050920   358.75808238
 O      8   7   4     1.322267301622   110.24573882   173.90498419
 C     10   8   7     1.423477653676   116.90635972   179.35557888
 H      1   2   3     1.093080974402   119.41483361   180.93608616
 H      3   2   1     1.091676759831   123.39984457   182.15131112
 H      5   4   3     1.094186321670   114.28977293   150.82876289
 H      6   1   2     1.090608372110   121.75116184   183.37003644
 H      7   4   3     1.099003157784   109.21246171     1.31694528
 H     11  10   8     1.095124511329   106.14018366   179.64675988
 H     11  10   8     1.098889620892   110.56051907    59.86434032
 C      5   4   3     1.963588157192    95.09937490   244.07692836
 C     19   5   4     1.523255182689    97.40000971   327.61142315
 C     20  19   5     1.506280744378   114.36730173   236.55913735
 C     21  20  19     1.393291851057   120.22991080   244.74759085
 C     22  21  20     1.396540719575   121.27064111   178.15902694
 C     23  22  21     1.391704503898   119.34226927   359.73532598
 C     24  23  22     1.396855697241   120.62984502     0.31134479
 C     25  24  23     1.395122616557   119.44481864     0.16151172
 O     26  25  24     1.348399280881   124.27503661   178.46606551
 C     27  26  25     1.409461221515   120.00138102     6.76147585
 N     19   5   4     1.437496241971    99.93490950    84.79831281
 O     29  19   5     1.221661611900   118.25018489   275.72919270
 H     20  19   5     1.096419913204   104.74736456   119.93350810
 H     22  21  20     1.093449406604   118.73139837   358.36782430
 H     23  22  21     1.092014341076   120.10384349   179.98312263
 H     24  23  22     1.092926823257   120.23204497   180.30649665
 H     25  24  23     1.090441274521   119.97733511   179.81902983
 H     28  27  26     1.101761644827   111.41608213   298.13128134
 H     28  27  26     1.096693287933   106.28058357   179.29703644
 H     28  27  26     1.101896351498   110.82600707    60.40972701
 O     29  19   5     1.221698478066   117.79593778    89.09571103
 H     11  10   8     1.099323055003   110.25626694   298.90339417
 H      2   1   3     1.089480643247   121.63426939   180.61299835
 C     19   5   4     1.427055815279   108.22228279   201.16994312
 N     42  19   5     1.161217453752   177.27059473    13.86940186

---------------------------
INTERNAL COORDINATES (A.U.)
---------------------------
 C      0   0   0     0.000000000000     0.00000000     0.00000000
 C      1   0   0     2.690858257020     0.00000000     0.00000000
 C      2   1   0     2.576481644195   118.34939244     0.00000000
 N      3   2   1     2.570763880034   121.12531453     2.68040754
 C      4   3   2     2.625157176595   122.66019354   354.36621855
 C      1   2   3     2.583681932278   120.89830171   358.47876611
 C      4   3   2     2.716250026602   123.12011871   193.82664531
 C      7   4   3     2.879343992108   110.20846157   245.95120604
 O      8   7   4     2.275959110896   124.65050920   358.75808238
 O      8   7   4     2.498723075905   110.24573882   173.90498419
 C     10   8   7     2.689982923204   116.90635972   179.35557888
 H      1   2   3     2.065623683820   119.41483361   180.93608616
 H      3   2   1     2.062970102848   123.39984457   182.15131112
 H      5   4   3     2.067712487438   114.28977293   150.82876289
 H      6   1   2     2.060951142649   121.75116184   183.37003644
 H      7   4   3     2.076814988526   109.21246171     1.31694528
 H     11  10   8     2.069485408957   106.14018366   179.64675988
 H     11  10   8     2.076600434894   110.56051907    59.86434032
 C      5   4   3     3.710643856905    95.09937490   244.07692836
 C     19   5   4     2.878535127358    97.40000971   327.61142315
 C     20  19   5     2.846458087673   114.36730173   236.55913735
 C     21  20  19     2.632940023122   120.22991080   244.74759085
 C     22  21  20     2.639079494865   121.27064111   178.15902694
 C     23  22  21     2.629940371711   119.34226927   359.73532598
 C     24  23  22     2.639674716393   120.62984502     0.31134479
 C     25  24  23     2.636399668532   119.44481864     0.16151172
 O     26  25  24     2.548105360042   124.27503661   178.46606551
 C     27  26  25     2.663495705045   120.00138102     6.76147585
 N     19   5   4     2.716474215867    99.93490950    84.79831281
 O     29  19   5     2.308605874815   118.25018489   275.72919270
 H     20  19   5     2.071933363733   104.74736456   119.93350810
 H     22  21  20     2.066319919781   118.73139837   358.36782430
 H     23  22  21     2.063608038948   120.10384349   179.98312263
 H     24  23  22     2.065332380372   120.23204497   180.30649665
 H     25  24  23     2.060635373968   119.97733511   179.81902983
 H     28  27  26     2.082027773581   111.41608213   298.13128134
 H     28  27  26     2.072449967103   106.28058357   179.29703644
 H     28  27  26     2.082282332299   110.82600707    60.40972701
 O     29  19   5     2.308675541773   117.79593778    89.09571103
 H     11  10   8     2.077419506661   110.25626694   298.90339417
 H      2   1   3     2.058820043945   121.63426939   180.61299835
 C     19   5   4     2.696744668698   108.22228279   201.16994312
 N     42  19   5     2.194382969520   177.27059473    13.86940186

---------------------
BASIS SET INFORMATION
---------------------
There are 4 groups of distinct atoms

 Group   1 Type C   : 11s6p2d1f contracted to 5s3p2d1f pattern {62111/411/11/1}
 Group   2 Type N   : 11s6p2d1f contracted to 5s3p2d1f pattern {62111/411/11/1}
 Group   3 Type O   : 11s6p2d1f contracted to 5s3p2d1f pattern {62111/411/11/1}
 Group   4 Type H   : 5s1p contracted to 3s1p pattern {311/1}

Atom   0C    basis set group =>   1
Atom   1C    basis set group =>   1
Atom   2C    basis set group =>   1
Atom   3N    basis set group =>   2
Atom   4C    basis set group =>   1
Atom   5C    basis set group =>   1
Atom   6C    basis set group =>   1
Atom   7C    basis set group =>   1
Atom   8O    basis set group =>   3
Atom   9O    basis set group =>   3
Atom  10C    basis set group =>   1
Atom  11H    basis set group =>   4
Atom  12H    basis set group =>   4
Atom  13H    basis set group =>   4
Atom  14H    basis set group =>   4
Atom  15H    basis set group =>   4
Atom  16H    basis set group =>   4
Atom  17H    basis set group =>   4
Atom  18C    basis set group =>   1
Atom  19C    basis set group =>   1
Atom  20C    basis set group =>   1
Atom  21C    basis set group =>   1
Atom  22C    basis set group =>   1
Atom  23C    basis set group =>   1
Atom  24C    basis set group =>   1
Atom  25C    basis set group =>   1
Atom  26O    basis set group =>   3
Atom  27C    basis set group =>   1
Atom  28N    basis set group =>   2
Atom  29O    basis set group =>   3
Atom  30H    basis set group =>   4
Atom  31H    basis set group =>   4
Atom  32H    basis set group =>   4
Atom  33H    basis set group =>   4
Atom  34H    basis set group =>   4
Atom  35H    basis set group =>   4
Atom  36H    basis set group =>   4
Atom  37H    basis set group =>   4
Atom  38O    basis set group =>   3
Atom  39H    basis set group =>   4
Atom  40H    basis set group =>   4
Atom  41C    basis set group =>   1
Atom  42N    basis set group =>   2
---------------------------------
AUXILIARY/J BASIS SET INFORMATION
---------------------------------
There are 4 groups of distinct atoms

 Group   1 Type C   : 12s5p4d2f1g contracted to 6s4p3d1f1g pattern {711111/2111/211/2/1}
 Group   2 Type N   : 12s5p4d2f1g contracted to 6s4p3d1f1g pattern {711111/2111/211/2/1}
 Group   3 Type O   : 12s5p4d2f1g contracted to 6s4p3d1f1g pattern {711111/2111/211/2/1}
 Group   4 Type H   : 5s2p1d contracted to 3s1p1d pattern {311/2/1}

Atom   0C    basis set group =>   1
Atom   1C    basis set group =>   1
Atom   2C    basis set group =>   1
Atom   3N    basis set group =>   2
Atom   4C    basis set group =>   1
Atom   5C    basis set group =>   1
Atom   6C    basis set group =>   1
Atom   7C    basis set group =>   1
Atom   8O    basis set group =>   3
Atom   9O    basis set group =>   3
Atom  10C    basis set group =>   1
Atom  11H    basis set group =>   4
Atom  12H    basis set group =>   4
Atom  13H    basis set group =>   4
Atom  14H    basis set group =>   4
Atom  15H    basis set group =>   4
Atom  16H    basis set group =>   4
Atom  17H    basis set group =>   4
Atom  18C    basis set group =>   1
Atom  19C    basis set group =>   1
Atom  20C    basis set group =>   1
Atom  21C    basis set group =>   1
Atom  22C    basis set group =>   1
Atom  23C    basis set group =>   1
Atom  24C    basis set group =>   1
Atom  25C    basis set group =>   1
Atom  26O    basis set group =>   3
Atom  27C    basis set group =>   1
Atom  28N    basis set group =>   2
Atom  29O    basis set group =>   3
Atom  30H    basis set group =>   4
Atom  31H    basis set group =>   4
Atom  32H    basis set group =>   4
Atom  33H    basis set group =>   4
Atom  34H    basis set group =>   4
Atom  35H    basis set group =>   4
Atom  36H    basis set group =>   4
Atom  37H    basis set group =>   4
Atom  38O    basis set group =>   3
Atom  39H    basis set group =>   4
Atom  40H    basis set group =>   4
Atom  41C    basis set group =>   1
Atom  42N    basis set group =>   2


           ************************************************************
           *        Program running with 24 parallel MPI-processes    *
           *              working on a common directory               *
           ************************************************************
------------------------------------------------------------------------------
                           ORCA GTO INTEGRAL CALCULATION
                           -- RI-GTO INTEGRALS CHOSEN --
------------------------------------------------------------------------------
------------------------------------------------------------------------------
                   ___                                                        
                  /   \      - P O W E R E D   B Y -                         
                 /     \                                                     
                 |  |  |   _    _      __       _____    __    __             
                 |  |  |  | |  | |    /  \     |  _  \  |  |  /  |          
                  \  \/   | |  | |   /    \    | | | |  |  | /  /          
                 / \  \   | |__| |  /  /\  \   | |_| |  |  |/  /          
                |  |  |   |  __  | /  /__\  \  |    /   |      \           
                |  |  |   | |  | | |   __   |  |    \   |  |\   \          
                \     /   | |  | | |  |  |  |  | |\  \  |  | \   \       
                 \___/    |_|  |_| |__|  |__|  |_| \__\ |__|  \__/        
                                                                              
                      - O R C A' S   B I G   F R I E N D -                    
                                      &                                       
                       - I N T E G R A L  F E E D E R -                       
                                                                              
 v1 FN, 2020, v2 2021                                                         
------------------------------------------------------------------------------


Reading SHARK input file TS1_CN/TS1_CN.SHARKINP.tmp ... ok
----------------------
SHARK INTEGRAL PACKAGE
----------------------

Number of atoms                             ...     43
Number of basis functions                   ...    908
Number of shells                            ...    354
Maximum angular momentum                    ...      3
Integral batch strategy                     ... SHARK/LIBINT Hybrid
RI-J (if used) integral strategy            ... SPLIT-RIJ (Revised 2003 algorithm where possible)
Printlevel                                  ...      1
Contraction scheme used                     ... SEGMENTED contraction
Coulomb Range Separation                    ... NOT USED
Exchange Range Separation                   ... NOT USED
Finite Nucleus Model                        ... NOT USED
Auxiliary Coulomb fitting basis             ... AVAILABLE
   # of basis functions in Aux-J            ...   1461
   # of shells in Aux-J                     ...    475
   Maximum angular momentum in Aux-J        ...      4
Auxiliary J/K fitting basis                 ... NOT available
Auxiliary Correlation fitting basis         ... NOT available
Auxiliary 'external' fitting basis          ... NOT available
Integral threshold                          ...     2.500000e-11
Primitive cut-off                           ...     2.500000e-12
Primitive pair pre-selection threshold      ...     2.500000e-12

Calculating pre-screening integrals         ... done (  0.1 sec) Dimension = 354
Organizing shell pair data                  ... done (  1.2 sec)
Shell pair information
Total number of shell pairs                 ...     62835
Shell pairs after pre-screening             ...     46912
Total number of primitive shell pairs       ...    194376
Primitive shell pairs kept                  ...     94934
          la=0 lb=0:  11670 shell pairs
          la=1 lb=0:  13335 shell pairs
          la=1 lb=1:   3811 shell pairs
          la=2 lb=0:   6800 shell pairs
          la=2 lb=1:   3960 shell pairs
          la=2 lb=2:   1049 shell pairs
          la=3 lb=0:   3163 shell pairs
          la=3 lb=1:   1902 shell pairs
          la=3 lb=2:    972 shell pairs
          la=3 lb=3:    250 shell pairs

Calculating one electron integrals          ... done (  0.1 sec)
Calculating RI/J V-Matrix + Cholesky decomp.... done (  0.2 sec)
Calculating Nuclear repulsion               ... done (  0.0 sec) ENN=   2545.767168590869 Eh

SHARK setup successfully completed in   3.2 seconds

Maximum memory used throughout the entire GTOINT-calculation: 70.7 MB


           ************************************************************
           *        Program running with 24 parallel MPI-processes    *
           *              working on a common directory               *
           ************************************************************
-------------------------------------------------------------------------------
                                 ORCA SCF
-------------------------------------------------------------------------------

------------
SCF SETTINGS
------------
Hamiltonian:
 Density Functional     Method          .... DFT(GTOs)
 Exchange Functional    Exchange        .... PBE
   PBE kappa parameter   XKappa         ....  0.804000
   PBE mue parameter    XMuePBE         ....  0.219520
 Correlation Functional Correlation     .... PBE
   PBE beta parameter  CBetaPBE         ....  0.066725
 LDA part of GGA corr.  LDAOpt          .... PW91-LDA
 Gradients option       PostSCFGGA      .... off
 Hybrid DFT is turned on
   Fraction HF Exchange ScalHFX         ....  0.250000
   Scaling of DF-GGA-X  ScalDFX         ....  0.750000
   Scaling of DF-GGA-C  ScalDFC         ....  1.000000
   Scaling of DF-LDA-C  ScalLDAC        ....  1.000000
   Perturbative correction              ....  0.000000
   Density functional embedding theory  .... OFF
   NL short-range parameter             ....  6.900000
 RI-approximation to the Coulomb term is turned on
   Number of AuxJ basis functions       .... 1461
   RIJ-COSX (HFX calculated with COS-X)).... on


General Settings:
 Integral files         IntName         .... TS1_CN/TS1_CN
 Hartree-Fock type      HFTyp           .... RHF
 Total Charge           Charge          ....    0
 Multiplicity           Mult            ....    1
 Number of Electrons    NEL             ....  186
 Basis Dimension        Dim             ....  908
 Nuclear Repulsion      ENuc            ....   2545.7671685909 Eh

Convergence Acceleration:
 DIIS                   CNVDIIS         .... on
   Start iteration      DIISMaxIt       ....    12
   Startup error        DIISStart       ....  0.200000
   # of expansion vecs  DIISMaxEq       ....     5
   Bias factor          DIISBfac        ....   1.050
   Max. coefficient     DIISMaxC        ....  10.000
 Trust-Rad. Augm. Hess. CNVTRAH         .... auto
   Auto Start mean grad. ratio tolernc. ....  1.125000
   Auto Start start iteration           ....    20
   Auto Start num. interpolation iter.  ....    10
   Max. Number of Micro iterations      ....    16
   Max. Number of Macro iterations      .... Maxiter - #DIIS iter
   Number of Davidson start vectors     ....     2
   Converg. threshold I  (grad. norm)   ....   1.000e-05
   Converg. threshold II (energy diff.) ....   1.000e-08
   Grad. Scal. Fac. for Micro threshold ....   0.100
   Minimum threshold for Micro iter.    ....   0.010
   NR start threshold (gradient norm)   ....   0.001
   Initial trust radius                 ....   0.400
   Minimum AH scaling param. (alpha)    ....   1.000
   Maximum AH scaling param. (alpha)    .... 1000.000
   Orbital update algorithm             .... Taylor
   White noise on init. David. guess    .... on
   Maximum white noise                  ....   0.010
   Quad. conv. algorithm                .... NR
 SOSCF                  CNVSOSCF        .... on
   Start iteration      SOSCFMaxIt      ....   150
   Startup grad/error   SOSCFStart      ....  0.003300
 Level Shifting         CNVShift        .... on
   Level shift para.    LevelShift      ....    0.2500
   Turn off err/grad.   ShiftErr        ....    0.0010
 Zerner damping         CNVZerner       .... off
 Static damping         CNVDamp         .... on
   Fraction old density DampFac         ....    0.7000
   Max. Damping (<1)    DampMax         ....    0.9800
   Min. Damping (>=0)   DampMin         ....    0.0000
   Turn off err/grad.   DampErr         ....    0.1000
 Fernandez-Rico         CNVRico         .... off

SCF Procedure:
 Maximum # iterations   MaxIter         ....   800
 SCF integral mode      SCFMode         .... Direct
   Integral package                     .... SHARK and LIBINT hybrid scheme
 Reset frequency        DirectResetFreq ....    20
 Integral Threshold     Thresh          ....  2.500e-11 Eh
 Primitive CutOff       TCut            ....  2.500e-12 Eh

Convergence Tolerance:
 Convergence Check Mode ConvCheckMode   .... Total+1el-Energy
 Convergence forced     ConvForced      .... 0
 Energy Change          TolE            ....  1.000e-08 Eh
 1-El. energy change                    ....  1.000e-05 Eh
 Orbital Gradient       TolG            ....  1.000e-05
 Orbital Rotation angle TolX            ....  1.000e-05
 DIIS Error             TolErr          ....  5.000e-07


Diagonalization of the overlap matrix:
Smallest eigenvalue                        ... 5.687e-06
Time for diagonalization                   ...    0.267 sec
Threshold for overlap eigenvalues          ... 1.000e-08
Number of eigenvalues below threshold      ... 0
Time for construction of square roots      ...    0.149 sec
Total time needed                          ...    0.422 sec

Time for model grid setup =    0.342 sec

------------------------------
INITIAL GUESS: MODEL POTENTIAL
------------------------------
Loading Hartree-Fock densities                     ... done
Calculating cut-offs                               ... done
Initializing the effective Hamiltonian             ... done
Setting up the integral package (SHARK)            ... done
Starting the Coulomb interaction                   ... done (   0.7 sec)
Reading the grid                                   ... done
Mapping shells                                     ... done
Starting the XC term evaluation                    ... done (   0.3 sec)
  promolecular density results
     # of electrons  =    185.983094634
     EX              =   -157.474737607
     EC              =     -6.305186148
     EX+EC           =   -163.779923755
Transforming the Hamiltonian                       ... done (   0.1 sec)
Diagonalizing the Hamiltonian                      ... done (   0.3 sec)
Back transforming the eigenvectors                 ... done (   0.1 sec)
Now organizing SCF variables                       ... done
                      ------------------
                      INITIAL GUESS DONE (   1.9 sec)
                      ------------------
-------------------
DFT GRID GENERATION
-------------------

General Integration Accuracy     IntAcc      ... 4.388
Radial Grid Type                 RadialGrid  ... OptM3 with GC (2021)
Angular Grid (max. ang.)         AngularGrid ... 4 (Lebedev-302)
Angular grid pruning method      GridPruning ... 4 (adaptive)
Weight generation scheme         WeightScheme... Becke
Basis function cutoff            BFCut       ... 1.0000e-11
Integration weight cutoff        WCut        ... 1.0000e-14
Angular grids for H and He will be reduced by one unit
Partially contracted basis set               ... off
Rotationally invariant grid construction     ... off

Total number of grid points                  ...   208689
Total number of batches                      ...     3282
Average number of points per batch           ...       63
Average number of grid points per atom       ...     4853
Time for grid setup =    1.676 sec

--------------------
COSX GRID GENERATION
--------------------

GRIDX 1
-------
General Integration Accuracy     IntAcc      ... 3.816
Radial Grid Type                 RadialGrid  ... OptM3 with GC (2021)
Angular Grid (max. ang.)         AngularGrid ... 1 (Lebedev-50)
Angular grid pruning method      GridPruning ... 4 (adaptive)
Weight generation scheme         WeightScheme... Becke
Basis function cutoff            BFCut       ... 1.0000e-11
Integration weight cutoff        WCut        ... 1.0000e-14
Angular grids for H and He will be reduced by one unit
Partially contracted basis set               ... on
Rotationally invariant grid construction     ... off

Total number of grid points                  ...    26445
Total number of batches                      ...      435
Average number of points per batch           ...       60
Average number of grid points per atom       ...      615
UseSFitting                                  ... on

GRIDX 2
-------
General Integration Accuracy     IntAcc      ... 4.020
Radial Grid Type                 RadialGrid  ... OptM3 with GC (2021)
Angular Grid (max. ang.)         AngularGrid ... 2 (Lebedev-110)
Angular grid pruning method      GridPruning ... 4 (adaptive)
Weight generation scheme         WeightScheme... Becke
Basis function cutoff            BFCut       ... 1.0000e-11
Integration weight cutoff        WCut        ... 1.0000e-14
Angular grids for H and He will be reduced by one unit
Partially contracted basis set               ... on
Rotationally invariant grid construction     ... off

Total number of grid points                  ...    57554
Total number of batches                      ...      922
Average number of points per batch           ...       62
Average number of grid points per atom       ...     1338
UseSFitting                                  ... on

GRIDX 3
-------
General Integration Accuracy     IntAcc      ... 4.338
Radial Grid Type                 RadialGrid  ... OptM3 with GC (2021)
Angular Grid (max. ang.)         AngularGrid ... 3 (Lebedev-194)
Angular grid pruning method      GridPruning ... 4 (adaptive)
Weight generation scheme         WeightScheme... Becke
Basis function cutoff            BFCut       ... 1.0000e-11
Integration weight cutoff        WCut        ... 1.0000e-14
Angular grids for H and He will be reduced by one unit
Partially contracted basis set               ... on
Rotationally invariant grid construction     ... off

Total number of grid points                  ...   125766
Total number of batches                      ...     1988
Average number of points per batch           ...       63
Average number of grid points per atom       ...     2925
UseSFitting                                  ... on

Time for X-Grid setup             =    2.691 sec


--------------------
CPCM SOLVATION MODEL
--------------------
CPCM parameters:
  Epsilon                                         ...      47.2000
  Refrac                                          ...       1.4790
  Rsolv                                           ...       1.3000
  Surface type                                    ... GAUSSIAN VDW
  Epsilon function type                           ...         CPCM
Radii:
 Radius for C  used is    3.8550 Bohr (=   2.0400 Ang.)
 Radius for N  used is    3.5149 Bohr (=   1.8600 Ang.)
 Radius for O  used is    3.4469 Bohr (=   1.8240 Ang.)
 Radius for H  used is    2.4944 Bohr (=   1.3200 Ang.)
Calculating surface                               ...        done! (  0.0s)
GEPOL surface points                              ...         2158
GEPOL Volume                                      ...    2650.3166
GEPOL Surface-area                                ...    1270.3242
Calculating surface distance matrix               ...        done! (  0.1s)
Performing Cholesky decomposition & store         ...        done! (  0.3s)
Overall time for CPCM initialization              ...                 0.4s
--------------
SCF ITERATIONS
--------------
ITER       Energy         Delta-E        Max-DP      RMS-DP      [F,P]     Damp
               ***  Starting incremental Fock matrix formation  ***
  0  -1234.8674784939   0.000000000000 0.13345914  0.00078493  0.2632108 0.7000
  1  -1235.1403962380  -0.272917744100 0.10866479  0.00061184  0.1025121 0.7000
                               ***Turning on DIIS***
  2  -1235.2415537911  -0.101157553137 0.13030795  0.00103881  0.0329662 0.0000
  3  -1235.4222662830  -0.180712491864 0.13060764  0.00052517  0.0516256 0.0000
  4  -1235.4488626091  -0.026596326129 0.05054844  0.00019719  0.0222275 0.0000
  5  -1235.4523683048  -0.003505695658 0.01791800  0.00006081  0.0034630 0.0000
                      *** Initiating the SOSCF procedure ***
                           *** Shutting down DIIS ***
                      *** Re-Reading the Fockian *** 
                      *** Removing any level shift *** 
ITER      Energy       Delta-E        Grad      Rot      Max-DP    RMS-DP
  6  -1235.45247447  -0.0001061658  0.000189  0.000189  0.004130  0.000019
               *** Restarting incremental Fock matrix formation ***
  7  -1235.45249109  -0.0000166176  0.000140  0.000502  0.003721  0.000028
  8  -1235.45248999   0.0000010936  0.000234  0.000252  0.001046  0.000006
  9  -1235.45249365  -0.0000036555  0.000057  0.000122  0.000602  0.000006
 10  -1235.45249341   0.0000002408  0.000091  0.000074  0.000380  0.000002
 11  -1235.45249376  -0.0000003554  0.000010  0.000031  0.000225  0.000002
 12  -1235.45249376   0.0000000047  0.000018  0.000024  0.000218  0.000001
                  ***Gradient check signals convergence***
              ***Rediagonalizing the Fockian in SOSCF/NRSCF***

               *****************************************************
               *                     SUCCESS                       *
               *           SCF CONVERGED AFTER  13 CYCLES          *
               *****************************************************

Old exchange energy                            =    -40.058142038 Eh
New exchange energy                            =    -40.058106767 Eh
Exchange energy change after final integration =      0.000035271 Eh
Total energy after final integration           =  -1235.452458544 Eh
Final COS-X integration done in                =    19.431 sec

----------------
TOTAL SCF ENERGY
----------------

Total Energy       :        -1235.45245854 Eh          -33618.37052 eV

Components:
Nuclear Repulsion  :         2545.76716859 Eh           69273.84647 eV
Electronic Energy  :        -3781.21962714 Eh         -102892.21699 eV
One Electron Energy:        -6746.87707818 Eh         -183591.85893 eV
Two Electron Energy:         2965.65745105 Eh           80699.64193 eV
Max COSX asymmetry :            0.00000134 Eh               0.00004 eV
CPCM Dielectric    :           -0.04065635 Eh              -1.10632 eV

Virial components:
Potential Energy   :        -2465.10165801 Eh          -67078.82634 eV
Kinetic Energy     :         1229.64919947 Eh           33460.45581 eV
Virial Ratio       :            2.00471944


DFT components:
N(Alpha)           :       93.000101474953 electrons
N(Beta)            :       93.000101474953 electrons
N(Total)           :      186.000202949906 electrons
E(X)               :     -120.018793084048 Eh       
E(C)               :       -6.298678645401 Eh       
E(XC)              :     -126.317471729449 Eh       
DFET-embed. en.    :        0.000000000000 Eh       
CPCM Solvation Model Properties:
Surface-charge          :           -0.02952308
Charge-correction       :           -0.00010613 Eh              -0.00289 eV
Free-energy (cav+disp)  :  This term is not implemented in the current solvation scheme

---------------
SCF CONVERGENCE
---------------

  Last Energy change         ...   -5.5099e-08  Tolerance :   1.0000e-08
  Last MAX-Density change    ...    2.5535e-15  Tolerance :   1.0000e-07
  Last RMS-Density change    ...    1.4616e-17  Tolerance :   5.0000e-09
  Last Orbital Gradient      ...    2.3737e-06  Tolerance :   1.0000e-05
  Last Orbital Rotation      ...    5.0513e-06  Tolerance :   1.0000e-05

             **** THE GBW FILE WAS UPDATED (TS1_CN/TS1_CN.gbw) ****
             **** DENSITY TS1_CN/TS1_CN.scfp WAS UPDATED ****
             **** ENERGY FILE WAS UPDATED (TS1_CN/TS1_CN.en.tmp) ****
             **** THE GBW FILE WAS UPDATED (TS1_CN/TS1_CN.gbw) ****
             **** DENSITY TS1_CN/TS1_CN.scfp WAS UPDATED ****
----------------
ORBITAL ENERGIES
----------------

  NO   OCC          E(Eh)            E(eV) 
   0   2.0000     -19.268145      -524.3129 
   1   2.0000     -19.252991      -523.9005 
   2   2.0000     -19.238479      -523.5056 
   3   2.0000     -19.237625      -523.4824 
   4   2.0000     -19.207248      -522.6558 
   5   2.0000     -14.620092      -397.8329 
   6   2.0000     -14.467350      -393.6766 
   7   2.0000     -14.392725      -391.6459 
   8   2.0000     -10.367878      -282.1243 
   9   2.0000     -10.314266      -280.6654 
  10   2.0000     -10.312421      -280.6152 
  11   2.0000     -10.303429      -280.3706 
  12   2.0000     -10.296421      -280.1799 
  13   2.0000     -10.289427      -279.9895 
  14   2.0000     -10.280284      -279.7407 
  15   2.0000     -10.277928      -279.6766 
  16   2.0000     -10.275072      -279.5989 
  17   2.0000     -10.272091      -279.5178 
  18   2.0000     -10.256181      -279.0849 
  19   2.0000     -10.247381      -278.8454 
  20   2.0000     -10.243863      -278.7497 
  21   2.0000     -10.236283      -278.5434 
  22   2.0000     -10.235403      -278.5195 
  23   2.0000     -10.235309      -278.5169 
  24   2.0000     -10.231573      -278.4152 
  25   2.0000     -10.226788      -278.2850 
  26   2.0000      -1.271863       -34.6091 
  27   2.0000      -1.160351       -31.5748 
  28   2.0000      -1.117669       -30.4133 
  29   2.0000      -1.090768       -29.6813 
  30   2.0000      -1.069538       -29.1036 
  31   2.0000      -1.047541       -28.5050 
  32   2.0000      -0.948323       -25.8052 
  33   2.0000      -0.904114       -24.6022 
  34   2.0000      -0.880444       -23.9581 
  35   2.0000      -0.868569       -23.6350 
  36   2.0000      -0.820266       -22.3206 
  37   2.0000      -0.814860       -22.1735 
  38   2.0000      -0.790606       -21.5135 
  39   2.0000      -0.781847       -21.2751 
  40   2.0000      -0.753320       -20.4989 
  41   2.0000      -0.726164       -19.7599 
  42   2.0000      -0.711292       -19.3552 
  43   2.0000      -0.684958       -18.6387 
  44   2.0000      -0.668453       -18.1895 
  45   2.0000      -0.662713       -18.0333 
  46   2.0000      -0.633796       -17.2465 
  47   2.0000      -0.616217       -16.7681 
  48   2.0000      -0.603237       -16.4149 
  49   2.0000      -0.589185       -16.0325 
  50   2.0000      -0.575914       -15.6714 
  51   2.0000      -0.567360       -15.4387 
  52   2.0000      -0.556199       -15.1349 
  53   2.0000      -0.551563       -15.0088 
  54   2.0000      -0.541232       -14.7277 
  55   2.0000      -0.533185       -14.5087 
  56   2.0000      -0.527684       -14.3590 
  57   2.0000      -0.516525       -14.0554 
  58   2.0000      -0.513294       -13.9675 
  59   2.0000      -0.501840       -13.6558 
  60   2.0000      -0.495395       -13.4804 
  61   2.0000      -0.485875       -13.2213 
  62   2.0000      -0.480966       -13.0877 
  63   2.0000      -0.475847       -12.9485 
  64   2.0000      -0.469058       -12.7637 
  65   2.0000      -0.463562       -12.6142 
  66   2.0000      -0.452411       -12.3107 
  67   2.0000      -0.446339       -12.1455 
  68   2.0000      -0.434556       -11.8249 
  69   2.0000      -0.426833       -11.6147 
  70   2.0000      -0.412552       -11.2261 
  71   2.0000      -0.410765       -11.1775 
  72   2.0000      -0.402530       -10.9534 
  73   2.0000      -0.401256       -10.9187 
  74   2.0000      -0.393458       -10.7065 
  75   2.0000      -0.386486       -10.5168 
  76   2.0000      -0.385033       -10.4773 
  77   2.0000      -0.380159       -10.3447 
  78   2.0000      -0.377969       -10.2850 
  79   2.0000      -0.373732       -10.1698 
  80   2.0000      -0.369756       -10.0616 
  81   2.0000      -0.349907        -9.5214 
  82   2.0000      -0.345407        -9.3990 
  83   2.0000      -0.342782        -9.3276 
  84   2.0000      -0.336962        -9.1692 
  85   2.0000      -0.331869        -9.0306 
  86   2.0000      -0.324716        -8.8360 
  87   2.0000      -0.320832        -8.7303 
  88   2.0000      -0.314876        -8.5682 
  89   2.0000      -0.305733        -8.3194 
  90   2.0000      -0.274105        -7.4588 
  91   2.0000      -0.244093        -6.6421 
  92   2.0000      -0.222557        -6.0561 
  93   0.0000      -0.075464        -2.0535 
  94   0.0000      -0.045339        -1.2337 
  95   0.0000      -0.021538        -0.5861 
  96   0.0000      -0.014329        -0.3899 
  97   0.0000      -0.004279        -0.1164 
  98   0.0000      -0.002284        -0.0621 
  99   0.0000       0.012345         0.3359 
 100   0.0000       0.042008         1.1431 
 101   0.0000       0.054627         1.4865 
 102   0.0000       0.059474         1.6184 
 103   0.0000       0.065630         1.7859 
 104   0.0000       0.072308         1.9676 
 105   0.0000       0.076241         2.0746 
 106   0.0000       0.088374         2.4048 
 107   0.0000       0.090174         2.4538 
 108   0.0000       0.096647         2.6299 
 109   0.0000       0.100405         2.7322 
 110   0.0000       0.107209         2.9173 
 111   0.0000       0.107937         2.9371 
 112   0.0000       0.115565         3.1447 
 113   0.0000       0.117161         3.1881 
 114   0.0000       0.121267         3.2998 
 115   0.0000       0.127316         3.4645 
 116   0.0000       0.135743         3.6937 
 117   0.0000       0.139452         3.7947 
 118   0.0000       0.140337         3.8188 
 119   0.0000       0.142952         3.8899 
 120   0.0000       0.148580         4.0431 
 121   0.0000       0.151416         4.1202 
 122   0.0000       0.155235         4.2242 
 123   0.0000       0.160327         4.3627 
 124   0.0000       0.166042         4.5182 
 125   0.0000       0.173096         4.7102 
 126   0.0000       0.183322         4.9884 
 127   0.0000       0.187987         5.1154 
 128   0.0000       0.194038         5.2800 
 129   0.0000       0.202054         5.4982 
 130   0.0000       0.206271         5.6129 
 131   0.0000       0.208816         5.6822 
 132   0.0000       0.215426         5.8620 
 133   0.0000       0.218386         5.9426 
 134   0.0000       0.220826         6.0090 
 135   0.0000       0.224195         6.1006 
 136   0.0000       0.224774         6.1164 
 137   0.0000       0.230808         6.2806 
 138   0.0000       0.233025         6.3409 
 139   0.0000       0.238519         6.4904 
 140   0.0000       0.244699         6.6586 
 141   0.0000       0.251503         6.8438 
 142   0.0000       0.255901         6.9634 
 143   0.0000       0.258536         7.0351 
 144   0.0000       0.262479         7.1424 
 145   0.0000       0.264296         7.1919 
 146   0.0000       0.271631         7.3915 
 147   0.0000       0.272177         7.4063 
 148   0.0000       0.276205         7.5159 
 149   0.0000       0.282609         7.6902 
 150   0.0000       0.286203         7.7880 
 151   0.0000       0.290095         7.8939 
 152   0.0000       0.298767         8.1299 
 153   0.0000       0.302799         8.2396 
 154   0.0000       0.308529         8.3955 
 155   0.0000       0.310980         8.4622 
 156   0.0000       0.312702         8.5091 
 157   0.0000       0.318773         8.6743 
 158   0.0000       0.320892         8.7319 
 159   0.0000       0.325950         8.8696 
 160   0.0000       0.328980         8.9520 
 161   0.0000       0.334741         9.1088 
 162   0.0000       0.339469         9.2374 
 163   0.0000       0.344823         9.3831 
 164   0.0000       0.348148         9.4736 
 165   0.0000       0.350804         9.5459 
 166   0.0000       0.353843         9.6286 
 167   0.0000       0.357493         9.7279 
 168   0.0000       0.361999         9.8505 
 169   0.0000       0.367096         9.9892 
 170   0.0000       0.371653        10.1132 
 171   0.0000       0.374158        10.1813 
 172   0.0000       0.380537        10.3549 
 173   0.0000       0.387057        10.5324 
 174   0.0000       0.389144        10.5891 
 175   0.0000       0.390962        10.6386 
 176   0.0000       0.393392        10.7047 
 177   0.0000       0.397729        10.8228 
 178   0.0000       0.399659        10.8753 
 179   0.0000       0.408590        11.1183 
 180   0.0000       0.415050        11.2941 
 181   0.0000       0.417974        11.3737 
 182   0.0000       0.421024        11.4566 
 183   0.0000       0.424433        11.5494 
 184   0.0000       0.427042        11.6204 
 185   0.0000       0.430671        11.7192 
 186   0.0000       0.434394        11.8205 
 187   0.0000       0.435864        11.8605 
 188   0.0000       0.441212        12.0060 
 189   0.0000       0.446775        12.1574 
 190   0.0000       0.448952        12.2166 
 191   0.0000       0.453426        12.3384 
 192   0.0000       0.458569        12.4783 
 193   0.0000       0.458594        12.4790 
 194   0.0000       0.461093        12.5470 
 195   0.0000       0.467108        12.7107 
 196   0.0000       0.470669        12.8076 
 197   0.0000       0.473830        12.8936 
 198   0.0000       0.478162        13.0115 
 199   0.0000       0.485253        13.2044 
 200   0.0000       0.490472        13.3464 
 201   0.0000       0.491532        13.3753 
 202   0.0000       0.495165        13.4741 
 203   0.0000       0.499109        13.5815 
 204   0.0000       0.503610        13.7039 
 205   0.0000       0.508291        13.8313 
 206   0.0000       0.512276        13.9397 
 207   0.0000       0.516779        14.0623 
 208   0.0000       0.521401        14.1880 
 209   0.0000       0.527241        14.3470 
 210   0.0000       0.530922        14.4471 
 211   0.0000       0.536566        14.6007 
 212   0.0000       0.537934        14.6379 
 213   0.0000       0.540493        14.7076 
 214   0.0000       0.543484        14.7890 
 215   0.0000       0.549790        14.9605 
 216   0.0000       0.556353        15.1391 
 217   0.0000       0.562917        15.3178 
 218   0.0000       0.566285        15.4094 
 219   0.0000       0.572572        15.5805 
 220   0.0000       0.578859        15.7516 
 221   0.0000       0.588437        16.0122 
 222   0.0000       0.594747        16.1839 
 223   0.0000       0.598790        16.2939 
 224   0.0000       0.605434        16.4747 
 225   0.0000       0.613354        16.6902 
 226   0.0000       0.616728        16.7820 
 227   0.0000       0.623948        16.9785 
 228   0.0000       0.625622        17.0240 
 229   0.0000       0.644702        17.5432 
 230   0.0000       0.649427        17.6718 
 231   0.0000       0.650784        17.7087 
 232   0.0000       0.658655        17.9229 
 233   0.0000       0.662976        18.0405 
 234   0.0000       0.667743        18.1702 
 235   0.0000       0.671128        18.2623 
 236   0.0000       0.675522        18.3819 
 237   0.0000       0.686959        18.6931 
 238   0.0000       0.689592        18.7648 
 239   0.0000       0.698612        19.0102 
 240   0.0000       0.704182        19.1618 
 241   0.0000       0.711992        19.3743 
 242   0.0000       0.714544        19.4437 
 243   0.0000       0.717542        19.5253 
 244   0.0000       0.722869        19.6703 
 245   0.0000       0.725805        19.7502 
 246   0.0000       0.729773        19.8581 
 247   0.0000       0.737137        20.0585 
 248   0.0000       0.738240        20.0885 
 249   0.0000       0.747327        20.3358 
 250   0.0000       0.753678        20.5086 
 251   0.0000       0.758625        20.6432 
 252   0.0000       0.764511        20.8034 
 253   0.0000       0.765958        20.8428 
 254   0.0000       0.769283        20.9333 
 255   0.0000       0.779970        21.2241 
 256   0.0000       0.786109        21.3911 
 257   0.0000       0.796918        21.6852 
 258   0.0000       0.802743        21.8438 
 259   0.0000       0.811434        22.0802 
 260   0.0000       0.817407        22.2428 
 261   0.0000       0.824420        22.4336 
 262   0.0000       0.831459        22.6251 
 263   0.0000       0.833324        22.6759 
 264   0.0000       0.839304        22.8386 
 265   0.0000       0.842183        22.9170 
 266   0.0000       0.851651        23.1746 
 267   0.0000       0.857663        23.3382 
 268   0.0000       0.868502        23.6332 
 269   0.0000       0.874889        23.8069 
 270   0.0000       0.879255        23.9257 
 271   0.0000       0.884590        24.0709 
 272   0.0000       0.892410        24.2837 
 273   0.0000       0.899553        24.4781 
 274   0.0000       0.904725        24.6188 
 275   0.0000       0.913739        24.8641 
 276   0.0000       0.919149        25.0113 
 277   0.0000       0.926466        25.2104 
 278   0.0000       0.937506        25.5108 
 279   0.0000       0.943932        25.6857 
 280   0.0000       0.946497        25.7555 
 281   0.0000       0.951691        25.8968 
 282   0.0000       0.953283        25.9401 
 283   0.0000       0.968665        26.3587 
 284   0.0000       0.973483        26.4898 
 285   0.0000       0.987824        26.8801 
 286   0.0000       0.990024        26.9399 
 287   0.0000       1.000970        27.2378 
 288   0.0000       1.006486        27.3879 
 289   0.0000       1.010218        27.4894 
 290   0.0000       1.014990        27.6193 
 291   0.0000       1.017937        27.6995 
 292   0.0000       1.031113        28.0580 
 293   0.0000       1.036333        28.2000 
 294   0.0000       1.048093        28.5201 
 295   0.0000       1.055451        28.7203 
 296   0.0000       1.061143        28.8752 
 297   0.0000       1.070014        29.1166 
 298   0.0000       1.071994        29.1704 
[...]
 19:    151.66   0.000113    0.57  0.000233  ( 0.011647 -0.002366 -0.009602)
 20:    175.99   0.000849    4.29  0.001506  (-0.029865  0.024168  0.005485)
 21:    188.00   0.001286    6.50  0.002134  (-0.014926  0.038991 -0.019777)
 22:    207.79   0.001896    9.58  0.002848  (-0.004902  0.052852 -0.005491)
 23:    218.31   0.001582    8.00  0.002262  (-0.023586  0.012499 -0.039358)
 24:    240.03   0.002676   13.52  0.003479  ( 0.028356  0.051561  0.004104)
 25:    248.62   0.001453    7.34  0.001823  ( 0.000696 -0.040462  0.013620)
 26:    275.38   0.004306   21.76  0.004880  (-0.064177  0.009224 -0.026001)
 27:    288.86   0.001775    8.97  0.001917  ( 0.026379  0.033956  0.008268)
 28:    298.93   0.000246    1.24  0.000257  (-0.015003  0.005574 -0.000936)
 29:    317.53   0.001304    6.59  0.001281  (-0.002888 -0.035617 -0.002113)
 30:    335.78   0.000121    0.61  0.000113  ( 0.009685 -0.003146 -0.003010)
 31:    370.77   0.003115   15.74  0.002621  ( 0.044301 -0.025667  0.000252)
 32:    433.63   0.002524   12.76  0.001817  ( 0.036715  0.021512  0.002404)
 33:    450.49   0.000495    2.50  0.000343  ( 0.008482  0.015343  0.005940)
 34:    476.82   0.001106    5.59  0.000724  ( 0.009734 -0.021468 -0.012961)
 35:    497.58   0.002632   13.30  0.001650  ( 0.016890 -0.032162  0.018187)
 36:    504.44   0.002021   10.21  0.001250  (-0.006985  0.030232  0.016951)
 37:    537.02   0.010525   53.19  0.006116  ( 0.012456  0.070960  0.030426)
 38:    551.49   0.004758   24.04  0.002692  (-0.047482 -0.003810  0.020569)
 39:    558.09   0.005726   28.94  0.003202  ( 0.014920  0.054438 -0.003941)
 40:    574.93   0.006151   31.08  0.003339  ( 0.037241  0.026943  0.035011)
 41:    591.31   0.005952   30.08  0.003141  ( 0.014463  0.047418 -0.026147)
 42:    619.79   0.002368   11.97  0.001192  ( 0.026034 -0.008522  0.021017)
 43:    633.59   0.008197   41.42  0.004037  (-0.023521 -0.058333 -0.009003)
 44:    645.85   0.004935   24.94  0.002384  (-0.007630 -0.046408 -0.013130)
 45:    670.12   0.005564   28.12  0.002591  (-0.025294  0.044105  0.002449)
 46:    701.19   0.041895  211.72  0.018645  (-0.001830 -0.130720 -0.039424)
 47:    717.34   0.005572   28.16  0.002424  ( 0.031804  0.037221  0.005208)
 48:    747.35   0.009971   50.39  0.004164  (-0.010112 -0.041487 -0.048375)
 49:    766.52   0.012941   65.40  0.005269  ( 0.016490 -0.065629  0.026261)
 50:    774.34   0.013406   67.75  0.005403  (-0.014645  0.068419 -0.022518)
 51:    794.62   0.000542    2.74  0.000213  ( 0.005707  0.009121 -0.009863)
 52:    799.57   0.002835   14.33  0.001107  (-0.029951 -0.014464 -0.000492)
 53:    819.72   0.003647   18.43  0.001388  (-0.004580 -0.034913 -0.012189)
 54:    831.37   0.001316    6.65  0.000494  (-0.020369  0.002735 -0.008461)
 55:    840.77   0.003653   18.46  0.001356  ( 0.028236  0.019312  0.013630)
 56:    869.76   0.006737   34.05  0.002417  ( 0.009105  0.040858  0.025785)
 57:    879.32   0.002654   13.41  0.000942  ( 0.014206  0.011718  0.024554)
 58:    914.31   0.001501    7.58  0.000512  ( 0.007897 -0.014000 -0.015934)
 59:    934.09   0.006159   31.12  0.002058  ( 0.004419  0.043866 -0.010669)
 60:    958.71   0.001830    9.25  0.000596  ( 0.008286 -0.022957  0.000054)
 61:    964.24   0.000187    0.94  0.000060  ( 0.003464  0.006670 -0.001974)
 62:    991.27   0.000640    3.24  0.000202  (-0.005739  0.012074  0.004778)
 63:    998.83   0.004469   22.59  0.001396  (-0.021156  0.028011  0.012814)
 64:   1003.76   0.017318   87.52  0.005384  (-0.008097  0.072895  0.002184)
 65:   1014.87   0.000399    2.02  0.000123  ( 0.006015 -0.009061 -0.002093)
 66:   1045.15   0.008522   43.07  0.002545  ( 0.043221 -0.017613 -0.019143)
 67:   1050.78   0.006066   30.65  0.001801  ( 0.028665 -0.031291 -0.000737)
 68:   1069.90   0.011497   58.10  0.003353  ( 0.033954 -0.008886 -0.046059)
 69:   1081.10   0.002269   11.47  0.000655  (-0.017479  0.015452 -0.010521)
 70:   1087.24   0.023187  117.18  0.006655  (-0.018548  0.050729  0.061138)
 71:   1094.26   0.004659   23.54  0.001329  ( 0.031739  0.001376  0.017872)
 72:   1147.36   0.010660   53.87  0.002899  ( 0.011098 -0.008163 -0.052052)
 73:   1168.02   0.010642   53.78  0.002843  ( 0.010628 -0.051560  0.008477)
 74:   1171.90   0.000251    1.27  0.000067  (-0.000365 -0.005429  0.006100)
 75:   1172.86   0.000078    0.40  0.000021  (-0.002786  0.000190  0.003611)
 76:   1173.73   0.001185    5.99  0.000315  ( 0.006482 -0.006273 -0.015289)
 77:   1197.79   0.016788   84.84  0.004374  (-0.037560  0.054184  0.005201)
 78:   1204.27   0.015802   79.86  0.004095  (-0.031495 -0.054867 -0.009611)
 79:   1207.04   0.004757   24.04  0.001230  (-0.015133  0.022092  0.022647)
 80:   1207.49   0.002031   10.26  0.000525  ( 0.020487 -0.007808  0.006643)
 81:   1224.99   0.000223    1.13  0.000057  (-0.001578  0.006677 -0.003122)
 82:   1233.96   0.000426    2.15  0.000108  (-0.010167 -0.000171 -0.002084)
 83:   1238.74   0.024898  125.83  0.006272  ( 0.067793 -0.031923  0.025640)
 84:   1261.84   0.030834  155.82  0.007625  (-0.078699  0.030550 -0.022329)
 85:   1268.59   0.068279  345.05  0.016796  ( 0.111479 -0.065386  0.009647)
 86:   1296.24   0.018461   93.29  0.004444  (-0.034404  0.000226 -0.057102)
 87:   1307.91   0.050732  256.38  0.012105  (-0.038859 -0.056818 -0.085827)
 88:   1328.65   0.004829   24.40  0.001134  ( 0.027820 -0.010126 -0.016051)
 89:   1348.83   0.004297   21.72  0.000994  ( 0.029589 -0.005400  0.009465)
 90:   1365.02   0.020716  104.69  0.004736  (-0.008332  0.052781  0.043367)
 91:   1371.89   0.070646  357.02  0.016070  (-0.102884  0.072061  0.017087)
 92:   1374.80   0.048782  246.53  0.011073  (-0.033125  0.072011  0.069211)
 93:   1388.48   0.002304   11.65  0.000518  (-0.013122 -0.017200  0.007065)
 94:   1416.56   0.005338   26.98  0.001176  (-0.011766  0.011485  0.030093)
 95:   1464.87   0.004565   23.07  0.000972  ( 0.000871 -0.023757 -0.020182)
 96:   1464.98   0.003292   16.64  0.000701  ( 0.005051 -0.023493  0.011125)
 97:   1469.26   0.012970   65.55  0.002755  (-0.051525  0.001032  0.009944)
 98:   1472.31   0.006190   31.28  0.001312  (-0.024303  0.011590 -0.024228)
 99:   1476.98   0.009556   48.29  0.002019  (-0.029801 -0.004000  0.033391)
100:   1479.14   0.011158   56.39  0.002354  ( 0.034554  0.033197 -0.007616)
101:   1484.11   0.002049   10.35  0.000431  (-0.014761 -0.011281 -0.009251)
102:   1500.29   0.011090   56.05  0.002307  ( 0.014046  0.026267  0.037677)
103:   1511.55   0.006358   32.13  0.001313  ( 0.028984  0.015554 -0.015189)
104:   1540.96   0.030216  152.70  0.006119  ( 0.037513  0.043667  0.052963)
105:   1583.65   0.074824  378.13  0.014744  (-0.024493  0.059875 -0.102759)
106:   1598.01   0.069922  353.36  0.013655  ( 0.014446  0.084876 -0.079006)
107:   1652.30   0.008260   41.74  0.001560  (-0.001280 -0.012422 -0.037470)
108:   1665.77   0.012611   63.73  0.002362  (-0.033178 -0.023767 -0.026397)
109:   1689.98   0.045054  227.68  0.008319  (-0.089298 -0.014155 -0.012039)
110:   1796.73   0.105510  533.20  0.018325  ( 0.066499  0.077779  0.088621)
111:   2345.76   0.052806  266.86  0.007025  (-0.050060 -0.053967  0.040080)
112:   3042.86   0.011115   56.17  0.001140  ( 0.012422 -0.007746 -0.030424)
113:   3075.57   0.006069   30.67  0.000616  ( 0.017570 -0.016356 -0.006292)
114:   3111.53   0.000962    4.86  0.000096  ( 0.007503 -0.005971 -0.002118)
115:   3117.57   0.006565   33.18  0.000657  (-0.008641  0.022394 -0.008997)
116:   3134.61   0.000712    3.60  0.000071  ( 0.006570  0.000047 -0.005260)
117:   3152.96   0.000834    4.21  0.000083  (-0.008803  0.002229  0.000206)
118:   3160.13   0.003589   18.14  0.000354  (-0.006400 -0.012567  0.012471)
119:   3169.20   0.002941   14.86  0.000290  ( 0.012575  0.008487  0.007711)
120:   3187.89   0.000669    3.38  0.000065  (-0.005253  0.000921  0.006086)
121:   3192.92   0.001920    9.70  0.000188  ( 0.009508  0.002862  0.009435)
122:   3197.69   0.001598    8.07  0.000156  (-0.011096 -0.001183  0.005604)
123:   3202.99   0.001388    7.02  0.000135  (-0.009501  0.001726 -0.006482)
124:   3215.80   0.002755   13.92  0.000267  (-0.009942 -0.007359 -0.010695)
125:   3226.27   0.000426    2.15  0.000041  ( 0.004470  0.000545  0.004579)
126:   3229.97   0.000227    1.15  0.000022  ( 0.003233 -0.000691 -0.003322)
127:   3230.89   0.000090    0.46  0.000009  (-0.002432 -0.001243 -0.001130)
128:   3249.93   0.000040    0.20  0.000004  ( 0.001198 -0.000286  0.001535)

* The epsilon (eps) is given for a Dirac delta lineshape.
** The dipole moment derivative (T) already includes vibrational overlap.

The first frequency considered to be a vibration is 7
The total number of vibrations considered is 122


--------------------------
THERMOCHEMISTRY AT 298.15K
--------------------------

Temperature         ... 298.15 K
Pressure            ... 1.00 atm
Total Mass          ... 355.35 AMU

Throughout the following assumptions are being made:
  (1) The electronic state is orbitally nondegenerate
  (2) There are no thermally accessible electronically excited states
  (3) Hindered rotations indicated by low frequency modes are not
      treated as such but are treated as vibrations and this may
      cause some error
  (4) All equations used are the standard statistical mechanics
      equations for an ideal gas
  (5) All vibrations are strictly harmonic

freq.      27.73  E(vib)   ...       0.55 
freq.      50.88  E(vib)   ...       0.52 
freq.      70.86  E(vib)   ...       0.50 
freq.      80.45  E(vib)   ...       0.48 
freq.      86.54  E(vib)   ...       0.48 
freq.      93.54  E(vib)   ...       0.47 
freq.      94.66  E(vib)   ...       0.47 
freq.     109.22  E(vib)   ...       0.45 
freq.     119.73  E(vib)   ...       0.44 
freq.     120.75  E(vib)   ...       0.44 
freq.     126.45  E(vib)   ...       0.43 
freq.     138.31  E(vib)   ...       0.42 
freq.     151.66  E(vib)   ...       0.40 
freq.     175.99  E(vib)   ...       0.38 
freq.     188.00  E(vib)   ...       0.36 
freq.     207.79  E(vib)   ...       0.34 
freq.     218.31  E(vib)   ...       0.33 
freq.     240.03  E(vib)   ...       0.31 
freq.     248.62  E(vib)   ...       0.31 
freq.     275.38  E(vib)   ...       0.28 
freq.     288.86  E(vib)   ...       0.27 
freq.     298.93  E(vib)   ...       0.26 
freq.     317.53  E(vib)   ...       0.25 
freq.     335.78  E(vib)   ...       0.24 
freq.     370.77  E(vib)   ...       0.21 
freq.     433.63  E(vib)   ...       0.17 
freq.     450.49  E(vib)   ...       0.17 
freq.     476.82  E(vib)   ...       0.15 
freq.     497.58  E(vib)   ...       0.14 
freq.     504.44  E(vib)   ...       0.14 
freq.     537.02  E(vib)   ...       0.12 
freq.     551.49  E(vib)   ...       0.12 
freq.     558.09  E(vib)   ...       0.12 
freq.     574.93  E(vib)   ...       0.11 
freq.     591.31  E(vib)   ...       0.10 
freq.     619.79  E(vib)   ...       0.09 
freq.     633.59  E(vib)   ...       0.09 
freq.     645.85  E(vib)   ...       0.09 
freq.     670.12  E(vib)   ...       0.08 
freq.     701.19  E(vib)   ...       0.07 
freq.     717.34  E(vib)   ...       0.07 
freq.     747.35  E(vib)   ...       0.06 
freq.     766.52  E(vib)   ...       0.06 
freq.     774.34  E(vib)   ...       0.05 
freq.     794.62  E(vib)   ...       0.05 
freq.     799.57  E(vib)   ...       0.05 
freq.     819.72  E(vib)   ...       0.05 
freq.     831.37  E(vib)   ...       0.04 
freq.     840.77  E(vib)   ...       0.04 
freq.     869.76  E(vib)   ...       0.04 
freq.     879.32  E(vib)   ...       0.04 
freq.     914.31  E(vib)   ...       0.03 
freq.     934.09  E(vib)   ...       0.03 
freq.     958.71  E(vib)   ...       0.03 
freq.     964.24  E(vib)   ...       0.03 
freq.     991.27  E(vib)   ...       0.02 
freq.     998.83  E(vib)   ...       0.02 
freq.    1003.76  E(vib)   ...       0.02 
freq.    1014.87  E(vib)   ...       0.02 
freq.    1045.15  E(vib)   ...       0.02 
freq.    1050.78  E(vib)   ...       0.02 
freq.    1069.90  E(vib)   ...       0.02 
freq.    1081.10  E(vib)   ...       0.02 
freq.    1087.24  E(vib)   ...       0.02 
freq.    1094.26  E(vib)   ...       0.02 
freq.    1147.36  E(vib)   ...       0.01 
freq.    1168.02  E(vib)   ...       0.01 
freq.    1171.90  E(vib)   ...       0.01 
freq.    1172.86  E(vib)   ...       0.01 
freq.    1173.73  E(vib)   ...       0.01 
freq.    1197.79  E(vib)   ...       0.01 
freq.    1204.27  E(vib)   ...       0.01 
freq.    1207.04  E(vib)   ...       0.01 
freq.    1207.49  E(vib)   ...       0.01 
freq.    1224.99  E(vib)   ...       0.01 
freq.    1233.96  E(vib)   ...       0.01 
freq.    1238.74  E(vib)   ...       0.01 
freq.    1261.84  E(vib)   ...       0.01 
freq.    1268.59  E(vib)   ...       0.01 
freq.    1296.24  E(vib)   ...       0.01 
freq.    1307.91  E(vib)   ...       0.01 
freq.    1328.65  E(vib)   ...       0.01 
freq.    1348.83  E(vib)   ...       0.01 
freq.    1365.02  E(vib)   ...       0.01 
freq.    1371.89  E(vib)   ...       0.01 
freq.    1374.80  E(vib)   ...       0.01 
freq.    1388.48  E(vib)   ...       0.00 
freq.    1416.56  E(vib)   ...       0.00 
freq.    1464.87  E(vib)   ...       0.00 
freq.    1464.98  E(vib)   ...       0.00 
freq.    1469.26  E(vib)   ...       0.00 
freq.    1472.31  E(vib)   ...       0.00 
freq.    1476.98  E(vib)   ...       0.00 
freq.    1479.14  E(vib)   ...       0.00 
freq.    1484.11  E(vib)   ...       0.00 
freq.    1500.29  E(vib)   ...       0.00 
freq.    1511.55  E(vib)   ...       0.00 
freq.    1540.96  E(vib)   ...       0.00 
freq.    1583.65  E(vib)   ...       0.00 
freq.    1598.01  E(vib)   ...       0.00 
freq.    1652.30  E(vib)   ...       0.00 
freq.    1665.77  E(vib)   ...       0.00 
freq.    1689.98  E(vib)   ...       0.00 
freq.    1796.73  E(vib)   ...       0.00 
freq.    2345.76  E(vib)   ...       0.00 
freq.    3042.86  E(vib)   ...       0.00 
freq.    3075.57  E(vib)   ...       0.00 
freq.    3111.53  E(vib)   ...       0.00 
freq.    3117.57  E(vib)   ...       0.00 
freq.    3134.61  E(vib)   ...       0.00 
freq.    3152.96  E(vib)   ...       0.00 
freq.    3160.13  E(vib)   ...       0.00 
freq.    3169.20  E(vib)   ...       0.00 
freq.    3187.89  E(vib)   ...       0.00 
freq.    3192.92  E(vib)   ...       0.00 
freq.    3197.69  E(vib)   ...       0.00 
freq.    3202.99  E(vib)   ...       0.00 
freq.    3215.80  E(vib)   ...       0.00 
freq.    3226.27  E(vib)   ...       0.00 
freq.    3229.97  E(vib)   ...       0.00 
freq.    3230.89  E(vib)   ...       0.00 
freq.    3249.93  E(vib)   ...       0.00 

------------
INNER ENERGY
------------

The inner energy is: U= E(el) + E(ZPE) + E(vib) + E(rot) + E(trans)
    E(el)   - is the total energy from the electronic structure calculation
              = E(kin-el) + E(nuc-el) + E(el-el) + E(nuc-nuc)
    E(ZPE)  - the the zero temperature vibrational energy from the frequency calculation
    E(vib)  - the the finite temperature correction to E(ZPE) due to population
              of excited vibrational states
    E(rot)  - is the rotational thermal energy
    E(trans)- is the translational thermal energy

Summary of contributions to the inner energy U:
Electronic energy                ...  -1235.51438048 Eh
Zero point energy                ...      0.33285103 Eh     208.87 kcal/mol
Thermal vibrational correction   ...      0.01985352 Eh      12.46 kcal/mol
Thermal rotational correction    ...      0.00141627 Eh       0.89 kcal/mol
Thermal translational correction ...      0.00141627 Eh       0.89 kcal/mol
-----------------------------------------------------------------------
Total thermal energy                  -1235.15884339 Eh


Summary of corrections to the electronic energy:
(perhaps to be used in another calculation)
Total thermal correction                  0.02268606 Eh      14.24 kcal/mol
Non-thermal (ZPE) correction              0.33285103 Eh     208.87 kcal/mol
-----------------------------------------------------------------------
Total correction                          0.35553709 Eh     223.10 kcal/mol


--------
ENTHALPY
--------

The enthalpy is H = U + kB*T
                kB is Boltzmann's constant
Total free energy                 ...  -1235.15884339 Eh 
Thermal Enthalpy correction       ...      0.00094421 Eh       0.59 kcal/mol
-----------------------------------------------------------------------
Total Enthalpy                    ...  -1235.15789918 Eh


Note: Only C1 symmetry has been detected, increase convergence thresholds 
      if your molecule has a higher symmetry. Symmetry factor of 1.0 is   
      used for the rotational entropy correction. 
 

Note: Rotational entropy computed according to Herzberg 
Infrared and Raman Spectra, Chapter V,1, Van Nostrand Reinhold, 1945 
Point Group:  C1, Symmetry Number:   1  
Rotational constants in cm-1:     0.011536     0.006819     0.005660 

Vibrational entropy computed according to the QRRHO of S. Grimme
Chem.Eur.J. 2012 18 9955


-------
ENTROPY
-------

The entropy contributions are T*S = T*(S(el)+S(vib)+S(rot)+S(trans))
     S(el)   - electronic entropy
     S(vib)  - vibrational entropy
     S(rot)  - rotational entropy
     S(trans)- translational entropy
The entropies will be listed as multiplied by the temperature to get
units of energy

Electronic entropy                ...      0.00000000 Eh      0.00 kcal/mol
Vibrational entropy               ...      0.03530748 Eh     22.16 kcal/mol
Rotational entropy                ...      0.01641499 Eh     10.30 kcal/mol
Translational entropy             ...      0.02066698 Eh     12.97 kcal/mol
-----------------------------------------------------------------------
Final entropy term                ...      0.07238944 Eh     45.42 kcal/mol

In case the symmetry of your molecule has not been determined correctly
or in case you have a reason to use a different symmetry number we print 
out the resulting rotational entropy values for sn=1,12 :
 --------------------------------------------------------
|  sn= 1 | S(rot)=       0.01641499 Eh     10.30 kcal/mol|
|  sn= 2 | S(rot)=       0.01576053 Eh      9.89 kcal/mol|
|  sn= 3 | S(rot)=       0.01537770 Eh      9.65 kcal/mol|
|  sn= 4 | S(rot)=       0.01510607 Eh      9.48 kcal/mol|
|  sn= 5 | S(rot)=       0.01489539 Eh      9.35 kcal/mol|
|  sn= 6 | S(rot)=       0.01472324 Eh      9.24 kcal/mol|
|  sn= 7 | S(rot)=       0.01457770 Eh      9.15 kcal/mol|
|  sn= 8 | S(rot)=       0.01445162 Eh      9.07 kcal/mol|
|  sn= 9 | S(rot)=       0.01434041 Eh      9.00 kcal/mol|
|  sn=10 | S(rot)=       0.01424093 Eh      8.94 kcal/mol|
|  sn=11 | S(rot)=       0.01415094 Eh      8.88 kcal/mol|
|  sn=12 | S(rot)=       0.01406879 Eh      8.83 kcal/mol|
 --------------------------------------------------------


-------------------
GIBBS FREE ENERGY
-------------------

The Gibbs free energy is G = H - T*S

Total enthalpy                    ...  -1235.15789918 Eh 
Total entropy correction          ...     -0.07238944 Eh    -45.42 kcal/mol
-----------------------------------------------------------------------
Final Gibbs free energy         ...  -1235.23028863 Eh

For completeness - the Gibbs free energy minus the electronic energy
G-E(el)                           ...      0.28409186 Eh    178.27 kcal/mol


Timings for individual modules:

Sum of individual times         ...    10417.048 sec (= 173.617 min)
GTO integral calculation        ...       97.607 sec (=   1.627 min)   0.9 %
SCF iterations                  ...     5235.317 sec (=  87.255 min)  50.3 %
SCF Gradient evaluation         ...     1334.879 sec (=  22.248 min)  12.8 %
Geometry relaxation             ...        5.707 sec (=   0.095 min)   0.1 %
Analytical frequency calculation...     3743.538 sec (=  62.392 min)  35.9 %
                             ****ORCA TERMINATED NORMALLY****
TOTAL RUN TIME: 0 days 2 hours 55 minutes 15 seconds 541 msec
