
                                 *****************
                                 * O   R   C   A *
                                 *****************

                                            #,                                       
                                            ###                                      
                                            ####                                     
                                            #####                                    
                                            ######                                   
                                           ########,                                 
                                     ,,################,,,,,                         
                               ,,#################################,,                 
                          ,,##########################################,,             
                       ,#########################################, ''#####,          
                    ,#############################################,,   '####,        
                  ,##################################################,,,,####,       
                ,###########''''           ''''###############################       
              ,#####''   ,,,,##########,,,,          '''####'''          '####       
            ,##' ,,,,###########################,,,                        '##       
           ' ,,###''''                  '''############,,,                           
         ,,##''                                '''############,,,,        ,,,,,,###''
      ,#''                                            '''#######################'''  
     '                                                          ''''####''''         
             ,#######,   #######,   ,#######,      ##                                
            ,#'     '#,  ##    ##  ,#'     '#,    #''#        ######   ,####,        
            ##       ##  ##   ,#'  ##            #'  '#       #        #'  '#        
            ##       ##  #######   ##           ,######,      #####,   #    #        
            '#,     ,#'  ##    ##  '#,     ,#' ,#      #,         ##   #,  ,#        
             '#######'   ##     ##  '#######'  #'      '#     #####' # '####'        



                  #######################################################
                  #                        -***-                        #
                  #          Department of theory and spectroscopy      #
                  #    Directorship and core code : Frank Neese         #
                  #        Max Planck Institute fuer Kohlenforschung    #
                  #                Kaiser Wilhelm Platz 1               #
                  #                 D-45470 Muelheim/Ruhr               #
                  #                      Germany                        #
                  #                                                     #
                  #                  All rights reserved                #
                  #                        -***-                        #
                  #######################################################


                         Program Version 5.0.4 -  RELEASE  -


 With contributions from (in alphabetic order):
   Daniel Aravena         : Magnetic Suceptibility
   Michael Atanasov       : Ab Initio Ligand Field Theory (pilot matlab implementation)
   Alexander A. Auer      : GIAO ZORA, VPT2 properties, NMR spectrum
   Ute Becker             : Parallelization
   Giovanni Bistoni       : ED, misc. LED, open-shell LED, HFLD
   Martin Brehm           : Molecular dynamics
   Dmytro Bykov           : SCF Hessian
   Vijay G. Chilkuri      : MRCI spin determinant printing, contributions to CSF-ICE
   Dipayan Datta          : RHF DLPNO-CCSD density
   Achintya Kumar Dutta   : EOM-CC, STEOM-CC
   Dmitry Ganyushin       : Spin-Orbit,Spin-Spin,Magnetic field MRCI
   Miquel Garcia          : C-PCM and meta-GGA Hessian, CC/C-PCM, Gaussian charge scheme
   Yang Guo               : DLPNO-NEVPT2, F12-NEVPT2, CIM, IAO-localization
   Andreas Hansen         : Spin unrestricted coupled pair/coupled cluster methods
   Benjamin Helmich-Paris : MC-RPA, TRAH-SCF, COSX integrals
   Lee Huntington         : MR-EOM, pCC
   Robert Izsak           : Overlap fitted RIJCOSX, COSX-SCS-MP3, EOM
   Marcus Kettner         : VPT2
   Christian Kollmar      : KDIIS, OOCD, Brueckner-CCSD(T), CCSD density, CASPT2, CASPT2-K
   Simone Kossmann        : Meta GGA functionals, TD-DFT gradient, OOMP2, MP2 Hessian
   Martin Krupicka        : Initial AUTO-CI
   Lucas Lang             : DCDCAS
   Marvin Lechner         : AUTO-CI (C++ implementation), FIC-MRCC
   Dagmar Lenk            : GEPOL surface, SMD
   Dimitrios Liakos       : Extrapolation schemes; Compound Job, initial MDCI parallelization
   Dimitrios Manganas     : Further ROCIS development; embedding schemes
   Dimitrios Pantazis     : SARC Basis sets
   Anastasios Papadopoulos: AUTO-CI, single reference methods and gradients
   Taras Petrenko         : DFT Hessian,TD-DFT gradient, ASA, ECA, R-Raman, ABS, FL, XAS/XES, NRVS
   Peter Pinski           : DLPNO-MP2, DLPNO-MP2 Gradient
   Christoph Reimann      : Effective Core Potentials
   Marius Retegan         : Local ZFS, SOC
   Christoph Riplinger    : Optimizer, TS searches, QM/MM, DLPNO-CCSD(T), (RO)-DLPNO pert. Triples
   Tobias Risthaus        : Range-separated hybrids, TD-DFT gradient, RPA, STAB
   Michael Roemelt        : Original ROCIS implementation
   Masaaki Saitow         : Open-shell DLPNO-CCSD energy and density
   Barbara Sandhoefer     : DKH picture change effects
   Avijit Sen             : IP-ROCIS
   Kantharuban Sivalingam : CASSCF convergence, NEVPT2, FIC-MRCI
   Bernardo de Souza      : ESD, SOC TD-DFT
   Georgi Stoychev        : AutoAux, RI-MP2 NMR, DLPNO-MP2 response
   Willem Van den Heuvel  : Paramagnetic NMR
   Boris Wezisla          : Elementary symmetry handling
   Frank Wennmohs         : Technical directorship


 We gratefully acknowledge several colleagues who have allowed us to
 interface, adapt or use parts of their codes:
   Stefan Grimme, W. Hujo, H. Kruse, P. Pracht,  : VdW corrections, initial TS optimization,
                  C. Bannwarth, S. Ehlert          DFT functionals, gCP, sTDA/sTD-DF
   Ed Valeev, F. Pavosevic, A. Kumar             : LibInt (2-el integral package), F12 methods
   Garnet Chan, S. Sharma, J. Yang, R. Olivares  : DMRG
   Ulf Ekstrom                                   : XCFun DFT Library
   Mihaly Kallay                                 : mrcc  (arbitrary order and MRCC methods)
   Jiri Pittner, Ondrej Demel                    : Mk-CCSD
   Frank Weinhold                                : gennbo (NPA and NBO analysis)
   Christopher J. Cramer and Donald G. Truhlar   : smd solvation model
   Lars Goerigk                                  : TD-DFT with DH, B97 family of functionals
   V. Asgeirsson, H. Jonsson                     : NEB implementation
   FAccTs GmbH                                   : IRC, NEB, NEB-TS, DLPNO-Multilevel, CI-OPT
                                                   MM, QMMM, 2- and 3-layer-ONIOM, Crystal-QMMM,
                                                   LR-CPCM, SF, NACMEs, symmetry and pop. for TD-DFT,
                                                   nearIR, NL-DFT gradient (VV10), updates on ESD,
                                                   ML-optimized integration grids
   S Lehtola, MJT Oliveira, MAL Marques          : LibXC Library
   Liviu Ungur et al                             : ANISO software


 Your calculation uses the libint2 library for the computation of 2-el integrals
 For citations please refer to: http://libint.valeyev.net

 Your ORCA version has been built with support for libXC version: 5.1.0
 For citations please refer to: https://tddft.org/programs/libxc/

 This ORCA versions uses:
   CBLAS   interface :  Fast vector & matrix operations
   LAPACKE interface :  Fast linear algebra routines
   SCALAPACK package :  Parallel linear algebra routines
   Shared memory     :  Shared parallel matrices
   BLAS/LAPACK       :  OpenBLAS 0.3.15  USE64BITINT DYNAMIC_ARCH NO_AFFINITY Haswell SINGLE_THREADED
        Core in use  :  Haswell
   Copyright (c) 2011-2014, The OpenBLAS Project


Your calculation utilizes the atom-pairwise dispersion correction
with the Becke-Johnson damping scheme (D3BJ)
Cite in your paper:
S.Grimme, S.Ehrlich, L.Goerigk, J Comput Chem, (2011), 32, 1456–1465 
S.Grimme, J.Antony, S.Ehrlich and H.Krieg, J.Chem.Phys., 132, (2010), 154104 
   

================================================================================

----- Orbital basis set information -----
Your calculation utilizes the basis: def2-TZVP
   F. Weigend and R. Ahlrichs, Phys. Chem. Chem. Phys. 7, 3297 (2005).

----- AuxJ basis set information -----
Your calculation utilizes the auxiliary basis: def2/J
   F. Weigend, Phys. Chem. Chem. Phys. 8, 1057 (2006).

================================================================================
                                        WARNINGS
                       Please study these warnings very carefully!
================================================================================


WARNING: Geometry Optimization
  ===> : Switching off AutoStart
         For restart on a previous wavefunction, please use MOREAD

INFO   : the flag for use of the SHARK integral package has been found!

================================================================================
                                       INPUT FILE
================================================================================
NAME = TS1_4-OMePh/TS1_4-OMePh.inp
|  1> %pal nprocs 24 end
|  2> %maxcore 3500
|  3> ! PBE0 D3BJ def2-TZVP TightSCF OPTTS FREQ TightOpt
|  4> ! CPCM(dmso)
|  5> %scf
|  6> MaxIter 800
|  7> end
|  8> %geom
|  9> MaxIter 800
| 10> MaxStep 0.2
| 11> end
| 12> *xyz 0 1
| 13> 
| 14> C      -3.31003500      3.04011700      1.03680200
| 15> C      -4.27317400      2.29933300      0.32048900
| 16> C      -3.93712900      1.05583300     -0.11341900
| 17> N      -2.73512400      0.51635800      0.18280000
| 18> C      -1.77226400      1.19565500      0.87674000
| 19> C      -2.09337300      2.49421900      1.33257400
| 20> C      -2.26381200     -0.69657700     -0.42751000
| 21> C      -2.33256600     -1.83745500      0.57487900
| 22> O      -2.70010500     -1.72541400      1.71608500
| 23> O      -2.03448800     -2.98385400     -0.01161900
| 24> C      -2.04397100     -4.14329500      0.82640400
| 25> H      -3.55278500      4.03561200      1.39002400
| 26> H      -4.59228000      0.43591400     -0.71123000
| 27> H      -1.06519700      0.57596000      1.40961800
| 28> H      -1.36997800      3.02845700      1.93348000
| 29> H      -2.96223700     -0.96980800     -1.21968000
| 30> H      -1.32538400     -4.02292400      1.63742700
| 31> H      -1.75616400     -4.97120300      0.18418200
| 32> C      -0.33977000      0.98918500     -0.72013800
| 33> C      -0.85611900     -0.38147000     -1.12235400
| 34> C       0.18834400     -1.46029700     -1.03074100
| 35> C       0.65876200     -2.04484700     -2.19587200
| 36> C       1.67679800     -2.99024300     -2.17967300
| 37> C       2.23639700     -3.35947300     -0.96895600
| 38> C       1.77690200     -2.80110400      0.21771600
| 39> C       0.75476100     -1.86278500      0.18495700
| 40> O       0.22858300     -1.29059000      1.28750400
| 41> C       0.76546600     -1.62265700      2.55193400
| 42> N      -0.84573100      2.02446300     -1.48514600
| 43> O      -1.85618500      1.82120600     -2.18744100
| 44> H      -1.12040800     -0.30378200     -2.17622100
| 45> H       0.22348100     -1.73773100     -3.14122400
| 46> H       2.02883900     -3.42730800     -3.10635200
| 47> H       3.03596000     -4.09082600     -0.93494200
| 48> H       2.21688900     -3.10118600      1.15917800
| 49> H       0.65852200     -2.69115900      2.75688700
| 50> H       0.19155100     -1.05343500      3.28037500
| 51> H       1.81952100     -1.33908000      2.61479200
| 52> O      -0.35722500      3.16535000     -1.38854600
| 53> H      -3.04037100     -4.30559600      1.23697400
| 54> H      -5.25003800      2.70242200      0.09592300
| 55> C       2.71881800      1.70781700      1.42664300
| 56> C       1.39963000      1.56911900      1.03992700
| 57> C       3.74760600      1.46721600      0.51828600
| 58> H       0.63320200      1.76377300      1.77824900
| 59> C       1.05964400      1.18571800     -0.25542000
| 60> C       3.43207300      1.09811900     -0.78588800
| 61> H       4.20590900      0.90991000     -1.51795600
| 62> C       2.10075600      0.96358300     -1.15176300
| 63> H       1.86892100      0.66941300     -2.16912000
| 64> H       2.97044800      2.00214500      2.43910700
| 65> O       5.00708800      1.61630700      0.98519400
| 66> C       6.07458400      1.37519800      0.08825700
| 67> H       6.04168100      2.06416900     -0.76085100
| 68> H       6.98887100      1.54137200      0.65442800
| 69> H       6.05631700      0.34540400     -0.28051300
| 70> *
| 71> 
| 72>                          ****END OF INPUT****
================================================================================

                       *****************************
                       * Geometry Optimization Run *
                       *****************************

Geometry optimization settings:
Update method            Update   .... Bofill
Choice of coordinates    CoordSys .... Z-matrix Internals
Initial Hessian          InHess   .... Almoef's Model

Convergence Tolerances:
Energy Change            TolE     ....  1.0000e-06 Eh
Max. Gradient            TolMAXG  ....  1.0000e-04 Eh/bohr
RMS Gradient             TolRMSG  ....  3.0000e-05 Eh/bohr
Max. Displacement        TolMAXD  ....  1.0000e-03 bohr
RMS Displacement         TolRMSD  ....  6.0000e-04 bohr
Strict Convergence                ....  False
------------------------------------------------------------------------------
                        ORCA OPTIMIZATION COORDINATE SETUP
------------------------------------------------------------------------------

The optimization will be done in new redundant internal coordinates
Making redundant internal coordinates   ...  (new redundants) done
Following TS mode number                ...     0
Evaluating the initial hessian          ...  (Almloef) done
Evaluating the coordinates              ...  done
Calculating the B-matrix                .... done
Calculating the G-matrix                .... done
Diagonalizing the G-matrix              .... done
Small eigenvalue found = 1.447e-03
Small eigenvalue found = 3.655e-03
Small eigenvalue found = 4.102e-03
Small eigenvalue found = 7.115e-03
Small eigenvalue found = 7.966e-03
Small eigenvalue found = 1.171e-02
Small eigenvalue found = 1.407e-02
Small eigenvalue found = 1.988e-02
Small eigenvalue found = 2.672e-02
The first mode is                       ....  121
The number of degrees of freedom        ....  162

    -----------------------------------------------------------------
                    Redundant Internal Coordinates


    -----------------------------------------------------------------
         Definition                    Initial Value    Approx d2E/dq
    -----------------------------------------------------------------
      1. B(C   1,C   0)                  1.4105         0.579478   
      2. B(C   2,C   1)                  1.3592         0.699579   
      3. B(N   3,C   2)                  1.3504         0.647211   
      4. B(C   4,N   3)                  1.3675         0.607784   
      5. B(C   5,C   4)                  1.4132         0.573730   
      6. B(C   5,C   0)                  1.3659         0.682571   
      7. B(C   6,N   3)                  1.4373         0.470343   
      8. B(C   7,C   6)                  1.5202         0.387220   
      9. B(O   8,C   7)                  1.2042         1.107591   
     10. B(O   9,C   7)                  1.3218         0.719020   
     11. B(C  10,O   9)                  1.4306         0.482023   
     12. B(H  11,C   0)                  1.0838         0.368345   
     13. B(H  12,C   2)                  1.0821         0.370729   
     14. B(H  13,C   4)                  1.0807         0.372608   
     15. B(H  14,C   5)                  1.0816         0.371423   
     16. B(H  15,C   6)                  1.0909         0.358958   
     17. B(H  16,C  10)                  1.0902         0.359788   
     18. B(H  17,C  10)                  1.0866         0.364617   
     19. B(C  19,C  18)                  1.5189         0.389108   
     20. B(C  19,C   6)                  1.6012         0.287642   
     21. B(C  20,C  19)                  1.5044         0.410441   
     22. B(C  21,C  20)                  1.3858         0.634444   
     23. B(C  22,C  21)                  1.3894         0.626174   
     24. B(C  23,C  22)                  1.3839         0.638838   
     25. B(C  24,C  23)                  1.3896         0.625621   
     26. B(C  25,C  24)                  1.3879         0.629617   
     27. B(C  25,C  20)                  1.4003         0.601671   
     28. B(O  26,C  25)                  1.3490         0.650491   
     29. B(C  27,O  26)                  1.4133         0.513772   
     30. B(N  28,C  18)                  1.3831         0.573911   
     31. B(O  29,N  28)                  1.2472         0.846865   
     32. B(H  30,C  19)                  1.0893         0.361061   
     33. B(H  31,C  21)                  1.0851         0.366617   
     34. B(H  32,C  22)                  1.0834         0.368977   
     35. B(H  33,C  23)                  1.0841         0.367951   
     36. B(H  34,C  24)                  1.0817         0.371303   
     37. B(H  35,C  27)                  1.0932         0.355860   
     38. B(H  36,C  27)                  1.0881         0.362587   
     39. B(H  37,C  27)                  1.0933         0.355705   
     40. B(O  38,N  28)                  1.2448         0.854334   
     41. B(H  39,C  10)                  1.0898         0.360329   
     42. B(H  40,C   1)                  1.0804         0.373083   
     43. B(C  42,C  41)                  1.3817         0.644185   
     44. B(C  43,C  41)                  1.3933         0.617169   
     45. B(H  44,C  42)                  1.0819         0.371031   
     46. B(C  45,C  42)                  1.3930         0.617898   
     47. B(C  45,C  18)                  1.4876         0.436543   
     48. B(C  46,C  43)                  1.3916         0.621042   
     49. B(H  47,C  46)                  1.0817         0.371190   
     50. B(C  48,C  46)                  1.3872         0.631218   
     51. B(C  48,C  45)                  1.3916         0.621021   
     52. B(H  49,C  48)                  1.0841         0.367974   
     53. B(H  50,C  41)                  1.0840         0.368142   
     54. B(O  51,H  37)                  4.6423         0.000001   
     55. B(O  51,C  43)                  1.3515         0.644637   
     56. B(C  52,O  51)                  1.4150         0.510524   
     57. B(H  53,C  52)                  1.0940         0.354900   
     58. B(H  54,C  52)                  1.0882         0.362547   
     59. B(H  55,C  52)                  1.0940         0.354868   
     60. A(C   1,C   0,C   5)          120.5500         0.436303   
     61. A(C   1,C   0,H  11)          119.6668         0.350237   
     62. A(C   5,C   0,H  11)          119.7362         0.360101   
     63. A(C   0,C   1,H  40)          121.8051         0.350994   
     64. A(C   0,C   1,C   2)          118.2799         0.438244   
     65. A(C   2,C   1,H  40)          119.9030         0.362405   
     66. A(C   1,C   2,N   3)          121.0320         0.444145   
     67. A(C   1,C   2,H  12)          123.4215         0.362013   
     68. A(N   3,C   2,H  12)          115.5462         0.355040   
     69. A(C   2,N   3,C   4)          122.6556         0.430186   
     70. A(C   2,N   3,C   6)          122.4027         0.410953   
     71. A(C   4,N   3,C   6)          113.8151         0.406405   
     72. A(C   5,C   4,H  13)          121.0988         0.350328   
     73. A(N   3,C   4,C   5)          117.3958         0.423760   
     74. A(N   3,C   4,H  13)          115.2164         0.351583   
     75. A(C   4,C   5,H  14)          118.7577         0.350140   
     76. A(C   0,C   5,H  14)          121.2414         0.360612   
     77. A(C   0,C   5,C   4)          119.9853         0.435521   
     78. A(H  15,C   6,C  19)          107.2801         0.310641   
     79. A(C   7,C   6,C  19)          118.2678         0.349699   
     80. A(N   3,C   6,C  19)          107.8476         0.359188   
     81. A(N   3,C   6,C   7)          109.7857         0.377993   
     82. A(C   7,C   6,H  15)          105.1826         0.326067   
     83. A(N   3,C   6,H  15)          108.0460         0.334696   
     84. A(O   8,C   7,O   9)          124.7545         0.489244   
     85. A(C   6,C   7,O   8)          124.6716         0.439814   
     86. A(C   6,C   7,O   9)          110.3723         0.407132   
     87. A(C   7,O   9,C  10)          116.1998         0.420548   
     88. A(O   9,C  10,H  39)          110.3304         0.336277   
     89. A(H  16,C  10,H  17)          110.4392         0.291370   
     90. A(O   9,C  10,H  17)          105.6361         0.336940   
     91. A(O   9,C  10,H  16)          109.9931         0.336193   
     92. A(H  17,C  10,H  39)          110.5701         0.291439   
     93. A(H  16,C  10,H  39)          109.8039         0.290829   
     94. A(C  19,C  18,N  28)          113.8678         0.391641   
     95. A(N  28,C  18,C  45)          114.7098         0.399624   
     96. A(C  19,C  18,C  45)          121.4489         0.375829   
     97. A(C   6,C  19,C  20)          116.2850         0.353158   
     98. A(C   6,C  19,C  18)          111.1952         0.349986   
     99. A(C  20,C  19,H  30)          106.1717         0.329530   
    100. A(C  18,C  19,H  30)          105.9214         0.326642   
    101. A(C   6,C  19,H  30)          102.7432         0.310934   
    102. A(C  18,C  19,C  20)          113.2649         0.371854   
    103. A(C  21,C  20,C  25)          118.1237         0.433521   
    104. A(C  19,C  20,C  25)          122.6727         0.401181   
    105. A(C  19,C  20,C  21)          119.1410         0.404951   
    106. A(C  22,C  21,H  31)          119.7791         0.354577   
    107. A(C  20,C  21,H  31)          118.4837         0.355367   
    108. A(C  20,C  21,C  22)          121.7308         0.436648   
    109. A(C  23,C  22,H  32)          120.6153         0.356171   
    110. A(C  21,C  22,H  32)          120.1742         0.354963   
    111. A(C  21,C  22,C  23)          119.2098         0.437192   
    112. A(C  24,C  23,H  33)          119.2179         0.354743   
    113. A(C  22,C  23,H  33)          120.3739         0.356003   
    114. A(C  22,C  23,C  24)          120.4077         0.437122   
    115. A(C  25,C  24,H  34)          120.5090         0.355673   
    116. A(C  23,C  24,H  34)          119.8205         0.355289   
    117. A(C  23,C  24,C  25)          119.6704         0.435978   
    118. A(C  24,C  25,O  26)          123.6912         0.436173   
    119. A(C  20,C  25,O  26)          115.4594         0.432624   
    120. A(C  20,C  25,C  24)          120.8453         0.432926   
    121. A(C  25,O  26,C  27)          118.9069         0.417829   
    122. A(H  36,C  27,H  37)          109.5308         0.290593   
    123. A(H  35,C  27,H  37)          109.6962         0.289740   
    124. A(O  26,C  27,H  37)          110.8998         0.339141   
    125. A(H  35,C  27,H  36)          109.5233         0.290613   
    126. A(O  26,C  27,H  36)          106.0016         0.340228   
    127. A(O  26,C  27,H  35)          111.1139         0.339166   
    128. A(C  18,N  28,O  38)          119.9691         0.444620   
    129. A(C  18,N  28,O  29)          119.0669         0.443914   
    130. A(O  29,N  28,O  38)          120.7298         0.474097   
    131. A(C  43,C  41,H  50)          118.9731         0.353957   
    132. A(C  42,C  41,H  50)          120.6845         0.356539   
    133. A(C  42,C  41,C  43)          120.3422         0.436707   
    134. A(H  44,C  42,C  45)          120.7452         0.354497   
    135. A(C  41,C  42,C  45)          121.3937         0.436800   
    136. A(C  41,C  42,H  44)          117.8605         0.357012   
    137. A(C  46,C  43,O  51)          124.3551         0.434390   
    138. A(C  41,C  43,O  51)          116.3477         0.433901   
    139. A(C  41,C  43,C  46)          119.2971         0.433840   
    140. A(C  42,C  45,C  48)          117.4045         0.433929   
    141. A(C  18,C  45,C  48)          118.7813         0.407844   
    142. A(C  18,C  45,C  42)          123.8105         0.407480   
    143. A(H  47,C  46,C  48)          119.4175         0.355808   
    144. A(C  43,C  46,C  48)          119.3729         0.435601   
    145. A(C  43,C  46,H  47)          121.2091         0.354828   
    146. A(C  46,C  48,H  49)          118.6236         0.355283   
    147. A(C  45,C  48,H  49)          119.1932         0.354303   
    148. A(C  45,C  48,C  46)          122.1820         0.435598   
    149. A(C  43,O  51,C  52)          117.7279         0.416687   
    150. A(H  54,C  52,H  55)          109.4612         0.290481   
    151. A(H  53,C  52,H  55)          109.3112         0.289511   
    152. A(O  51,C  52,H  55)          111.1910         0.338649   
    153. A(H  53,C  52,H  54)          109.4474         0.290485   
    154. A(O  51,C  52,H  54)          106.1435         0.339862   
    155. A(O  51,C  52,H  53)          111.2232         0.338654   
    156. D(H  40,C   1,C   0,C   5)    178.5299         0.023068   
    157. D(H  40,C   1,C   0,H  11)      1.0307         0.023068   
    158. D(C   2,C   1,C   0,C   5)     -2.7347         0.023068   
    159. D(C   2,C   1,C   0,H  11)    179.7661         0.023068   
    160. D(H  12,C   2,C   1,C   0)   -176.8602         0.034466   
    161. D(H  12,C   2,C   1,H  40)      1.9000         0.034466   
    162. D(N   3,C   2,C   1,C   0)      2.9199         0.034466   
    163. D(N   3,C   2,C   1,H  40)   -178.3199         0.034466   
    164. D(C   4,N   3,C   2,H  12)    176.9305         0.034159   
    165. D(C   6,N   3,C   2,H  12)      9.8189         0.034159   
    166. D(C   4,N   3,C   2,C   1)     -2.8661         0.034159   
    167. D(C   6,N   3,C   2,C   1)   -169.9777         0.034159   
    168. D(H  13,C   4,N   3,C   2)    154.8904         0.029822   
    169. D(C   5,C   4,N   3,C   2)      2.3801         0.029822   
    170. D(C   5,C   4,N   3,C   6)    170.5008         0.029822   
    171. D(H  13,C   4,N   3,C   6)    -36.9889         0.029822   
    172. D(H  14,C   5,C   4,N   3)    176.4403         0.022593   
    173. D(H  14,C   5,C   4,H  13)     25.6295         0.022593   
    174. D(C   0,C   5,C   4,H  13)   -152.9547         0.022593   
    175. D(H  14,C   5,C   0,H  11)      1.3374         0.032678   
    176. D(C   0,C   5,C   4,N   3)     -2.1439         0.022593   
    177. D(H  14,C   5,C   0,C   1)   -176.1600         0.032678   
    178. D(C   4,C   5,C   0,H  11)    179.8857         0.032678   
    179. D(C   4,C   5,C   0,C   1)      2.3883         0.032678   
    180. D(C  19,C   6,N   3,C   4)    -44.5747         0.018902   
    181. D(C  19,C   6,N   3,C   2)    123.5799         0.018902   
    182. D(C   7,C   6,N   3,C   2)   -106.2858         0.018902   
    183. D(H  15,C   6,N   3,C   2)      7.9147         0.018902   
    184. D(H  15,C   6,N   3,C   4)   -160.2398         0.018902   
    185. D(C   7,C   6,N   3,C   4)     85.5596         0.018902   
    186. D(O   8,C   7,C   6,N   3)     -1.5270         0.011164   
    187. D(O   9,C   7,C   6,C  19)    -62.2054         0.011164   
    188. D(O   9,C   7,C   6,H  15)     57.4895         0.011164   
    189. D(O   9,C   7,C   6,N   3)    173.5132         0.011164   
    190. D(O   8,C   7,C   6,C  19)    122.7543         0.011164   
    191. D(O   8,C   7,C   6,H  15)   -117.5508         0.011164   
    192. D(C  10,O   9,C   7,O   8)     -5.7733         0.038920   
    193. D(C  10,O   9,C   7,C   6)    179.1915         0.038920   
    194. D(H  39,C  10,O   9,C   7)     61.8010         0.018332   
    195. D(H  17,C  10,O   9,C   7)   -178.6744         0.018332   
    196. D(H  16,C  10,O   9,C   7)    -59.4835         0.018332   
    197. D(H  30,C  19,C  18,C  45)   -117.4316         0.011267   
    198. D(C  20,C  19,C  18,C  45)     -1.4612         0.011267   
    199. D(C  20,C  19,C  18,N  28)    142.2869         0.011267   
    200. D(C   6,C  19,C  18,C  45)    131.6743         0.011267   
    201. D(C   6,C  19,C  18,N  28)    -84.5776         0.011267   
    202. D(H  30,C  19,C   6,H  15)     13.5079         0.006981   
    203. D(H  30,C  19,C   6,C   7)    132.1077         0.006981   
    204. D(H  30,C  19,C   6,N   3)   -102.6592         0.006981   
    205. D(C  20,C  19,C   6,H  15)   -101.9709         0.006981   
    206. D(C  20,C  19,C   6,C   7)     16.6290         0.006981   
    207. D(C  20,C  19,C   6,N   3)    141.8621         0.006981   
    208. D(H  30,C  19,C  18,N  28)     26.3165         0.011267   
    209. D(C  18,C  19,C   6,H  15)    126.4219         0.006981   
    210. D(C  18,C  19,C   6,N   3)     10.2548         0.006981   
    211. D(C  18,C  19,C   6,C   7)   -114.9783         0.006981   
    212. D(C  25,C  20,C  19,H  30)   -178.7240         0.012476   
    213. D(C  25,C  20,C  19,C   6)    -65.1844         0.012476   
    214. D(C  21,C  20,C  19,H  30)      4.2108         0.012476   
    215. D(C  21,C  20,C  19,C  18)   -111.6114         0.012476   
    216. D(C  21,C  20,C  19,C   6)    117.7503         0.012476   
    217. D(C  25,C  20,C  19,C  18)     65.4538         0.012476   
    218. D(C  22,C  21,C  20,C  19)    176.2359         0.027934   
    219. D(H  31,C  21,C  20,C  25)    179.9607         0.027934   
    220. D(H  31,C  21,C  20,C  19)     -2.8404         0.027934   
    221. D(C  22,C  21,C  20,C  25)     -0.9631         0.027934   
    222. D(H  32,C  22,C  21,H  31)     -0.6107         0.027165   
    223. D(H  32,C  22,C  21,C  20)   -179.6752         0.027165   
    224. D(C  23,C  22,C  21,H  31)    179.0969         0.027165   
    225. D(C  23,C  22,C  21,C  20)      0.0323         0.027165   
    226. D(H  33,C  23,C  22,H  32)      0.0855         0.028348   
    227. D(H  33,C  23,C  22,C  21)   -179.6207         0.028348   
    228. D(C  24,C  23,C  22,H  32)   -179.6734         0.028348   
    229. D(C  24,C  23,C  22,C  21)      0.6203         0.028348   
    230. D(H  34,C  24,C  23,H  33)     -0.1457         0.027114   
    231. D(H  34,C  24,C  23,C  22)    179.6160         0.027114   
    232. D(C  25,C  24,C  23,H  33)    179.9251         0.027114   
    233. D(C  25,C  24,C  23,C  22)     -0.3131         0.027114   
    234. D(O  26,C  25,C  24,H  34)     -1.3528         0.027484   
    235. D(O  26,C  25,C  24,C  23)    178.5759         0.027484   
    236. D(C  20,C  25,C  24,H  34)    179.4204         0.027484   
    237. D(C  20,C  25,C  24,C  23)     -0.6509         0.027484   
    238. D(O  26,C  25,C  20,C  21)   -178.0173         0.024963   
    239. D(O  26,C  25,C  20,C  19)      4.8891         0.024963   
    240. D(C  24,C  25,C  20,C  21)      1.2702         0.024963   
    241. D(C  24,C  25,C  20,C  19)   -175.8234         0.024963   
    242. D(C  27,O  26,C  25,C  24)      2.0903         0.031276   
    243. D(C  27,O  26,C  25,C  20)   -178.6449         0.031276   
    244. D(H  37,C  27,O  26,C  25)     61.4008         0.020908   
    245. D(H  36,C  27,O  26,C  25)   -179.7967         0.020908   
    246. D(H  35,C  27,O  26,C  25)    -60.8878         0.020908   
    247. D(O  38,N  28,C  18,C  45)    -23.2053         0.026382   
    248. D(O  38,N  28,C  18,C  19)   -169.4725         0.026382   
    249. D(O  29,N  28,C  18,C  45)    162.3132         0.026382   
    250. D(O  29,N  28,C  18,C  19)     16.0460         0.026382   
    251. D(C  45,C  42,C  41,H  50)   -179.7012         0.028857   
    252. D(C  45,C  42,C  41,C  43)      0.1389         0.028857   
    253. D(H  44,C  42,C  41,H  50)      0.0247         0.028857   
    254. D(H  44,C  42,C  41,C  43)    179.8648         0.028857   
    255. D(O  51,C  43,C  41,H  50)      0.3650         0.026343   
    256. D(O  51,C  43,C  41,C  42)   -179.4778         0.026343   
    257. D(C  46,C  43,C  41,H  50)   -179.5520         0.026343   
    258. D(C  46,C  43,C  41,C  42)      0.6052         0.026343   
    259. D(C  48,C  45,C  42,C  41)     -0.7909         0.026409   
    260. D(C  18,C  45,C  42,H  44)     -1.2117         0.026409   
    261. D(C  18,C  45,C  42,C  41)    178.5064         0.026409   
    262. D(C  48,C  45,C  18,N  28)    -78.0865         0.013009   
    263. D(C  48,C  45,C  18,C  19)     65.3815         0.013009   
    264. D(C  42,C  45,C  18,N  28)    102.6253         0.013009   
    265. D(C  48,C  45,C  42,H  44)    179.4910         0.026409   
    266. D(C  42,C  45,C  18,C  19)   -113.9067         0.013009   
    267. D(C  48,C  46,C  43,O  51)    179.4242         0.026694   
    268. D(C  48,C  46,C  43,C  41)     -0.6659         0.026694   
    269. D(H  47,C  46,C  43,O  51)     -0.2932         0.026694   
    270. D(H  47,C  46,C  43,C  41)    179.6167         0.026694   
    271. D(H  49,C  48,C  46,C  43)   -179.6170         0.027633   
    272. D(C  45,C  48,C  46,H  47)    179.7144         0.027633   
    273. D(C  45,C  48,C  46,C  43)     -0.0081         0.027633   
    274. D(H  49,C  48,C  45,C  42)   -179.6650         0.026692   
    275. D(H  49,C  48,C  45,C  18)      1.0012         0.026692   
    276. D(C  46,C  48,C  45,C  42)      0.7283         0.026692   
    277. D(H  49,C  48,C  46,H  47)      0.1055         0.027633   
    278. D(C  46,C  48,C  45,C  18)   -178.6055         0.026692   
    279. D(C  52,O  51,C  43,C  46)     -0.2756         0.033865   
    280. D(C  52,O  51,C  43,C  41)    179.8121         0.033865   
    281. D(H  54,C  52,O  51,C  43)   -179.6494         0.022392   
    282. D(H  53,C  52,O  51,C  43)     61.3882         0.022392   
    283. D(H  55,C  52,O  51,C  43)    -60.6879         0.022392   
    -----------------------------------------------------------------

Number of atoms                         .... 56
Number of degrees of freedom            .... 283

         *************************************************************
         *                GEOMETRY OPTIMIZATION CYCLE   1            *
         *************************************************************
---------------------------------
CARTESIAN COORDINATES (ANGSTROEM)
---------------------------------
  C     -3.310035    3.040117    1.036802
  C     -4.273174    2.299333    0.320489
  C     -3.937129    1.055833   -0.113419
  N     -2.735124    0.516358    0.182800
  C     -1.772264    1.195655    0.876740
  C     -2.093373    2.494219    1.332574
  C     -2.263812   -0.696577   -0.427510
  C     -2.332566   -1.837455    0.574879
  O     -2.700105   -1.725414    1.716085
  O     -2.034488   -2.983854   -0.011619
  C     -2.043971   -4.143295    0.826404
  H     -3.552785    4.035612    1.390024
  H     -4.592280    0.435914   -0.711230
  H     -1.065197    0.575960    1.409618
  H     -1.369978    3.028457    1.933480
  H     -2.962237   -0.969808   -1.219680
  H     -1.325384   -4.022924    1.637427
  H     -1.756164   -4.971203    0.184182
  C     -0.339770    0.989185   -0.720138
  C     -0.856119   -0.381470   -1.122354
  C      0.188344   -1.460297   -1.030741
  C      0.658762   -2.044847   -2.195872
  C      1.676798   -2.990243   -2.179673
  C      2.236397   -3.359473   -0.968956
  C      1.776902   -2.801104    0.217716
  C      0.754761   -1.862785    0.184957
  O      0.228583   -1.290590    1.287504
  C      0.765466   -1.622657    2.551934
  N     -0.845731    2.024463   -1.485146
  O     -1.856185    1.821206   -2.187441
  H     -1.120408   -0.303782   -2.176221
  H      0.223481   -1.737731   -3.141224
  H      2.028839   -3.427308   -3.106352
  H      3.035960   -4.090826   -0.934942
  H      2.216889   -3.101186    1.159178
  H      0.658522   -2.691159    2.756887
  H      0.191551   -1.053435    3.280375
  H      1.819521   -1.339080    2.614792
  O     -0.357225    3.165350   -1.388546
  H     -3.040371   -4.305596    1.236974
  H     -5.250038    2.702422    0.095923
  C      2.718818    1.707817    1.426643
  C      1.399630    1.569119    1.039927
  C      3.747606    1.467216    0.518286
  H      0.633202    1.763773    1.778249
  C      1.059644    1.185718   -0.255420
  C      3.432073    1.098119   -0.785888
  H      4.205909    0.909910   -1.517956
  C      2.100756    0.963583   -1.151763
  H      1.868921    0.669413   -2.169120
  H      2.970448    2.002145    2.439107
  O      5.007088    1.616307    0.985194
  C      6.074584    1.375198    0.088257
  H      6.041681    2.064169   -0.760851
  H      6.988871    1.541372    0.654428
  H      6.056317    0.345404   -0.280513

----------------------------
CARTESIAN COORDINATES (A.U.)
----------------------------
  NO LB      ZA    FRAG     MASS         X           Y           Z
   0 C     6.0000    0    12.011   -6.255060    5.744989    1.959272
   1 C     6.0000    0    12.011   -8.075129    4.345110    0.605636
   2 C     6.0000    0    12.011   -7.440096    1.995235   -0.214331
   3 N     7.0000    0    14.007   -5.168635    0.975775    0.345442
   4 C     6.0000    0    12.011   -3.349094    2.259461    1.656798
   5 C     6.0000    0    12.011   -3.955902    4.713391    2.518200
   6 C     6.0000    0    12.011   -4.277985   -1.316340   -0.807877
   7 C     6.0000    0    12.011   -4.407911   -3.472287    1.086364
   8 O     8.0000    0    15.999   -5.102459   -3.260560    3.242931
   9 O     8.0000    0    15.999   -3.844625   -5.638667   -0.021957
  10 C     6.0000    0    12.011   -3.862545   -7.829693    1.561677
  11 H     1.0000    0     1.008   -6.713791    7.626201    2.626765
  12 H     1.0000    0     1.008   -8.678152    0.823758   -1.344030
  13 H     1.0000    0     1.008   -2.012931    1.088407    2.663792
  14 H     1.0000    0     1.008   -2.588883    5.722954    3.653748
  15 H     1.0000    0     1.008   -5.597817   -1.832672   -2.304861
  16 H     1.0000    0     1.008   -2.504613   -7.602225    3.094289
  17 H     1.0000    0     1.008   -3.318669   -9.394212    0.348054
  18 C     6.0000    0    12.011   -0.642072    1.869289   -1.360864
  19 C     6.0000    0    12.011   -1.617830   -0.720874   -2.120942
  20 C     6.0000    0    12.011    0.355919   -2.759561   -1.947818
  21 C     6.0000    0    12.011    1.244880   -3.864201   -4.149597
  22 C     6.0000    0    12.011    3.168689   -5.650740   -4.118985
  23 C     6.0000    0    12.011    4.226178   -6.348484   -1.831061
  24 C     6.0000    0    12.011    3.357858   -5.293319    0.411424
  25 C     6.0000    0    12.011    1.426292   -3.520153    0.349518
  26 O     8.0000    0    15.999    0.431959   -2.438862    2.433030
  27 C     6.0000    0    12.011    1.446521   -3.066377    4.822456
  28 N     7.0000    0    14.007   -1.598200    3.825681   -2.806519
  29 O     8.0000    0    15.999   -3.507681    3.441581   -4.133664
  30 H     1.0000    0     1.008   -2.117264   -0.574065   -4.112462
  31 H     1.0000    0     1.008    0.422318   -3.283836   -5.936053
  32 H     1.0000    0     1.008    3.833950   -6.476673   -5.870155
  33 H     1.0000    0     1.008    5.737133   -7.730541   -1.766784
  34 H     1.0000    0     1.008    4.189313   -5.860392    2.190529
  35 H     1.0000    0     1.008    1.244426   -5.085553    5.209761
  36 H     1.0000    0     1.008    0.361979   -1.990704    6.199010
  37 H     1.0000    0     1.008    3.438396   -2.530494    4.941241
  38 O     8.0000    0    15.999   -0.675057    5.981645   -2.623972
  39 H     1.0000    0     1.008   -5.745469   -8.136397    2.337542
  40 H     1.0000    0     1.008   -9.921134    5.106837    0.181268
  41 C     6.0000    0    12.011    5.137821    3.227306    2.695965
  42 C     6.0000    0    12.011    2.644917    2.965205    1.965177
  43 C     6.0000    0    12.011    7.081949    2.772636    0.979419
  44 H     1.0000    0     1.008    1.196578    3.333048    3.360404
  45 C     6.0000    0    12.011    2.002437    2.240682   -0.482674
  46 C     6.0000    0    12.011    6.485678    2.075144   -1.485113
  47 H     1.0000    0     1.008    7.948016    1.719481   -2.868521
  48 C     6.0000    0    12.011    3.969854    1.820908   -2.176517
  49 H     1.0000    0     1.008    3.531749    1.265007   -4.099043
  50 H     1.0000    0     1.008    5.613333    3.783506    4.609244
  51 O     8.0000    0    15.999    9.462025    3.054378    1.861747
  52 C     6.0000    0    12.011   11.479300    2.598748    0.166782
  53 H     1.0000    0     1.008   11.417122    3.900714   -1.437800
  54 H     1.0000    0     1.008   13.207052    2.912771    1.236690
  55 H     1.0000    0     1.008   11.444781    0.652719   -0.530093

--------------------------------
INTERNAL COORDINATES (ANGSTROEM)
--------------------------------
 C      0   0   0     0.000000000000     0.00000000     0.00000000
 C      1   0   0     1.410497069102     0.00000000     0.00000000
 C      2   1   0     1.359225751849   118.27985717     0.00000000
 N      3   2   1     1.350405491551   121.03196848     2.91987679
 C      4   3   2     1.367514722922   122.65560277   357.13393795
 C      1   2   3     1.365925373010   120.54995254   357.26527784
 C      4   3   2     1.437297676777   122.40270141   190.02228688
 C      7   4   3     1.520234663044   109.78567032   253.71415265
 O      8   7   4     1.204154988628   124.67164131   358.47301631
 O      8   7   4     1.321764375859   110.37232788   173.51324741
 C     10   8   7     1.430620812200   116.19979192   179.19145923
 H      1   2   3     1.083837459589   119.66678509   179.76611229
 H      3   2   1     1.082081508521   123.42150389   183.13977623
 H      5   4   3     1.080705602094   115.21644942   154.89036627
 H      6   1   2     1.081572275673   121.24141725   183.83996541
 H      7   4   3     1.090864780294   108.04602547     7.91472989
 H     11  10   8     1.090236103208   109.99314849   300.51647526
 H     11  10   8     1.086606471082   105.63607633   181.32555687
 C      5   4   3     2.155153884951    92.54561209   238.18471819
 C     19   5   4     1.518910507397    93.25068609   325.75572195
 C     20  19   5     1.504381466273   113.26490303   239.70714582
 C     21  20  19     1.385829009793   119.14095454   248.38859929
 C     22  21  20     1.389400338892   121.73075310   176.23591176
 C     23  22  21     1.383949958557   119.20979068     0.03233898
 C     24  23  22     1.389640971895   120.40772214     0.62032908
 C     25  24  23     1.387907749716   119.67041576   359.68685655
 O     26  25  24     1.349029389197   123.69118230   178.57586634
 C     27  26  25     1.413256902717   118.90687982     2.09033646
 N     19   5   4     1.383124835606    95.44946711    80.12006352
 O     29  19   5     1.247216485294   119.06687010   280.04761986
 H     20  19   5     1.089274875573   105.92144473   123.73673403
 H     22  21  20     1.085117592854   118.48373866   357.15964451
 H     23  22  21     1.083370965527   120.17423513   180.32477314
 H     24  23  22     1.084128753319   120.37390539   180.37928790
 H     25  24  23     1.081660050264   119.82052532   179.61598872
 H     28  27  26     1.093224256660   111.11387601   299.11215699
 H     28  27  26     1.088126097008   106.00162813   180.20326660
 H     28  27  26     1.093343032226   110.89978951    61.40081153
 O     29  19   5     1.244826421155   119.96908307    94.52912280
 H     11  10   8     1.089826729118   110.33044884    61.80102065
 H      2   1   3     1.080358229835   121.80513400   181.26458966
 C     38  28  27     3.391756841081   117.93504903    44.28139715
 C     42  38  28     1.381681359505    75.80159627   351.77563131
 C     42  38  28     1.393343471508   105.60603644   233.71822847
 H     43  42  38     1.081860173305   117.86047901    79.87661316
 C     43  42  38     1.393022130982   121.39372086   260.15066145
 C     44  42  38     1.391640575642   119.29712842    83.04358718
 H     47  44  42     1.081743194664   121.20907559   179.61673590
 C     47  44  42     1.387216423421   119.37285188   359.33411891
 H     49  47  44     1.084111950665   118.62361457   180.38298985
 H     42  38  28     1.083987997987    88.75505407   113.91724519
 O     44  42  38     1.351490331105   116.34774069   262.96059356
 C     52  44  42     1.414983124234   117.72787266   179.81210300
 H     53  52  44     1.093959799039   111.22319717    61.38818483
 H     53  52  44     1.088156292950   106.14354821   180.35064360
 H     53  52  44     1.093983856656   111.19097226   299.31213070

---------------------------
INTERNAL COORDINATES (A.U.)
---------------------------
 C      0   0   0     0.000000000000     0.00000000     0.00000000
 C      1   0   0     2.665453173302     0.00000000     0.00000000
 C      2   1   0     2.568564425167   118.27985717     0.00000000
 N      3   2   1     2.551896548775   121.03196848     2.91987679
 C      4   3   2     2.584228310428   122.65560277   357.13393795
 C      1   2   3     2.581224874363   120.54995254   357.26527784
 C      4   3   2     2.716098982030   122.40270141   190.02228688
 C      7   4   3     2.872827172448   109.78567032   253.71415265
 O      8   7   4     2.275523151302   124.67164131   358.47301631
 O      8   7   4     2.497772683946   110.37232788   173.51324741
 C     10   8   7     2.703481536545   116.19979192   179.19145923
 H      1   2   3     2.048155972309   119.66678509   179.76611229
 H      3   2   1     2.044837705685   123.42150389   183.13977623
 H      5   4   3     2.042237619353   115.21644942   154.89036627
 H      6   1   2     2.043875395064   121.24141725   183.83996541
 H      7   4   3     2.061435683896   108.04602547     7.91472989
 H     11  10   8     2.060247656377   109.99314849   300.51647526
 H     11  10   8     2.053388645691   105.63607633   181.32555687
 C      5   4   3     4.072650619014    92.54561209   238.18471819
 C     19   5   4     2.870324880916    93.25068609   325.75572195
 C     20  19   5     2.842868972204   113.26490303   239.70714582
 C     21  20  19     2.618837296953   119.14095454   248.38859929
 C     22  21  20     2.625586130883   121.73075310   176.23591176
 C     23  22  21     2.615286404724   119.20979068     0.03233898
 C     24  23  22     2.626040861358   120.40772214     0.62032908
 C     25  24  23     2.622765546111   119.67041576   359.68685655
 O     26  25  24     2.549296092194   123.69118230   178.57586634
 C     27  26  25     2.670668503009   118.90687982     2.09033646
 N     19   5   4     2.613727148319    95.44946711    80.12006352
 O     29  19   5     2.356897586918   119.06687010   280.04761986
 H     20  19   5     2.058431199394   105.92144473   123.73673403
 H     22  21  20     2.050575073594   118.48373866   357.15964451
 H     23  22  21     2.047274426288   120.17423513   180.32477314
 H     24  23  22     2.048706437683   120.37390539   180.37928790
 H     25  24  23     2.044041265002   119.82052532   179.61598872
 H     28  27  26     2.065894448046   111.11387601   299.11215699
 H     28  27  26     2.056260322518   106.00162813   180.20326660
 H     28  27  26     2.066118901339   110.89978951    61.40081153
 O     29  19   5     2.352381020252   119.96908307    94.52912280
 H     11  10   8     2.059474051461   110.33044884    61.80102065
 H      2   1   3     2.041581180917   121.80513400   181.26458966
 C     38  28  27     6.409491542497   117.93504903    44.28139715
 C     42  38  28     2.610999373809    75.80159627   351.77563131
 C     42  38  28     2.633037571637   105.60603644   233.71822847
 H     43  42  38     2.044419442743   117.86047901    79.87661316
 C     43  42  38     2.632430326048   121.39372086   260.15066145
 C     44  42  38     2.629819564816   119.29712842    83.04358718
 H     47  44  42     2.044198385147   121.20907559   179.61673590
 C     47  44  42     2.621459128744   119.37285188   359.33411891
 H     49  47  44     2.048674685267   118.62361457   180.38298985
 H     42  38  28     2.048440448653    88.75505407   113.91724519
 O     44  42  38     2.553946598430   116.34774069   262.96059356
 C     52  44  42     2.673930588922   117.72787266   179.81210300
 H     53  52  44     2.067284421704   111.22319717    61.38818483
 H     53  52  44     2.056317384578   106.14354821   180.35064360
 H     53  52  44     2.067329884012   111.19097226   299.31213070

---------------------
BASIS SET INFORMATION
---------------------
There are 4 groups of distinct atoms

 Group   1 Type C   : 11s6p2d1f contracted to 5s3p2d1f pattern {62111/411/11/1}
 Group   2 Type N   : 11s6p2d1f contracted to 5s3p2d1f pattern {62111/411/11/1}
 Group   3 Type O   : 11s6p2d1f contracted to 5s3p2d1f pattern {62111/411/11/1}
 Group   4 Type H   : 5s1p contracted to 3s1p pattern {311/1}

Atom   0C    basis set group =>   1
Atom   1C    basis set group =>   1
Atom   2C    basis set group =>   1
Atom   3N    basis set group =>   2
Atom   4C    basis set group =>   1
Atom   5C    basis set group =>   1
Atom   6C    basis set group =>   1
Atom   7C    basis set group =>   1
Atom   8O    basis set group =>   3
Atom   9O    basis set group =>   3
Atom  10C    basis set group =>   1
Atom  11H    basis set group =>   4
Atom  12H    basis set group =>   4
Atom  13H    basis set group =>   4
Atom  14H    basis set group =>   4
Atom  15H    basis set group =>   4
Atom  16H    basis set group =>   4
Atom  17H    basis set group =>   4
Atom  18C    basis set group =>   1
Atom  19C    basis set group =>   1
Atom  20C    basis set group =>   1
Atom  21C    basis set group =>   1
Atom  22C    basis set group =>   1
Atom  23C    basis set group =>   1
Atom  24C    basis set group =>   1
Atom  25C    basis set group =>   1
Atom  26O    basis set group =>   3
Atom  27C    basis set group =>   1
Atom  28N    basis set group =>   2
Atom  29O    basis set group =>   3
Atom  30H    basis set group =>   4
Atom  31H    basis set group =>   4
Atom  32H    basis set group =>   4
Atom  33H    basis set group =>   4
Atom  34H    basis set group =>   4
Atom  35H    basis set group =>   4
Atom  36H    basis set group =>   4
Atom  37H    basis set group =>   4
Atom  38O    basis set group =>   3
Atom  39H    basis set group =>   4
Atom  40H    basis set group =>   4
Atom  41C    basis set group =>   1
Atom  42C    basis set group =>   1
Atom  43C    basis set group =>   1
Atom  44H    basis set group =>   4
Atom  45C    basis set group =>   1
Atom  46C    basis set group =>   1
Atom  47H    basis set group =>   4
Atom  48C    basis set group =>   1
Atom  49H    basis set group =>   4
Atom  50H    basis set group =>   4
Atom  51O    basis set group =>   3
Atom  52C    basis set group =>   1
Atom  53H    basis set group =>   4
Atom  54H    basis set group =>   4
Atom  55H    basis set group =>   4
---------------------------------
AUXILIARY/J BASIS SET INFORMATION
---------------------------------
There are 4 groups of distinct atoms

 Group   1 Type C   : 12s5p4d2f1g contracted to 6s4p3d1f1g pattern {711111/2111/211/2/1}
 Group   2 Type N   : 12s5p4d2f1g contracted to 6s4p3d1f1g pattern {711111/2111/211/2/1}
 Group   3 Type O   : 12s5p4d2f1g contracted to 6s4p3d1f1g pattern {711111/2111/211/2/1}
 Group   4 Type H   : 5s2p1d contracted to 3s1p1d pattern {311/2/1}

Atom   0C    basis set group =>   1
Atom   1C    basis set group =>   1
Atom   2C    basis set group =>   1
Atom   3N    basis set group =>   2
Atom   4C    basis set group =>   1
Atom   5C    basis set group =>   1
Atom   6C    basis set group =>   1
Atom   7C    basis set group =>   1
Atom   8O    basis set group =>   3
Atom   9O    basis set group =>   3
Atom  10C    basis set group =>   1
Atom  11H    basis set group =>   4
Atom  12H    basis set group =>   4
Atom  13H    basis set group =>   4
Atom  14H    basis set group =>   4
Atom  15H    basis set group =>   4
Atom  16H    basis set group =>   4
Atom  17H    basis set group =>   4
Atom  18C    basis set group =>   1
Atom  19C    basis set group =>   1
Atom  20C    basis set group =>   1
Atom  21C    basis set group =>   1
Atom  22C    basis set group =>   1
Atom  23C    basis set group =>   1
Atom  24C    basis set group =>   1
Atom  25C    basis set group =>   1
Atom  26O    basis set group =>   3
Atom  27C    basis set group =>   1
Atom  28N    basis set group =>   2
Atom  29O    basis set group =>   3
Atom  30H    basis set group =>   4
Atom  31H    basis set group =>   4
Atom  32H    basis set group =>   4
Atom  33H    basis set group =>   4
Atom  34H    basis set group =>   4
Atom  35H    basis set group =>   4
Atom  36H    basis set group =>   4
Atom  37H    basis set group =>   4
Atom  38O    basis set group =>   3
Atom  39H    basis set group =>   4
Atom  40H    basis set group =>   4
Atom  41C    basis set group =>   1
Atom  42C    basis set group =>   1
Atom  43C    basis set group =>   1
Atom  44H    basis set group =>   4
Atom  45C    basis set group =>   1
Atom  46C    basis set group =>   1
Atom  47H    basis set group =>   4
Atom  48C    basis set group =>   1
Atom  49H    basis set group =>   4
Atom  50H    basis set group =>   4
Atom  51O    basis set group =>   3
Atom  52C    basis set group =>   1
Atom  53H    basis set group =>   4
Atom  54H    basis set group =>   4
Atom  55H    basis set group =>   4


           ************************************************************
           *        Program running with 24 parallel MPI-processes    *
           *              working on a common directory               *
           ************************************************************
------------------------------------------------------------------------------
                           ORCA GTO INTEGRAL CALCULATION
                           -- RI-GTO INTEGRALS CHOSEN --
------------------------------------------------------------------------------
------------------------------------------------------------------------------
                   ___                                                        
                  /   \      - P O W E R E D   B Y -                         
                 /     \                                                     
                 |  |  |   _    _      __       _____    __    __             
                 |  |  |  | |  | |    /  \     |  _  \  |  |  /  |          
                  \  \/   | |  | |   /    \    | | | |  |  | /  /          
                 / \  \   | |__| |  /  /\  \   | |_| |  |  |/  /          
                |  |  |   |  __  | /  /__\  \  |    /   |      \           
                |  |  |   | |  | | |   __   |  |    \   |  |\   \          
                \     /   | |  | | |  |  |  |  | |\  \  |  | \   \       
                 \___/    |_|  |_| |__|  |__|  |_| \__\ |__|  \__/        
                                                                              
                      - O R C A' S   B I G   F R I E N D -                    
                                      &                                       
                       - I N T E G R A L  F E E D E R -                       
                                                                              
 v1 FN, 2020, v2 2021                                                         
------------------------------------------------------------------------------


Reading SHARK input file TS1_4-OMePh/TS1_4-OMePh.SHARKINP.tmp ... ok
----------------------
SHARK INTEGRAL PACKAGE
----------------------

Number of atoms                             ...     56
Number of basis functions                   ...   1136
Number of shells                            ...    448
Maximum angular momentum                    ...      3
Integral batch strategy                     ... SHARK/LIBINT Hybrid
RI-J (if used) integral strategy            ... SPLIT-RIJ (Revised 2003 algorithm where possible)
Printlevel                                  ...      1
Contraction scheme used                     ... SEGMENTED contraction
Coulomb Range Separation                    ... NOT USED
Exchange Range Separation                   ... NOT USED
Finite Nucleus Model                        ... NOT USED
Auxiliary Coulomb fitting basis             ... AVAILABLE
   # of basis functions in Aux-J            ...   1832
   # of shells in Aux-J                     ...    600
   Maximum angular momentum in Aux-J        ...      4
Auxiliary J/K fitting basis                 ... NOT available
Auxiliary Correlation fitting basis         ... NOT available
Auxiliary 'external' fitting basis          ... NOT available
Integral threshold                          ...     2.500000e-11
Primitive cut-off                           ...     2.500000e-12
Primitive pair pre-selection threshold      ...     2.500000e-12

Calculating pre-screening integrals         ... done (  0.1 sec) Dimension = 448
Organizing shell pair data                  ... done (  0.9 sec)
Shell pair information
Total number of shell pairs                 ...    100576
Shell pairs after pre-screening             ...     69056
Total number of primitive shell pairs       ...    308496
Primitive shell pairs kept                  ...    136017
          la=0 lb=0:  17773 shell pairs
          la=1 lb=0:  19969 shell pairs
          la=1 lb=1:   5612 shell pairs
          la=2 lb=0:   9821 shell pairs
          la=2 lb=1:   5608 shell pairs
          la=2 lb=2:   1429 shell pairs
          la=3 lb=0:   4546 shell pairs
          la=3 lb=1:   2672 shell pairs
          la=3 lb=2:   1298 shell pairs
          la=3 lb=3:    328 shell pairs

Calculating one electron integrals          ... done (  0.1 sec)
Calculating RI/J V-Matrix + Cholesky decomp.... done (  0.4 sec)
Calculating Nuclear repulsion               ... done (  0.0 sec) ENN=   3552.998391459240 Eh

SHARK setup successfully completed in   2.5 seconds

Maximum memory used throughout the entire GTOINT-calculation: 102.2 MB


           ************************************************************
           *        Program running with 24 parallel MPI-processes    *
           *              working on a common directory               *
           ************************************************************
-------------------------------------------------------------------------------
                                 ORCA SCF
-------------------------------------------------------------------------------

------------
SCF SETTINGS
------------
Hamiltonian:
 Density Functional     Method          .... DFT(GTOs)
 Exchange Functional    Exchange        .... PBE
   PBE kappa parameter   XKappa         ....  0.804000
   PBE mue parameter    XMuePBE         ....  0.219520
 Correlation Functional Correlation     .... PBE
   PBE beta parameter  CBetaPBE         ....  0.066725
 LDA part of GGA corr.  LDAOpt          .... PW91-LDA
 Gradients option       PostSCFGGA      .... off
 Hybrid DFT is turned on
   Fraction HF Exchange ScalHFX         ....  0.250000
   Scaling of DF-GGA-X  ScalDFX         ....  0.750000
   Scaling of DF-GGA-C  ScalDFC         ....  1.000000
   Scaling of DF-LDA-C  ScalLDAC        ....  1.000000
   Perturbative correction              ....  0.000000
   Density functional embedding theory  .... OFF
   NL short-range parameter             ....  6.900000
 RI-approximation to the Coulomb term is turned on
   Number of AuxJ basis functions       .... 1832
   RIJ-COSX (HFX calculated with COS-X)).... on


General Settings:
 Integral files         IntName         .... TS1_4-OMePh/TS1_4-OMePh
 Hartree-Fock type      HFTyp           .... RHF
 Total Charge           Charge          ....    0
 Multiplicity           Mult            ....    1
 Number of Electrons    NEL             ....  230
 Basis Dimension        Dim             .... 1136
 Nuclear Repulsion      ENuc            ....   3552.9983914592 Eh

Convergence Acceleration:
 DIIS                   CNVDIIS         .... on
   Start iteration      DIISMaxIt       ....    12
   Startup error        DIISStart       ....  0.200000
   # of expansion vecs  DIISMaxEq       ....     5
   Bias factor          DIISBfac        ....   1.050
   Max. coefficient     DIISMaxC        ....  10.000
 Trust-Rad. Augm. Hess. CNVTRAH         .... auto
   Auto Start mean grad. ratio tolernc. ....  1.125000
   Auto Start start iteration           ....    20
   Auto Start num. interpolation iter.  ....    10
   Max. Number of Micro iterations      ....    16
   Max. Number of Macro iterations      .... Maxiter - #DIIS iter
   Number of Davidson start vectors     ....     2
   Converg. threshold I  (grad. norm)   ....   1.000e-05
   Converg. threshold II (energy diff.) ....   1.000e-08
   Grad. Scal. Fac. for Micro threshold ....   0.100
   Minimum threshold for Micro iter.    ....   0.010
   NR start threshold (gradient norm)   ....   0.001
   Initial trust radius                 ....   0.400
   Minimum AH scaling param. (alpha)    ....   1.000
   Maximum AH scaling param. (alpha)    .... 1000.000
   Orbital update algorithm             .... Taylor
   White noise on init. David. guess    .... on
   Maximum white noise                  ....   0.010
   Quad. conv. algorithm                .... NR
 SOSCF                  CNVSOSCF        .... on
   Start iteration      SOSCFMaxIt      ....   150
   Startup grad/error   SOSCFStart      ....  0.003300
 Level Shifting         CNVShift        .... on
   Level shift para.    LevelShift      ....    0.2500
   Turn off err/grad.   ShiftErr        ....    0.0010
 Zerner damping         CNVZerner       .... off
 Static damping         CNVDamp         .... on
   Fraction old density DampFac         ....    0.7000
   Max. Damping (<1)    DampMax         ....    0.9800
   Min. Damping (>=0)   DampMin         ....    0.0000
   Turn off err/grad.   DampErr         ....    0.1000
 Fernandez-Rico         CNVRico         .... off

SCF Procedure:
 Maximum # iterations   MaxIter         ....   800
 SCF integral mode      SCFMode         .... Direct
   Integral package                     .... SHARK and LIBINT hybrid scheme
 Reset frequency        DirectResetFreq ....    20
 Integral Threshold     Thresh          ....  2.500e-11 Eh
 Primitive CutOff       TCut            ....  2.500e-12 Eh

Convergence Tolerance:
 Convergence Check Mode ConvCheckMode   .... Total+1el-Energy
 Convergence forced     ConvForced      .... 0
 Energy Change          TolE            ....  1.000e-08 Eh
 1-El. energy change                    ....  1.000e-05 Eh
 Orbital Gradient       TolG            ....  1.000e-05
 Orbital Rotation angle TolX            ....  1.000e-05
 DIIS Error             TolErr          ....  5.000e-07


Diagonalization of the overlap matrix:
Smallest eigenvalue                        ... 4.600e-06
Time for diagonalization                   ...    0.216 sec
Threshold for overlap eigenvalues          ... 1.000e-08
Number of eigenvalues below threshold      ... 0
Time for construction of square roots      ...    0.199 sec
Total time needed                          ...    0.422 sec

Time for model grid setup =    0.539 sec

------------------------------
INITIAL GUESS: MODEL POTENTIAL
------------------------------
Loading Hartree-Fock densities                     ... done
Calculating cut-offs                               ... done
Initializing the effective Hamiltonian             ... done
Setting up the integral package (SHARK)            ... done
Starting the Coulomb interaction                   ... done (   0.9 sec)
Reading the grid                                   ... done
Mapping shells                                     ... done
Starting the XC term evaluation                    ... done (   0.4 sec)
  promolecular density results
     # of electrons  =    229.983566386
     EX              =   -191.995703905
     EC              =     -7.804721236
     EX+EC           =   -199.800425141
Transforming the Hamiltonian                       ... done (   0.1 sec)
Diagonalizing the Hamiltonian                      ... done (   0.2 sec)
Back transforming the eigenvectors                 ... done (   0.1 sec)
Now organizing SCF variables                       ... done
                      ------------------
                      INITIAL GUESS DONE (   2.4 sec)
                      ------------------
-------------------
DFT GRID GENERATION
-------------------

General Integration Accuracy     IntAcc      ... 4.388
Radial Grid Type                 RadialGrid  ... OptM3 with GC (2021)
Angular Grid (max. ang.)         AngularGrid ... 4 (Lebedev-302)
Angular grid pruning method      GridPruning ... 4 (adaptive)
Weight generation scheme         WeightScheme... Becke
Basis function cutoff            BFCut       ... 1.0000e-11
Integration weight cutoff        WCut        ... 1.0000e-14
Angular grids for H and He will be reduced by one unit
Partially contracted basis set               ... off
Rotationally invariant grid construction     ... off

Total number of grid points                  ...   265666
Total number of batches                      ...     4181
Average number of points per batch           ...       63
Average number of grid points per atom       ...     4744
Time for grid setup =    2.183 sec

--------------------
COSX GRID GENERATION
--------------------

GRIDX 1
-------
General Integration Accuracy     IntAcc      ... 3.816
Radial Grid Type                 RadialGrid  ... OptM3 with GC (2021)
Angular Grid (max. ang.)         AngularGrid ... 1 (Lebedev-50)
Angular grid pruning method      GridPruning ... 4 (adaptive)
Weight generation scheme         WeightScheme... Becke
Basis function cutoff            BFCut       ... 1.0000e-11
Integration weight cutoff        WCut        ... 1.0000e-14
Angular grids for H and He will be reduced by one unit
Partially contracted basis set               ... on
Rotationally invariant grid construction     ... off

Total number of grid points                  ...    33599
Total number of batches                      ...      553
Average number of points per batch           ...       60
Average number of grid points per atom       ...      600
UseSFitting                                  ... on

GRIDX 2
-------
General Integration Accuracy     IntAcc      ... 4.020
Radial Grid Type                 RadialGrid  ... OptM3 with GC (2021)
Angular Grid (max. ang.)         AngularGrid ... 2 (Lebedev-110)
Angular grid pruning method      GridPruning ... 4 (adaptive)
Weight generation scheme         WeightScheme... Becke
Basis function cutoff            BFCut       ... 1.0000e-11
Integration weight cutoff        WCut        ... 1.0000e-14
Angular grids for H and He will be reduced by one unit
Partially contracted basis set               ... on
Rotationally invariant grid construction     ... off

Total number of grid points                  ...    72425
Total number of batches                      ...     1160
Average number of points per batch           ...       62
Average number of grid points per atom       ...     1293
UseSFitting                                  ... on

GRIDX 3
-------
General Integration Accuracy     IntAcc      ... 4.338
Radial Grid Type                 RadialGrid  ... OptM3 with GC (2021)
Angular Grid (max. ang.)         AngularGrid ... 3 (Lebedev-194)
Angular grid pruning method      GridPruning ... 4 (adaptive)
Weight generation scheme         WeightScheme... Becke
Basis function cutoff            BFCut       ... 1.0000e-11
Integration weight cutoff        WCut        ... 1.0000e-14
Angular grids for H and He will be reduced by one unit
Partially contracted basis set               ... on
Rotationally invariant grid construction     ... off

Total number of grid points                  ...   157934
Total number of batches                      ...     2492
Average number of points per batch           ...       63
Average number of grid points per atom       ...     2820
UseSFitting                                  ... on

Time for X-Grid setup             =    4.214 sec


--------------------
CPCM SOLVATION MODEL
--------------------
CPCM parameters:
  Epsilon                                         ...      47.2000
  Refrac                                          ...       1.4790
  Rsolv                                           ...       1.3000
  Surface type                                    ... GAUSSIAN VDW
  Epsilon function type                           ...         CPCM
Radii:
 Radius for C  used is    3.8550 Bohr (=   2.0400 Ang.)
 Radius for N  used is    3.5149 Bohr (=   1.8600 Ang.)
 Radius for O  used is    3.4469 Bohr (=   1.8240 Ang.)
 Radius for H  used is    2.4944 Bohr (=   1.3200 Ang.)
Calculating surface                               ...        done! (  0.0s)
GEPOL surface points                              ...         2754
GEPOL Volume                                      ...    3305.9222
GEPOL Surface-area                                ...    1556.0477
Calculating surface distance matrix               ...        done! (  0.2s)
Performing Cholesky decomposition & store         ...        done! (  0.4s)
Overall time for CPCM initialization              ...                 0.6s
--------------
SCF ITERATIONS
--------------
ITER       Energy         Delta-E        Max-DP      RMS-DP      [F,P]     Damp
               ***  Starting incremental Fock matrix formation  ***
  0  -1487.9101166099   0.000000000000 0.15667700  0.00079809  0.2738492 0.7000
  1  -1488.2099347593  -0.299818149326 0.13214938  0.00075255  0.1116117 0.7000
                               ***Turning on DIIS***
  2  -1488.3348559891  -0.124921229852 0.22167151  0.00141436  0.0368045 0.0000
  3  -1488.5378688484  -0.203012859331 0.13013579  0.00057640  0.0530751 0.0000
  4  -1488.5745849507  -0.036716102245 0.04164426  0.00021743  0.0174608 0.0000
  5  -1488.5768765825  -0.002291631834 0.01433816  0.00007479  0.0073156 0.0000
                      *** Initiating the SOSCF procedure ***
                           *** Shutting down DIIS ***
                      *** Re-Reading the Fockian *** 
                      *** Removing any level shift *** 
ITER      Energy       Delta-E        Grad      Rot      Max-DP    RMS-DP
  6  -1488.57710478  -0.0002281942  0.000184  0.000184  0.005731  0.000032
               *** Restarting incremental Fock matrix formation ***
  7  -1488.57717731  -0.0000725332  0.000280  0.001432  0.003663  0.000031
  8  -1488.57716216   0.0000151467  0.000530  0.000875  0.001794  0.000010
  9  -1488.57718453  -0.0000223714  0.000114  0.000433  0.000768  0.000004
 10  -1488.57718361   0.0000009228  0.000199  0.000275  0.000441  0.000002
 11  -1488.57718491  -0.0000013013  0.000013  0.000054  0.000783  0.000002
 12  -1488.57718495  -0.0000000330  0.000022  0.000049  0.000241  0.000001
                  ***Gradient check signals convergence***
              ***Rediagonalizing the Fockian in SOSCF/NRSCF***

               *****************************************************
               *                     SUCCESS                       *
               *           SCF CONVERGED AFTER  13 CYCLES          *
               *****************************************************

Old exchange energy                            =    -48.922195312 Eh
New exchange energy                            =    -48.922166027 Eh
Exchange energy change after final integration =      0.000029285 Eh
Total energy after final integration           =  -1488.577155626 Eh
Final COS-X integration done in                =    33.547 sec

----------------
TOTAL SCF ENERGY
----------------

Total Energy       :        -1488.57715563 Eh          -40506.24370 eV

Components:
Nuclear Repulsion  :         3552.99839146 Eh           96682.00145 eV
Electronic Energy  :        -5041.57554709 Eh         -137188.24515 eV
One Electron Energy:        -9101.18895169 Eh         -247655.94196 eV
Two Electron Energy:         4059.61340460 Eh          110467.69681 eV
Max COSX asymmetry :            0.00000331 Eh               0.00009 eV
CPCM Dielectric    :           -0.05032601 Eh              -1.36944 eV

Virial components:
Potential Energy   :        -2970.61106766 Eh          -80834.43669 eV
Kinetic Energy     :         1482.03391204 Eh           40328.19299 eV
Virial Ratio       :            2.00441504


DFT components:
N(Alpha)           :      114.999912450873 electrons
N(Beta)            :      114.999912450873 electrons
N(Total)           :      229.999824901747 electrons
E(X)               :     -146.496776858113 Eh       
E(C)               :       -7.789025745836 Eh       
E(XC)              :     -154.285802603949 Eh       
DFET-embed. en.    :        0.000000000000 Eh       
CPCM Solvation Model Properties:
Surface-charge          :           -0.03313246
Charge-correction       :           -0.00037419 Eh              -0.01018 eV
Free-energy (cav+disp)  :  This term is not implemented in the current solvation scheme

---------------
SCF CONVERGENCE
---------------

  Last Energy change         ...    3.5766e-08  Tolerance :   1.0000e-08
  Last MAX-Density change    ...    2.5535e-15  Tolerance :   1.0000e-07
  Last RMS-Density change    ...    1.2433e-17  Tolerance :   5.0000e-09
  Last Orbital Gradient      ...    1.2371e-06  Tolerance :   1.0000e-05
  Last Orbital Rotation      ...    5.9260e-06  Tolerance :   1.0000e-05

             **** THE GBW FILE WAS UPDATED (TS1_4-OMePh/TS1_4-OMePh.gbw) ****
             **** DENSITY TS1_4-OMePh/TS1_4-OMePh.scfp WAS UPDATED ****
             **** ENERGY FILE WAS UPDATED (TS1_4-OMePh/TS1_4-OMePh.en.tmp) ****
             **** THE GBW FILE WAS UPDATED (TS1_4-OMePh/TS1_4-OMePh.gbw) ****
             **** DENSITY TS1_4-OMePh/TS1_4-OMePh.scfp WAS UPDATED ****
----------------
ORBITAL ENERGIES
----------------

  NO   OCC          E(Eh)            E(eV) 
   0   2.0000     -19.265967      -524.2536 
   1   2.0000     -19.247680      -523.7560 
   2   2.0000     -19.242386      -523.6120 
   3   2.0000     -19.204750      -522.5878 
   4   2.0000     -19.198401      -522.4151 
   5   2.0000     -19.196980      -522.3764 
   6   2.0000     -14.577141      -396.6642 
   7   2.0000     -14.470828      -393.7712 
   8   2.0000     -10.364708      -282.0380 
   9   2.0000     -10.298569      -280.2383 
  10   2.0000     -10.296356      -280.1781 
  11   2.0000     -10.288402      -279.9617 
  12   2.0000     -10.287231      -279.9298 
  13   2.0000     -10.286860      -279.9197 
  14   2.0000     -10.271820      -279.5104 
  15   2.0000     -10.267126      -279.3827 
  16   2.0000     -10.266786      -279.3734 
  17   2.0000     -10.264717      -279.3172 
  18   2.0000     -10.260013      -279.1891 
  19   2.0000     -10.253867      -279.0219 
  20   2.0000     -10.241467      -278.6845 
  21   2.0000     -10.237496      -278.5764 
  22   2.0000     -10.234195      -278.4866 
  23   2.0000     -10.233358      -278.4638 
  24   2.0000     -10.228485      -278.3312 
  25   2.0000     -10.228006      -278.3182 
  26   2.0000     -10.227468      -278.3036 
  27   2.0000     -10.227277      -278.2984 
  28   2.0000     -10.224620      -278.2260 
  29   2.0000     -10.222839      -278.1776 
  30   2.0000     -10.221284      -278.1353 
  31   2.0000     -10.220100      -278.1031 
  32   2.0000      -1.220269       -33.2052 
  33   2.0000      -1.157776       -31.5047 
  34   2.0000      -1.111684       -30.2504 
  35   2.0000      -1.104065       -30.0431 
  36   2.0000      -1.067743       -29.0548 
  37   2.0000      -1.049916       -28.5697 
  38   2.0000      -1.036075       -28.1930 
  39   2.0000      -0.904274       -24.6065 
  40   2.0000      -0.887661       -24.1545 
  41   2.0000      -0.875937       -23.8355 
  42   2.0000      -0.855481       -23.2788 
  43   2.0000      -0.818775       -22.2800 
  44   2.0000      -0.813492       -22.1362 
  45   2.0000      -0.788301       -21.4508 
  46   2.0000      -0.780033       -21.2258 
  47   2.0000      -0.778031       -21.1713 
  48   2.0000      -0.771787       -21.0014 
  49   2.0000      -0.749141       -20.3852 
  50   2.0000      -0.724303       -19.7093 
  51   2.0000      -0.716950       -19.5092 
  52   2.0000      -0.703536       -19.1442 
  53   2.0000      -0.685677       -18.6582 
  54   2.0000      -0.663267       -18.0484 
  55   2.0000      -0.636130       -17.3100 
  56   2.0000      -0.628421       -17.1002 
  57   2.0000      -0.622517       -16.9396 
  58   2.0000      -0.613016       -16.6810 
  59   2.0000      -0.603029       -16.4093 
  60   2.0000      -0.580226       -15.7888 
  61   2.0000      -0.564863       -15.3707 
  62   2.0000      -0.562606       -15.3093 
  63   2.0000      -0.551323       -15.0022 
  64   2.0000      -0.549242       -14.9456 
  65   2.0000      -0.540211       -14.6999 
  66   2.0000      -0.536102       -14.5881 
  67   2.0000      -0.527008       -14.3406 
  68   2.0000      -0.521880       -14.2011 
  69   2.0000      -0.517152       -14.0724 
  70   2.0000      -0.512840       -13.9551 
  71   2.0000      -0.503493       -13.7007 
  72   2.0000      -0.499477       -13.5915 
  73   2.0000      -0.496854       -13.5201 
  74   2.0000      -0.487962       -13.2781 
  75   2.0000      -0.486773       -13.2458 
  76   2.0000      -0.484080       -13.1725 
  77   2.0000      -0.477268       -12.9871 
  78   2.0000      -0.469490       -12.7755 
  79   2.0000      -0.464833       -12.6488 
  80   2.0000      -0.459615       -12.5068 
  81   2.0000      -0.456729       -12.4282 
  82   2.0000      -0.446961       -12.1624 
  83   2.0000      -0.442622       -12.0443 
  84   2.0000      -0.436735       -11.8842 
  85   2.0000      -0.429392       -11.6843 
  86   2.0000      -0.426369       -11.6021 
  87   2.0000      -0.422621       -11.5001 
  88   2.0000      -0.411187       -11.1890 
  89   2.0000      -0.406196       -11.0532 
  90   2.0000      -0.397288       -10.8108 
  91   2.0000      -0.395585       -10.7644 
  92   2.0000      -0.393259       -10.7011 
  93   2.0000      -0.386969       -10.5300 
  94   2.0000      -0.381889       -10.3917 
  95   2.0000      -0.378830       -10.3085 
  96   2.0000      -0.374713       -10.1965 
  97   2.0000      -0.372743       -10.1429 
  98   2.0000      -0.366180        -9.9643 
  99   2.0000      -0.345617        -9.4047 
 100   2.0000      -0.344256        -9.3677 
 101   2.0000      -0.340783        -9.2732 
 102   2.0000      -0.336614        -9.1597 
 103   2.0000      -0.331923        -9.0321 
 104   2.0000      -0.329630        -8.9697 
 105   2.0000      -0.314410        -8.5555 
 106   2.0000      -0.309848        -8.4314 
 107   2.0000      -0.306542        -8.3414 
 108   2.0000      -0.296056        -8.0561 
 109   2.0000      -0.280271        -7.6266 
 110   2.0000      -0.272135        -7.4052 
 111   2.0000      -0.267772        -7.2864 
 112   2.0000      -0.239463        -6.5161 
 113   2.0000      -0.233461        -6.3528 
 114   2.0000      -0.208376        -5.6702 
 115   0.0000      -0.065945        -1.7945 
 116   0.0000      -0.032817        -0.8930 
[...]
 79:    986.37   0.000635    3.21  0.000201  ( 0.009286  0.005443 -0.009218)
 80:    997.29   0.010946   55.32  0.003425  ( 0.049839  0.013310 -0.027641)
 81:   1012.90   0.000128    0.65  0.000039  ( 0.005559 -0.002563  0.001398)
 82:   1027.19   0.001940    9.80  0.000589  ( 0.009524 -0.010354  0.019783)
 83:   1049.43   0.008165   41.26  0.002428  (-0.003748  0.041295 -0.026619)
 84:   1052.63   0.000495    2.50  0.000147  (-0.007932 -0.009143 -0.000377)
 85:   1062.72   0.010126   51.17  0.002973  ( 0.046041 -0.024209  0.016356)
 86:   1072.09   0.008478   42.84  0.002468  (-0.011017  0.021276 -0.043517)
 87:   1081.12   0.002798   14.14  0.000808  ( 0.025827 -0.004733 -0.010869)
 88:   1085.58   0.007342   37.10  0.002111  (-0.010784 -0.003398 -0.044528)
 89:   1091.58   0.023725  119.89  0.006782  (-0.044838  0.000847  0.069074)
 90:   1113.16   0.003725   18.82  0.001044  ( 0.011831  0.028805 -0.008634)
 91:   1138.13   0.001440    7.28  0.000395  (-0.001020 -0.014420  0.013631)
 92:   1139.40   0.009635   48.69  0.002639  (-0.015223 -0.009547 -0.048125)
 93:   1152.97   0.008048   40.67  0.002178  (-0.013781  0.010928 -0.043232)
 94:   1170.94   0.000148    0.75  0.000040  (-0.000466  0.006016 -0.001765)
 95:   1171.63   0.000254    1.28  0.000068  (-0.006348 -0.005175  0.000671)
 96:   1173.27   0.001067    5.39  0.000284  (-0.005189  0.003764 -0.015576)
 97:   1173.53   0.000583    2.94  0.000155  ( 0.008593  0.008958 -0.000930)
 98:   1175.19   0.005307   26.82  0.001409  ( 0.023697  0.028634 -0.005283)
 99:   1197.16   0.009436   47.68  0.002460  ( 0.041200  0.027459 -0.002844)
100:   1205.46   0.005519   27.89  0.001429  ( 0.036022 -0.011011 -0.003158)
101:   1206.34   0.003878   19.60  0.001003  (-0.008839  0.028250  0.011267)
102:   1207.10   0.010670   53.92  0.002759  (-0.006548  0.044666 -0.026844)
103:   1212.10   0.007607   38.44  0.001959  ( 0.037239 -0.023428  0.004790)
104:   1226.43   0.012425   62.79  0.003162  ( 0.018412  0.031011 -0.043138)
105:   1239.68   0.042051  212.51  0.010585  (-0.014252 -0.099998  0.019561)
106:   1245.56   0.006328   31.98  0.001585  (-0.011124 -0.032243  0.020545)
107:   1259.38   0.084733  428.20  0.020996  (-0.003020 -0.143885  0.016850)
108:   1274.48   0.017925   90.58  0.004389  ( 0.005950 -0.058483  0.030550)
109:   1298.80   0.068328  345.30  0.016417  ( 0.128096  0.000273  0.002958)
110:   1308.70   0.067227  339.74  0.016030  (-0.007962  0.042847  0.118874)
111:   1319.94   0.024580  124.21  0.005811  (-0.063692 -0.017004 -0.038280)
112:   1327.21   0.005856   29.60  0.001377  ( 0.014068  0.029764 -0.017122)
113:   1336.41   0.002771   14.00  0.000647  ( 0.005606 -0.018987 -0.015970)
114:   1342.20   0.037536  189.69  0.008727  ( 0.028426 -0.064094  0.061733)
115:   1353.67   0.004650   23.50  0.001072  ( 0.013672  0.016125 -0.025001)
116:   1361.79   0.056261  284.32  0.012893  (-0.078962 -0.018698  0.079423)
117:   1373.09   0.054766  276.76  0.012447  (-0.040562 -0.098097  0.034328)
118:   1381.74   0.023991  121.24  0.005418  (-0.030570 -0.022505  0.063066)
119:   1387.78   0.003306   16.71  0.000743  (-0.017073  0.017905 -0.011460)
120:   1423.18   0.011429   57.76  0.002506  (-0.001295  0.025230 -0.043219)
121:   1452.39   0.002200   11.12  0.000473  (-0.015260  0.007236 -0.013690)
122:   1464.69   0.007037   35.56  0.001499  ( 0.025586  0.014390 -0.025252)
123:   1465.94   0.003762   19.01  0.000801  (-0.016256 -0.023131  0.001256)
124:   1468.35   0.000795    4.02  0.000169  ( 0.008973 -0.004109  0.008464)
125:   1470.59   0.009796   49.50  0.002079  (-0.020821  0.040003 -0.006701)
126:   1472.26   0.003434   17.36  0.000728  (-0.004444 -0.026101 -0.005194)
127:   1473.27   0.002849   14.40  0.000603  (-0.001559  0.023296 -0.007640)
128:   1476.82   0.006988   35.32  0.001477  (-0.012464 -0.008989 -0.035220)
129:   1478.05   0.097242  491.42  0.020531  (-0.104459 -0.087820 -0.043668)
130:   1482.22   0.002394   12.10  0.000504  ( 0.015958 -0.013732 -0.007802)
131:   1486.84   0.007599   38.40  0.001595  ( 0.038972  0.002780  0.008266)
132:   1495.32   0.021711  109.72  0.004531  ( 0.060736 -0.027790  0.008356)
133:   1499.47   0.011847   59.87  0.002465  ( 0.004328 -0.016036 -0.046793)
134:   1518.47   0.003035   15.34  0.000624  ( 0.023065 -0.008688  0.004040)
135:   1542.08   0.033239  167.97  0.006726  (-0.026190  0.033334  0.070209)
136:   1558.97   0.051276  259.13  0.010264  ( 0.098594  0.008084  0.021860)
137:   1604.30   0.035483  179.31  0.006902  (-0.081953 -0.011308 -0.007600)
138:   1633.81   0.002883   14.57  0.000551  ( 0.001969 -0.009831 -0.021216)
139:   1651.58   0.007402   37.41  0.001399  (-0.001636 -0.002401 -0.037284)
140:   1664.58   0.009893   49.99  0.001855  (-0.015987  0.020167  0.034530)
141:   1672.05   0.022187  112.13  0.004141  (-0.060706 -0.013695 -0.016376)
142:   1683.85   0.043097  217.79  0.007987  (-0.052860  0.068589  0.022098)
143:   1790.59   0.102524  518.11  0.017868  ( 0.053775 -0.038846 -0.116048)
144:   3033.56   0.012662   63.99  0.001303  ( 0.030510 -0.005241 -0.018553)
145:   3040.10   0.012095   61.12  0.001242  (-0.011742  0.008827 -0.032028)
146:   3074.05   0.006226   31.46  0.000632  (-0.001201 -0.021610  0.012790)
147:   3103.03   0.008343   42.16  0.000839  ( 0.000625  0.027615 -0.008722)
148:   3111.93   0.000737    3.72  0.000074  (-0.004005 -0.002882  0.007036)
149:   3113.36   0.007766   39.25  0.000778  ( 0.018112  0.020947 -0.003414)
150:   3124.84   0.001131    5.71  0.000113  ( 0.001275 -0.010548 -0.000125)
151:   3158.24   0.003801   19.21  0.000376  (-0.018611 -0.003338 -0.004249)
152:   3163.36   0.004510   22.79  0.000445  (-0.016914 -0.003684 -0.012051)
153:   3165.92   0.003476   17.57  0.000343  (-0.010493  0.010857  0.010709)
154:   3184.29   0.001081    5.46  0.000106  (-0.005896  0.004288 -0.007265)
155:   3191.02   0.002041   10.32  0.000200  (-0.002973  0.009513  0.010015)
156:   3195.29   0.001918    9.69  0.000187  (-0.009662  0.007737 -0.005843)
157:   3196.34   0.001822    9.21  0.000178  (-0.008213 -0.005116 -0.009181)
158:   3201.04   0.001105    5.59  0.000108  (-0.009690 -0.002151 -0.003036)
159:   3205.20   0.002684   13.56  0.000261  (-0.002770  0.015316 -0.004368)
160:   3206.79   0.001310    6.62  0.000127  (-0.000054  0.002330 -0.011047)
161:   3213.10   0.003566   18.02  0.000346  ( 0.006837 -0.009170 -0.014681)
162:   3226.56   0.002214   11.19  0.000214  (-0.009307  0.004254  0.010460)
163:   3229.01   0.000311    1.57  0.000030  ( 0.005473  0.000251 -0.000033)
164:   3229.64   0.000408    2.06  0.000039  ( 0.002999 -0.003276  0.004436)
165:   3232.86   0.000484    2.45  0.000047  (-0.001564  0.004821  0.004589)
166:   3233.83   0.000060    0.31  0.000006  (-0.001283 -0.001887  0.000791)
167:   3249.71   0.000006    0.03  0.000001  (-0.000107  0.000319  0.000645)

* The epsilon (eps) is given for a Dirac delta lineshape.
** The dipole moment derivative (T) already includes vibrational overlap.

The first frequency considered to be a vibration is 7
The total number of vibrations considered is 161


--------------------------
THERMOCHEMISTRY AT 298.15K
--------------------------

Temperature         ... 298.15 K
Pressure            ... 1.00 atm
Total Mass          ... 436.46 AMU

Throughout the following assumptions are being made:
  (1) The electronic state is orbitally nondegenerate
  (2) There are no thermally accessible electronically excited states
  (3) Hindered rotations indicated by low frequency modes are not
      treated as such but are treated as vibrations and this may
      cause some error
  (4) All equations used are the standard statistical mechanics
      equations for an ideal gas
  (5) All vibrations are strictly harmonic

freq.      17.86  E(vib)   ...       0.57 
freq.      30.44  E(vib)   ...       0.55 
freq.      38.81  E(vib)   ...       0.54 
freq.      59.05  E(vib)   ...       0.51 
freq.      72.31  E(vib)   ...       0.50 
freq.      78.69  E(vib)   ...       0.49 
freq.      88.26  E(vib)   ...       0.48 
freq.      92.04  E(vib)   ...       0.47 
freq.      94.65  E(vib)   ...       0.47 
freq.     107.26  E(vib)   ...       0.45 
freq.     111.92  E(vib)   ...       0.45 
freq.     119.49  E(vib)   ...       0.44 
freq.     127.69  E(vib)   ...       0.43 
freq.     136.89  E(vib)   ...       0.42 
freq.     148.03  E(vib)   ...       0.41 
freq.     153.04  E(vib)   ...       0.40 
freq.     170.50  E(vib)   ...       0.38 
freq.     181.93  E(vib)   ...       0.37 
freq.     196.46  E(vib)   ...       0.36 
freq.     209.26  E(vib)   ...       0.34 
freq.     217.89  E(vib)   ...       0.33 
freq.     238.32  E(vib)   ...       0.32 
freq.     247.58  E(vib)   ...       0.31 
freq.     261.06  E(vib)   ...       0.30 
freq.     273.01  E(vib)   ...       0.29 
freq.     276.49  E(vib)   ...       0.28 
freq.     294.03  E(vib)   ...       0.27 
freq.     298.30  E(vib)   ...       0.26 
freq.     328.56  E(vib)   ...       0.24 
freq.     358.43  E(vib)   ...       0.22 
freq.     379.92  E(vib)   ...       0.21 
freq.     384.37  E(vib)   ...       0.20 
freq.     406.21  E(vib)   ...       0.19 
freq.     428.40  E(vib)   ...       0.18 
freq.     446.12  E(vib)   ...       0.17 
freq.     480.83  E(vib)   ...       0.15 
freq.     490.72  E(vib)   ...       0.15 
freq.     498.64  E(vib)   ...       0.14 
freq.     514.07  E(vib)   ...       0.13 
freq.     542.94  E(vib)   ...       0.12 
freq.     559.40  E(vib)   ...       0.12 
freq.     573.40  E(vib)   ...       0.11 
freq.     588.31  E(vib)   ...       0.10 
freq.     601.03  E(vib)   ...       0.10 
freq.     623.78  E(vib)   ...       0.09 
freq.     636.55  E(vib)   ...       0.09 
freq.     646.79  E(vib)   ...       0.09 
freq.     652.88  E(vib)   ...       0.08 
freq.     671.42  E(vib)   ...       0.08 
freq.     698.44  E(vib)   ...       0.07 
freq.     708.98  E(vib)   ...       0.07 
freq.     748.81  E(vib)   ...       0.06 
freq.     753.59  E(vib)   ...       0.06 
freq.     764.40  E(vib)   ...       0.06 
freq.     770.34  E(vib)   ...       0.05 
freq.     786.25  E(vib)   ...       0.05 
freq.     791.67  E(vib)   ...       0.05 
freq.     804.32  E(vib)   ...       0.05 
freq.     823.89  E(vib)   ...       0.05 
freq.     825.68  E(vib)   ...       0.04 
freq.     832.50  E(vib)   ...       0.04 
freq.     837.39  E(vib)   ...       0.04 
freq.     853.83  E(vib)   ...       0.04 
freq.     869.23  E(vib)   ...       0.04 
freq.     877.90  E(vib)   ...       0.04 
freq.     903.42  E(vib)   ...       0.03 
freq.     937.21  E(vib)   ...       0.03 
freq.     954.14  E(vib)   ...       0.03 
freq.     966.00  E(vib)   ...       0.03 
freq.     967.34  E(vib)   ...       0.03 
freq.     976.30  E(vib)   ...       0.03 
freq.     978.75  E(vib)   ...       0.03 
freq.     986.37  E(vib)   ...       0.02 
freq.     997.29  E(vib)   ...       0.02 
freq.    1012.90  E(vib)   ...       0.02 
freq.    1027.19  E(vib)   ...       0.02 
freq.    1049.43  E(vib)   ...       0.02 
freq.    1052.63  E(vib)   ...       0.02 
freq.    1062.72  E(vib)   ...       0.02 
freq.    1072.09  E(vib)   ...       0.02 
freq.    1081.12  E(vib)   ...       0.02 
freq.    1085.58  E(vib)   ...       0.02 
freq.    1091.58  E(vib)   ...       0.02 
freq.    1113.16  E(vib)   ...       0.01 
freq.    1138.13  E(vib)   ...       0.01 
freq.    1139.40  E(vib)   ...       0.01 
freq.    1152.97  E(vib)   ...       0.01 
freq.    1170.94  E(vib)   ...       0.01 
freq.    1171.63  E(vib)   ...       0.01 
freq.    1173.27  E(vib)   ...       0.01 
freq.    1173.53  E(vib)   ...       0.01 
freq.    1175.19  E(vib)   ...       0.01 
freq.    1197.16  E(vib)   ...       0.01 
freq.    1205.46  E(vib)   ...       0.01 
freq.    1206.34  E(vib)   ...       0.01 
freq.    1207.10  E(vib)   ...       0.01 
freq.    1212.10  E(vib)   ...       0.01 
freq.    1226.43  E(vib)   ...       0.01 
freq.    1239.68  E(vib)   ...       0.01 
freq.    1245.56  E(vib)   ...       0.01 
freq.    1259.38  E(vib)   ...       0.01 
freq.    1274.48  E(vib)   ...       0.01 
freq.    1298.80  E(vib)   ...       0.01 
freq.    1308.70  E(vib)   ...       0.01 
freq.    1319.94  E(vib)   ...       0.01 
freq.    1327.21  E(vib)   ...       0.01 
freq.    1336.41  E(vib)   ...       0.01 
freq.    1342.20  E(vib)   ...       0.01 
freq.    1353.67  E(vib)   ...       0.01 
freq.    1361.79  E(vib)   ...       0.01 
freq.    1373.09  E(vib)   ...       0.01 
freq.    1381.74  E(vib)   ...       0.01 
freq.    1387.78  E(vib)   ...       0.00 
freq.    1423.18  E(vib)   ...       0.00 
freq.    1452.39  E(vib)   ...       0.00 
freq.    1464.69  E(vib)   ...       0.00 
freq.    1465.94  E(vib)   ...       0.00 
freq.    1468.35  E(vib)   ...       0.00 
freq.    1470.59  E(vib)   ...       0.00 
freq.    1472.26  E(vib)   ...       0.00 
freq.    1473.27  E(vib)   ...       0.00 
freq.    1476.82  E(vib)   ...       0.00 
freq.    1478.05  E(vib)   ...       0.00 
freq.    1482.22  E(vib)   ...       0.00 
freq.    1486.84  E(vib)   ...       0.00 
freq.    1495.32  E(vib)   ...       0.00 
freq.    1499.47  E(vib)   ...       0.00 
freq.    1518.47  E(vib)   ...       0.00 
freq.    1542.08  E(vib)   ...       0.00 
freq.    1558.97  E(vib)   ...       0.00 
freq.    1604.30  E(vib)   ...       0.00 
freq.    1633.81  E(vib)   ...       0.00 
freq.    1651.58  E(vib)   ...       0.00 
freq.    1664.58  E(vib)   ...       0.00 
freq.    1672.05  E(vib)   ...       0.00 
freq.    1683.85  E(vib)   ...       0.00 
freq.    1790.59  E(vib)   ...       0.00 
freq.    3033.56  E(vib)   ...       0.00 
freq.    3040.10  E(vib)   ...       0.00 
freq.    3074.05  E(vib)   ...       0.00 
freq.    3103.03  E(vib)   ...       0.00 
freq.    3111.93  E(vib)   ...       0.00 
freq.    3113.36  E(vib)   ...       0.00 
freq.    3124.84  E(vib)   ...       0.00 
freq.    3158.24  E(vib)   ...       0.00 
freq.    3163.36  E(vib)   ...       0.00 
freq.    3165.92  E(vib)   ...       0.00 
freq.    3184.29  E(vib)   ...       0.00 
freq.    3191.02  E(vib)   ...       0.00 
freq.    3195.29  E(vib)   ...       0.00 
freq.    3196.34  E(vib)   ...       0.00 
freq.    3201.04  E(vib)   ...       0.00 
freq.    3205.20  E(vib)   ...       0.00 
freq.    3206.79  E(vib)   ...       0.00 
freq.    3213.10  E(vib)   ...       0.00 
freq.    3226.56  E(vib)   ...       0.00 
freq.    3229.01  E(vib)   ...       0.00 
freq.    3229.64  E(vib)   ...       0.00 
freq.    3232.86  E(vib)   ...       0.00 
freq.    3233.83  E(vib)   ...       0.00 
freq.    3249.71  E(vib)   ...       0.00 

------------
INNER ENERGY
------------

The inner energy is: U= E(el) + E(ZPE) + E(vib) + E(rot) + E(trans)
    E(el)   - is the total energy from the electronic structure calculation
              = E(kin-el) + E(nuc-el) + E(el-el) + E(nuc-nuc)
    E(ZPE)  - the the zero temperature vibrational energy from the frequency calculation
    E(vib)  - the the finite temperature correction to E(ZPE) due to population
              of excited vibrational states
    E(rot)  - is the rotational thermal energy
    E(trans)- is the translational thermal energy

Summary of contributions to the inner energy U:
Electronic energy                ...  -1488.65809608 Eh
Zero point energy                ...      0.44786329 Eh     281.04 kcal/mol
Thermal vibrational correction   ...      0.02529887 Eh      15.88 kcal/mol
Thermal rotational correction    ...      0.00141627 Eh       0.89 kcal/mol
Thermal translational correction ...      0.00141627 Eh       0.89 kcal/mol
-----------------------------------------------------------------------
Total thermal energy                  -1488.18210138 Eh


Summary of corrections to the electronic energy:
(perhaps to be used in another calculation)
Total thermal correction                  0.02813141 Eh      17.65 kcal/mol
Non-thermal (ZPE) correction              0.44786329 Eh     281.04 kcal/mol
-----------------------------------------------------------------------
Total correction                          0.47599469 Eh     298.69 kcal/mol


--------
ENTHALPY
--------

The enthalpy is H = U + kB*T
                kB is Boltzmann's constant
Total free energy                 ...  -1488.18210138 Eh 
Thermal Enthalpy correction       ...      0.00094421 Eh       0.59 kcal/mol
-----------------------------------------------------------------------
Total Enthalpy                    ...  -1488.18115717 Eh


Note: Only C1 symmetry has been detected, increase convergence thresholds 
      if your molecule has a higher symmetry. Symmetry factor of 1.0 is   
      used for the rotational entropy correction. 
 

Note: Rotational entropy computed according to Herzberg 
Infrared and Raman Spectra, Chapter V,1, Van Nostrand Reinhold, 1945 
Point Group:  C1, Symmetry Number:   1  
Rotational constants in cm-1:     0.006559     0.004700     0.003516 

Vibrational entropy computed according to the QRRHO of S. Grimme
Chem.Eur.J. 2012 18 9955


-------
ENTROPY
-------

The entropy contributions are T*S = T*(S(el)+S(vib)+S(rot)+S(trans))
     S(el)   - electronic entropy
     S(vib)  - vibrational entropy
     S(rot)  - rotational entropy
     S(trans)- translational entropy
The entropies will be listed as multiplied by the temperature to get
units of energy

Electronic entropy                ...      0.00000000 Eh      0.00 kcal/mol
Vibrational entropy               ...      0.04517856 Eh     28.35 kcal/mol
Rotational entropy                ...      0.01708186 Eh     10.72 kcal/mol
Translational entropy             ...      0.02095817 Eh     13.15 kcal/mol
-----------------------------------------------------------------------
Final entropy term                ...      0.08321859 Eh     52.22 kcal/mol

In case the symmetry of your molecule has not been determined correctly
or in case you have a reason to use a different symmetry number we print 
out the resulting rotational entropy values for sn=1,12 :
 --------------------------------------------------------
|  sn= 1 | S(rot)=       0.01708186 Eh     10.72 kcal/mol|
|  sn= 2 | S(rot)=       0.01642741 Eh     10.31 kcal/mol|
|  sn= 3 | S(rot)=       0.01604457 Eh     10.07 kcal/mol|
|  sn= 4 | S(rot)=       0.01577295 Eh      9.90 kcal/mol|
|  sn= 5 | S(rot)=       0.01556226 Eh      9.77 kcal/mol|
|  sn= 6 | S(rot)=       0.01539012 Eh      9.66 kcal/mol|
|  sn= 7 | S(rot)=       0.01524457 Eh      9.57 kcal/mol|
|  sn= 8 | S(rot)=       0.01511849 Eh      9.49 kcal/mol|
|  sn= 9 | S(rot)=       0.01500728 Eh      9.42 kcal/mol|
|  sn=10 | S(rot)=       0.01490781 Eh      9.35 kcal/mol|
|  sn=11 | S(rot)=       0.01481782 Eh      9.30 kcal/mol|
|  sn=12 | S(rot)=       0.01473566 Eh      9.25 kcal/mol|
 --------------------------------------------------------


-------------------
GIBBS FREE ENERGY
-------------------

The Gibbs free energy is G = H - T*S

Total enthalpy                    ...  -1488.18115717 Eh 
Total entropy correction          ...     -0.08321859 Eh    -52.22 kcal/mol
-----------------------------------------------------------------------
Final Gibbs free energy         ...  -1488.26437576 Eh

For completeness - the Gibbs free energy minus the electronic energy
G-E(el)                           ...      0.39372031 Eh    247.06 kcal/mol


Timings for individual modules:

Sum of individual times         ...    20071.267 sec (= 334.521 min)
GTO integral calculation        ...      178.111 sec (=   2.969 min)   0.9 %
SCF iterations                  ...    10934.967 sec (= 182.249 min)  54.5 %
SCF Gradient evaluation         ...     2988.316 sec (=  49.805 min)  14.9 %
Geometry relaxation             ...       11.684 sec (=   0.195 min)   0.1 %
Analytical frequency calculation...     5958.189 sec (=  99.303 min)  29.7 %
                             ****ORCA TERMINATED NORMALLY****
TOTAL RUN TIME: 0 days 5 hours 36 minutes 56 seconds 482 msec
