
                                 *****************
                                 * O   R   C   A *
                                 *****************

                                            #,                                       
                                            ###                                      
                                            ####                                     
                                            #####                                    
                                            ######                                   
                                           ########,                                 
                                     ,,################,,,,,                         
                               ,,#################################,,                 
                          ,,##########################################,,             
                       ,#########################################, ''#####,          
                    ,#############################################,,   '####,        
                  ,##################################################,,,,####,       
                ,###########''''           ''''###############################       
              ,#####''   ,,,,##########,,,,          '''####'''          '####       
            ,##' ,,,,###########################,,,                        '##       
           ' ,,###''''                  '''############,,,                           
         ,,##''                                '''############,,,,        ,,,,,,###''
      ,#''                                            '''#######################'''  
     '                                                          ''''####''''         
             ,#######,   #######,   ,#######,      ##                                
            ,#'     '#,  ##    ##  ,#'     '#,    #''#        ######   ,####,        
            ##       ##  ##   ,#'  ##            #'  '#       #        #'  '#        
            ##       ##  #######   ##           ,######,      #####,   #    #        
            '#,     ,#'  ##    ##  '#,     ,#' ,#      #,         ##   #,  ,#        
             '#######'   ##     ##  '#######'  #'      '#     #####' # '####'        



                  #######################################################
                  #                        -***-                        #
                  #          Department of theory and spectroscopy      #
                  #    Directorship and core code : Frank Neese         #
                  #        Max Planck Institute fuer Kohlenforschung    #
                  #                Kaiser Wilhelm Platz 1               #
                  #                 D-45470 Muelheim/Ruhr               #
                  #                      Germany                        #
                  #                                                     #
                  #                  All rights reserved                #
                  #                        -***-                        #
                  #######################################################


                         Program Version 5.0.4 -  RELEASE  -


 With contributions from (in alphabetic order):
   Daniel Aravena         : Magnetic Suceptibility
   Michael Atanasov       : Ab Initio Ligand Field Theory (pilot matlab implementation)
   Alexander A. Auer      : GIAO ZORA, VPT2 properties, NMR spectrum
   Ute Becker             : Parallelization
   Giovanni Bistoni       : ED, misc. LED, open-shell LED, HFLD
   Martin Brehm           : Molecular dynamics
   Dmytro Bykov           : SCF Hessian
   Vijay G. Chilkuri      : MRCI spin determinant printing, contributions to CSF-ICE
   Dipayan Datta          : RHF DLPNO-CCSD density
   Achintya Kumar Dutta   : EOM-CC, STEOM-CC
   Dmitry Ganyushin       : Spin-Orbit,Spin-Spin,Magnetic field MRCI
   Miquel Garcia          : C-PCM and meta-GGA Hessian, CC/C-PCM, Gaussian charge scheme
   Yang Guo               : DLPNO-NEVPT2, F12-NEVPT2, CIM, IAO-localization
   Andreas Hansen         : Spin unrestricted coupled pair/coupled cluster methods
   Benjamin Helmich-Paris : MC-RPA, TRAH-SCF, COSX integrals
   Lee Huntington         : MR-EOM, pCC
   Robert Izsak           : Overlap fitted RIJCOSX, COSX-SCS-MP3, EOM
   Marcus Kettner         : VPT2
   Christian Kollmar      : KDIIS, OOCD, Brueckner-CCSD(T), CCSD density, CASPT2, CASPT2-K
   Simone Kossmann        : Meta GGA functionals, TD-DFT gradient, OOMP2, MP2 Hessian
   Martin Krupicka        : Initial AUTO-CI
   Lucas Lang             : DCDCAS
   Marvin Lechner         : AUTO-CI (C++ implementation), FIC-MRCC
   Dagmar Lenk            : GEPOL surface, SMD
   Dimitrios Liakos       : Extrapolation schemes; Compound Job, initial MDCI parallelization
   Dimitrios Manganas     : Further ROCIS development; embedding schemes
   Dimitrios Pantazis     : SARC Basis sets
   Anastasios Papadopoulos: AUTO-CI, single reference methods and gradients
   Taras Petrenko         : DFT Hessian,TD-DFT gradient, ASA, ECA, R-Raman, ABS, FL, XAS/XES, NRVS
   Peter Pinski           : DLPNO-MP2, DLPNO-MP2 Gradient
   Christoph Reimann      : Effective Core Potentials
   Marius Retegan         : Local ZFS, SOC
   Christoph Riplinger    : Optimizer, TS searches, QM/MM, DLPNO-CCSD(T), (RO)-DLPNO pert. Triples
   Tobias Risthaus        : Range-separated hybrids, TD-DFT gradient, RPA, STAB
   Michael Roemelt        : Original ROCIS implementation
   Masaaki Saitow         : Open-shell DLPNO-CCSD energy and density
   Barbara Sandhoefer     : DKH picture change effects
   Avijit Sen             : IP-ROCIS
   Kantharuban Sivalingam : CASSCF convergence, NEVPT2, FIC-MRCI
   Bernardo de Souza      : ESD, SOC TD-DFT
   Georgi Stoychev        : AutoAux, RI-MP2 NMR, DLPNO-MP2 response
   Willem Van den Heuvel  : Paramagnetic NMR
   Boris Wezisla          : Elementary symmetry handling
   Frank Wennmohs         : Technical directorship


 We gratefully acknowledge several colleagues who have allowed us to
 interface, adapt or use parts of their codes:
   Stefan Grimme, W. Hujo, H. Kruse, P. Pracht,  : VdW corrections, initial TS optimization,
                  C. Bannwarth, S. Ehlert          DFT functionals, gCP, sTDA/sTD-DF
   Ed Valeev, F. Pavosevic, A. Kumar             : LibInt (2-el integral package), F12 methods
   Garnet Chan, S. Sharma, J. Yang, R. Olivares  : DMRG
   Ulf Ekstrom                                   : XCFun DFT Library
   Mihaly Kallay                                 : mrcc  (arbitrary order and MRCC methods)
   Jiri Pittner, Ondrej Demel                    : Mk-CCSD
   Frank Weinhold                                : gennbo (NPA and NBO analysis)
   Christopher J. Cramer and Donald G. Truhlar   : smd solvation model
   Lars Goerigk                                  : TD-DFT with DH, B97 family of functionals
   V. Asgeirsson, H. Jonsson                     : NEB implementation
   FAccTs GmbH                                   : IRC, NEB, NEB-TS, DLPNO-Multilevel, CI-OPT
                                                   MM, QMMM, 2- and 3-layer-ONIOM, Crystal-QMMM,
                                                   LR-CPCM, SF, NACMEs, symmetry and pop. for TD-DFT,
                                                   nearIR, NL-DFT gradient (VV10), updates on ESD,
                                                   ML-optimized integration grids
   S Lehtola, MJT Oliveira, MAL Marques          : LibXC Library
   Liviu Ungur et al                             : ANISO software


 Your calculation uses the libint2 library for the computation of 2-el integrals
 For citations please refer to: http://libint.valeyev.net

 Your ORCA version has been built with support for libXC version: 5.1.0
 For citations please refer to: https://tddft.org/programs/libxc/

 This ORCA versions uses:
   CBLAS   interface :  Fast vector & matrix operations
   LAPACKE interface :  Fast linear algebra routines
   SCALAPACK package :  Parallel linear algebra routines
   Shared memory     :  Shared parallel matrices
   BLAS/LAPACK       :  OpenBLAS 0.3.15  USE64BITINT DYNAMIC_ARCH NO_AFFINITY Haswell SINGLE_THREADED
        Core in use  :  Haswell
   Copyright (c) 2011-2014, The OpenBLAS Project


Your calculation utilizes the atom-pairwise dispersion correction
with the Becke-Johnson damping scheme (D3BJ)
Cite in your paper:
S.Grimme, S.Ehrlich, L.Goerigk, J Comput Chem, (2011), 32, 1456–1465 
S.Grimme, J.Antony, S.Ehrlich and H.Krieg, J.Chem.Phys., 132, (2010), 154104 
   

================================================================================

----- Orbital basis set information -----
Your calculation utilizes the basis: def2-TZVP
   F. Weigend and R. Ahlrichs, Phys. Chem. Chem. Phys. 7, 3297 (2005).

----- AuxJ basis set information -----
Your calculation utilizes the auxiliary basis: def2/J
   F. Weigend, Phys. Chem. Chem. Phys. 8, 1057 (2006).

================================================================================
                                        WARNINGS
                       Please study these warnings very carefully!
================================================================================


WARNING: Geometry Optimization
  ===> : Switching off AutoStart
         For restart on a previous wavefunction, please use MOREAD

INFO   : the flag for use of the SHARK integral package has been found!

================================================================================
                                       INPUT FILE
================================================================================
NAME = TS1_NO2/TS1_NO2.inp
|  1> %pal nprocs 24 end
|  2> %maxcore 3500
|  3> !PBE0 D3BJ def2-TZVP TightOpt TightSCF OPTTS FREQ
|  4> !CPCM(dmso)
|  5> %scf
|  6> MaxIter 800
|  7> end
|  8> %geom
|  9> MaxIter 800
| 10> MaxStep 0.2
| 11> inHess Read
| 12> InHessName "TS1_NO2-preopt.hess"
| 13> end
| 14> *xyz 0 1
| 15>   C      4.199505   -0.109143   -0.939087
| 16>   C      3.516686    0.085715   -2.164832
| 17>   C      2.257995    0.590661   -2.133782
| 18>   N      1.668776    0.939678   -0.961361
| 19>   C      2.232116    0.612654    0.266988
| 20>   C      3.593761    0.168986    0.245231
| 21>   C      0.235079    1.016053   -0.858639
| 22>   C     -0.217143    2.259601   -0.116785
| 23>   O      0.512875    3.152987    0.227740
| 24>   O     -1.530309    2.261433    0.013944
| 25>   C     -2.100369    3.387526    0.688821
| 26>   H      5.227013   -0.454113   -0.950068
| 27>   H      1.663458    0.763427   -3.021859
| 28>   H      1.942294    1.303577    1.054304
| 29>   H      4.112533    0.065314    1.187604
| 30>   H     -0.208365    1.071625   -1.851842
| 31>   H     -1.702846    3.456529    1.701363
| 32>   H     -3.170820    3.202086    0.711688
| 33>   C      0.913035   -0.674081    0.819911
| 34>   C     -0.122489   -0.382726   -0.238931
| 35>   C     -1.578752   -0.683661    0.014729
| 36>   C     -2.106831   -1.074043    1.235928
| 37>   C     -3.456544   -1.368737    1.388570
| 38>   C     -4.302165   -1.281493    0.298477
| 39>   C     -3.799389   -0.928127   -0.946325
| 40>   C     -2.447077   -0.646511   -1.092348
| 41>   O     -1.880367   -0.337058   -2.279283
| 42>   C     -2.698875   -0.306927   -3.434176
| 43>   N      1.514658   -1.995900    0.754560
| 44>   O      1.078520   -2.795627   -0.059449
| 45>   H      0.169472   -1.055851   -1.050218
| 46>   H     -1.474859   -1.173204    2.106504
| 47>   H     -3.833990   -1.666789    2.359148
| 48>   H     -5.358639   -1.500729    0.402578
| 49>   H     -4.461607   -0.883590   -1.800183
| 50>   H     -2.038844   -0.052174   -4.260680
| 51>   H     -3.481041    0.451515   -3.342989
| 52>   H     -3.155361   -1.283401   -3.617226
| 53>   O      2.489380   -2.201385    1.449771
| 54>   H     -1.882534    4.305147    0.142571
| 55>   H      3.983422   -0.136434   -3.113701
| 56>   N      0.623327   -0.254093    2.166918
| 57>   O      0.895332   -0.935453    3.135081
| 58>   O      0.118661    0.860291    2.240987
| 59> 
| 60> **                         ****END OF INPUT****
================================================================================

                       *****************************
                       * Geometry Optimization Run *
                       *****************************

Geometry optimization settings:
Update method            Update   .... Bofill
Choice of coordinates    CoordSys .... Z-matrix Internals
Initial Hessian          InHess   .... Read

Convergence Tolerances:
Energy Change            TolE     ....  1.0000e-06 Eh
Max. Gradient            TolMAXG  ....  1.0000e-04 Eh/bohr
RMS Gradient             TolRMSG  ....  3.0000e-05 Eh/bohr
Max. Displacement        TolMAXD  ....  1.0000e-03 bohr
RMS Displacement         TolRMSD  ....  6.0000e-04 bohr
Strict Convergence                ....  False
------------------------------------------------------------------------------
                        ORCA OPTIMIZATION COORDINATE SETUP
------------------------------------------------------------------------------

The optimization will be done in new redundant internal coordinates
Making redundant internal coordinates   ...  (new redundants) done
Following TS mode number                ...     0
Evaluating the initial hessian          ... (Reading Exact Hessian)...  
InHessName: TS1_NO2-preopt.hess	The file <TS1_NO2-preopt.hess> is opened as a .hess file
done
done
Diagonalizing the Hessian               .... done
Dimension of the hessian                .... 245
Lowest eigenvalues of the non projected Hessian:
 -0.015697510 -0.000137933 -0.000071090 -0.000060512 -0.000057346
done
Evaluating the coordinates              ...  done
Calculating the B-matrix                .... done
Calculating the G-matrix                .... done
Diagonalizing the G-matrix              .... done
Small eigenvalue found = 4.096e-03
Small eigenvalue found = 6.392e-03
Small eigenvalue found = 1.146e-02
Small eigenvalue found = 2.000e-02
Small eigenvalue found = 2.312e-02
Small eigenvalue found = 2.797e-02
The first mode is                       ....  119
The number of degrees of freedom        ....  126

    -----------------------------------------------------------------
                    Redundant Internal Coordinates


    -----------------------------------------------------------------
         Definition                    Initial Value    d2E/dq (diagonal element)
    -----------------------------------------------------------------
      1. B(C   1,C   0)                  1.4166         0.340662   
      2. B(C   2,C   1)                  1.3566         0.461311   
      3. B(N   3,C   2)                  1.3578         0.402553   
      4. B(C   4,N   3)                  1.3904         0.274352   
      5. B(C   5,C   4)                  1.4323         0.329210   
      6. B(C   5,C   0)                  1.3590         0.465515   
      7. B(C   6,N   3)                  1.4394         0.263003   
      8. B(C   7,C   6)                  1.5170         0.281859   
      9. B(O   8,C   7)                  1.2041         0.843149   
     10. B(O   9,C   7)                  1.3197         0.457371   
     11. B(C  10,O   9)                  1.4313         0.324852   
     12. B(H  11,C   0)                  1.0839         0.362703   
     13. B(H  12,C   2)                  1.0826         0.367249   
     14. B(H  13,C   4)                  1.0868         0.349433   
     15. B(H  14,C   5)                  1.0807         0.369787   
     16. B(H  15,C   6)                  1.0891         0.350893   
     17. B(H  16,C  10)                  1.0900         0.346607   
     18. B(H  17,C  10)                  1.0866         0.355439   
     19. B(C  18,C   4)                  1.9239         0.043347   
     20. B(C  19,C  18)                  1.5094         0.246581   
     21. B(C  19,C   6)                  1.5711         0.187930   
     22. B(C  20,C  19)                  1.5085         0.311309   
     23. B(C  21,C  20)                  1.3866         0.408127   
     24. B(C  22,C  21)                  1.3899         0.403394   
     25. B(C  23,C  22)                  1.3824         0.419971   
     26. B(C  24,C  23)                  1.3882         0.409025   
     27. B(C  25,C  24)                  1.3890         0.401136   
     28. B(C  25,C  20)                  1.4075         0.388979   
     29. B(O  26,C  25)                  1.3512         0.424548   
     30. B(C  27,O  26)                  1.4159         0.343096   
     31. B(N  28,C  18)                  1.4538         0.280741   
     32. B(O  29,N  28)                  1.2216         0.650671   
     33. B(H  30,C  19)                  1.0939         0.336819   
     34. B(H  31,C  21)                  1.0803         0.371094   
     35. B(H  32,C  22)                  1.0832         0.362906   
     36. B(H  33,C  23)                  1.0840         0.361365   
     37. B(H  34,C  24)                  1.0815         0.368200   
     38. B(H  35,C  27)                  1.0880         0.351617   
     39. B(H  36,C  27)                  1.0933         0.337416   
     40. B(H  37,C  27)                  1.0933         0.337367   
     41. B(O  38,N  28)                  1.2148         0.688582   
     42. B(H  39,C  10)                  1.0899         0.346513   
     43. B(H  40,C   1)                  1.0805         0.370198   
     44. B(N  41,C  18)                  1.4404         0.295580   
     45. B(O  42,N  41)                  1.2147         0.675099   
     46. B(O  43,N  41)                  1.2256         0.648090   
     47. A(C   1,C   0,C   5)          120.7348         0.078576   
     48. A(C   1,C   0,H  11)          119.4686         0.079440   
     49. A(C   5,C   0,H  11)          119.7680         0.079857   
     50. A(C   2,C   1,H  40)          119.8292         0.077901   
     51. A(C   0,C   1,C   2)          118.5971         0.079691   
     52. A(C   0,C   1,H  40)          121.5584         0.077419   
     53. A(N   3,C   2,H  12)          115.4039         0.091361   
     54. A(C   1,C   2,N   3)          121.2047         0.082068   
     55. A(C   1,C   2,H  12)          123.3799         0.082634   
     56. A(C   4,N   3,C   6)          110.6708         0.046702   
     57. A(C   2,N   3,C   6)          120.4974         0.061406   
     58. A(C   2,N   3,C   4)          121.7742         0.059790   
     59. A(H  13,C   4,C  18)           91.9571         0.020642   
     60. A(C   5,C   4,C  18)          116.6802         0.027800   
     61. A(N   3,C   4,C  18)           97.6671         0.028679   
     62. A(N   3,C   4,H  13)          112.4836         0.018883   
     63. A(C   5,C   4,H  13)          117.4801         0.020462   
     64. A(N   3,C   4,C   5)          116.3998         0.033651   
     65. A(C   0,C   5,H  14)          121.7567         0.076961   
     66. A(C   4,C   5,H  14)          118.2180         0.077341   
     67. A(C   0,C   5,C   4)          120.0253         0.071333   
     68. A(C   7,C   6,C  19)          117.9748         0.056768   
     69. A(N   3,C   6,C  19)          101.9813         0.042756   
     70. A(C   7,C   6,H  15)          106.4249         0.026425   
     71. A(N   3,C   6,H  15)          110.0703         0.022371   
     72. A(N   3,C   6,C   7)          112.0440         0.051610   
     73. A(H  15,C   6,C  19)          108.2075         0.023400   
     74. A(C   6,C   7,O   9)          110.2563         0.168993   
     75. A(C   6,C   7,O   8)          124.5707         0.160272   
     76. A(O   8,C   7,O   9)          125.0253         0.202629   
     77. A(C   7,O   9,C  10)          116.3680         0.275592   
     78. A(H  16,C  10,H  39)          109.8402         0.068014   
     79. A(H  16,C  10,H  17)          110.5200         0.067117   
     80. A(O   9,C  10,H  17)          105.5461         0.143383   
     81. A(H  17,C  10,H  39)          110.5558         0.067199   
     82. A(O   9,C  10,H  39)          110.2727         0.140524   
     83. A(O   9,C  10,H  16)          110.0341         0.140836   
     84. A(C  19,C  18,N  28)          115.3332         0.040009   
     85. A(C   4,C  18,N  28)          108.1470         0.020640   
     86. A(C  19,C  18,N  41)          117.4996         0.036195   
     87. A(C   4,C  18,N  41)          102.2192         0.029677   
     88. A(C   4,C  18,C  19)           98.0285         0.030230   
     89. A(N  28,C  18,N  41)          112.9786         0.052952   
     90. A(C  20,C  19,H  30)          105.0474         0.020513   
     91. A(C  18,C  19,H  30)          102.6142         0.019769   
     92. A(C   6,C  19,H  30)          101.2199         0.018617   
     93. A(C  18,C  19,C  20)          120.3855         0.079599   
     94. A(C   6,C  19,C  20)          117.6219         0.068859   
     95. A(C   6,C  19,C  18)          107.0021         0.048775   
     96. A(C  21,C  20,C  25)          117.7248         0.094157   
     97. A(C  19,C  20,C  25)          117.2607         0.202180   
     98. A(C  19,C  20,C  21)          124.8844         0.198254   
     99. A(C  22,C  21,H  31)          117.3934         0.089342   
    100. A(C  20,C  21,H  31)          120.8491         0.084777   
    101. A(C  20,C  21,C  22)          121.7525         0.083971   
    102. A(C  23,C  22,H  32)          120.7160         0.079925   
    103. A(C  21,C  22,H  32)          119.6775         0.080087   
    104. A(C  21,C  22,C  23)          119.6062         0.081622   
    105. A(C  24,C  23,H  33)          119.3781         0.080097   
    106. A(C  22,C  23,H  33)          120.5100         0.080102   
    107. A(C  22,C  23,C  24)          120.1065         0.080751   
    108. A(C  25,C  24,H  34)          120.3178         0.080599   
    109. A(C  23,C  24,H  34)          119.7802         0.083081   
    110. A(C  23,C  24,C  25)          119.8989         0.081203   
    111. A(C  24,C  25,O  26)          123.1688         0.200378   
    112. A(C  20,C  25,O  26)          115.9917         0.189995   
    113. A(C  20,C  25,C  24)          120.8367         0.093527   
    114. A(C  25,O  26,C  27)          118.6159         0.336172   
    115. A(O  26,C  27,H  36)          111.1193         0.138720   
    116. A(O  26,C  27,H  35)          105.8983         0.142446   
    117. A(H  36,C  27,H  37)          109.5622         0.069612   
    118. A(H  35,C  27,H  37)          109.5868         0.068446   
    119. A(O  26,C  27,H  37)          111.0342         0.138803   
    120. A(H  35,C  27,H  36)          109.5690         0.068621   
    121. A(C  18,N  28,O  29)          118.5177         0.220235   
    122. A(O  29,N  28,O  38)          123.8537         0.248044   
    123. A(C  18,N  28,O  38)          117.3964         0.199849   
    124. A(O  42,N  41,O  43)          123.6462         0.250714   
    125. A(C  18,N  41,O  43)          113.8575         0.220250   
    126. A(C  18,N  41,O  42)          122.4629         0.209647   
    127. D(C   2,C   1,C   0,H  11)   -176.2648         0.007884   
    128. D(H  40,C   1,C   0,C   5)   -179.6405         0.007728   
    129. D(C   2,C   1,C   0,C   5)      1.7865         0.009139   
    130. D(H  40,C   1,C   0,H  11)      2.3082         0.008533   
    131. D(N   3,C   2,C   1,H  40)   -176.8161         0.008846   
    132. D(H  12,C   2,C   1,H  40)      1.8893         0.009229   
    133. D(N   3,C   2,C   1,C   0)      1.7823         0.009255   
    134. D(H  12,C   2,C   1,C   0)   -179.5123         0.009605   
    135. D(C   6,N   3,C   2,C   1)   -157.8568         0.013953   
    136. D(C   6,N   3,C   2,H  12)     23.3399         0.010320   
    137. D(C   4,N   3,C   2,C   1)    -10.0004         0.007945   
    138. D(C   4,N   3,C   2,H  12)    171.1963         0.007202   
    139. D(H  13,C   4,N   3,C   2)    153.5474         0.012189   
    140. D(C   5,C   4,N   3,C   6)    164.4794         0.011592   
    141. D(C   5,C   4,N   3,C   2)     13.8186         0.008346   
    142. D(C  18,C   4,N   3,C   6)     39.5451         0.014109   
    143. D(C  18,C   4,N   3,C   2)   -111.1157         0.015720   
    144. D(H  13,C   4,N   3,C   6)    -55.7918         0.013632   
    145. D(H  14,C   5,C   4,H  13)     32.2868         0.009778   
    146. D(C   0,C   5,C   4,C  18)    104.5616         0.014245   
    147. D(H  14,C   5,C   4,N   3)    169.9698         0.007065   
    148. D(H  14,C   5,C   0,H  11)      0.6097         0.008823   
    149. D(C   0,C   5,C   4,N   3)    -10.0301         0.007795   
    150. D(C   0,C   5,C   4,H  13)   -147.7131         0.009654   
    151. D(H  14,C   5,C   4,C  18)    -75.4385         0.012304   
    152. D(C   4,C   5,C   0,H  11)   -179.3903         0.008535   
    153. D(H  14,C   5,C   0,C   1)   -177.4358         0.008190   
    154. D(C   4,C   5,C   0,C   1)      2.5641         0.007768   
    155. D(C   7,C   6,N   3,C   4)     73.1807         0.027593   
    156. D(C   7,C   6,N   3,C   2)   -135.7287         0.024894   
    157. D(H  15,C   6,N   3,C   2)    -17.5174         0.012921   
    158. D(C  19,C   6,N   3,C   4)    -53.9246         0.012579   
    159. D(C  19,C   6,N   3,C   2)     97.1660         0.013887   
    160. D(H  15,C   6,N   3,C   4)   -168.6080         0.014977   
    161. D(O   9,C   7,C   6,C  19)    -59.0013         0.017857   
    162. D(O   9,C   7,C   6,N   3)   -176.9493         0.018933   
    163. D(O   9,C   7,C   6,H  15)     62.6957         0.015021   
    164. D(O   8,C   7,C   6,C  19)    125.2333         0.015349   
    165. D(O   8,C   7,C   6,H  15)   -113.0696         0.014112   
    166. D(O   8,C   7,C   6,N   3)      7.2854         0.017490   
    167. D(C  10,O   9,C   7,O   8)     -3.7624         0.017488   
    168. D(C  10,O   9,C   7,C   6)   -179.5043         0.017364   
    169. D(H  39,C  10,O   9,C   7)     61.4829         0.023422   
    170. D(H  17,C  10,O   9,C   7)   -179.0927         0.023237   
    171. D(H  16,C  10,O   9,C   7)    -59.8362         0.023352   
    172. D(N  41,C  18,C   4,H  13)    -18.9823         0.022717   
    173. D(N  41,C  18,C   4,C   5)    103.2870         0.026610   
    174. D(N  41,C  18,C   4,N   3)   -131.9800         0.028074   
    175. D(N  28,C  18,C   4,C   5)    -16.1406         0.025255   
    176. D(N  28,C  18,C   4,N   3)    108.5924         0.027133   
    177. D(C  19,C  18,C   4,H  13)    101.5262         0.017500   
    178. D(N  28,C  18,C   4,H  13)   -138.4099         0.022874   
    179. D(C  19,C  18,C   4,N   3)    -11.4715         0.012718   
    180. D(C  19,C  18,C   4,C   5)   -136.2045         0.021653   
    181. D(H  30,C  19,C   6,C   7)    170.9294         0.019773   
    182. D(H  30,C  19,C   6,N   3)    -65.8984         0.015993   
    183. D(C  20,C  19,C   6,H  15)    -63.5874         0.019562   
    184. D(C  20,C  19,C   6,C   7)     57.1934         0.024043   
    185. D(C  20,C  19,C   6,N   3)   -179.6344         0.026839   
    186. D(C  18,C  19,C   6,H  15)    157.2145         0.016266   
    187. D(C  18,C  19,C   6,C   7)    -82.0048         0.025290   
    188. D(H  30,C  19,C   6,H  15)     50.1487         0.013409   
    189. D(C  18,C  19,C   6,N   3)     41.1674         0.013162   
    190. D(H  30,C  19,C  18,N  41)   -162.5703         0.018224   
    191. D(H  30,C  19,C  18,C   4)     89.1053         0.014767   
    192. D(C  20,C  19,C  18,N  41)    -46.4906         0.018547   
    193. D(C  20,C  19,C  18,N  28)     90.6797         0.015595   
    194. D(C  20,C  19,C  18,C   4)   -154.8150         0.018937   
    195. D(C   6,C  19,C  18,N  41)     91.3528         0.021485   
    196. D(H  30,C  19,C  18,N  28)    -25.4000         0.012852   
    197. D(C   6,C  19,C  18,N  28)   -131.4769         0.016320   
    198. D(C   6,C  19,C  18,C   4)    -16.9716         0.010856   
    199. D(C  25,C  20,C  19,H  30)    -52.6014         0.008279   
    200. D(C  25,C  20,C  19,C  18)   -167.4222         0.009334   
    201. D(C  25,C  20,C  19,C   6)     58.9956         0.013655   
    202. D(C  21,C  20,C  19,H  30)    123.1451         0.007742   
    203. D(C  21,C  20,C  19,C  18)      8.3243         0.007952   
    204. D(C  21,C  20,C  19,C   6)   -125.2579         0.012224   
    205. D(H  31,C  21,C  20,C  25)    176.5868         0.007202   
    206. D(H  31,C  21,C  20,C  19)      0.8583         0.006735   
    207. D(C  22,C  21,C  20,C  25)     -2.5840         0.007394   
    208. D(C  22,C  21,C  20,C  19)   -178.3125         0.007549   
    209. D(H  32,C  22,C  21,H  31)      1.0417         0.008465   
    210. D(H  32,C  22,C  21,C  20)   -179.7601         0.008157   
    211. D(C  23,C  22,C  21,H  31)   -178.7900         0.007773   
    212. D(C  23,C  22,C  21,C  20)      0.4081         0.009128   
    213. D(H  33,C  23,C  22,H  32)      0.6347         0.008688   
    214. D(H  33,C  23,C  22,C  21)   -179.5353         0.008323   
    215. D(C  24,C  23,C  22,H  32)   -178.5139         0.008338   
    216. D(C  24,C  23,C  22,C  21)      1.3161         0.009124   
    217. D(H  34,C  24,C  23,H  33)     -0.5606         0.008562   
    218. D(H  34,C  24,C  23,C  22)    178.5976         0.008192   
    219. D(C  25,C  24,C  23,H  33)   -179.9234         0.008101   
    220. D(C  25,C  24,C  23,C  22)     -0.7651         0.008938   
    221. D(O  26,C  25,C  24,H  34)     -1.4917         0.009841   
    222. D(O  26,C  25,C  24,C  23)    177.8675         0.010529   
    223. D(C  20,C  25,C  24,H  34)    179.1409         0.007478   
    224. D(C  20,C  25,C  24,C  23)     -1.4999         0.007545   
    225. D(O  26,C  25,C  20,C  21)   -176.2894         0.008793   
    226. D(O  26,C  25,C  20,C  19)     -0.2306         0.008332   
    227. D(C  24,C  25,C  20,C  21)      3.1215         0.006066   
    228. D(C  24,C  25,C  20,C  19)    179.1803         0.005758   
    229. D(C  27,O  26,C  25,C  24)     -0.4843         0.008751   
    230. D(C  27,O  26,C  25,C  20)    178.9115         0.010114   
    231. D(H  37,C  27,O  26,C  25)    -60.4184         0.027860   
    232. D(H  36,C  27,O  26,C  25)     61.7966         0.028134   
    233. D(H  35,C  27,O  26,C  25)   -179.2987         0.024723   
    234. D(O  38,N  28,C  18,N  41)    -51.9212         0.025782   
    235. D(O  38,N  28,C  18,C  19)    168.9973         0.024595   
    236. D(O  38,N  28,C  18,C   4)     60.4687         0.025520   
    237. D(O  29,N  28,C  18,N  41)    133.3996         0.019242   
    238. D(O  29,N  28,C  18,C  19)     -5.6819         0.018052   
    239. D(O  29,N  28,C  18,C   4)   -114.2105         0.021467   
    240. D(O  43,N  41,C  18,N  28)    179.8162         0.026721   
    241. D(O  43,N  41,C  18,C  19)    -42.0509         0.025226   
    242. D(O  43,N  41,C  18,C   4)     63.8418         0.027476   
    243. D(O  42,N  41,C  18,N  28)      1.8472         0.016904   
    244. D(O  42,N  41,C  18,C  19)    139.9801         0.020092   
    245. D(O  42,N  41,C  18,C   4)   -114.1272         0.020760   
    -----------------------------------------------------------------

Number of atoms                         .... 44
Number of degrees of freedom            .... 245

         *************************************************************
         *                GEOMETRY OPTIMIZATION CYCLE   1            *
         *************************************************************
---------------------------------
CARTESIAN COORDINATES (ANGSTROEM)
---------------------------------
  C      4.199505   -0.109143   -0.939087
  C      3.516686    0.085715   -2.164832
  C      2.257995    0.590661   -2.133782
  N      1.668776    0.939678   -0.961361
  C      2.232116    0.612654    0.266988
  C      3.593761    0.168986    0.245231
  C      0.235079    1.016053   -0.858639
  C     -0.217143    2.259601   -0.116785
  O      0.512875    3.152987    0.227740
  O     -1.530309    2.261433    0.013944
  C     -2.100369    3.387526    0.688821
  H      5.227013   -0.454113   -0.950068
  H      1.663458    0.763427   -3.021859
  H      1.942294    1.303577    1.054304
  H      4.112533    0.065314    1.187604
  H     -0.208365    1.071625   -1.851842
  H     -1.702846    3.456529    1.701363
  H     -3.170820    3.202086    0.711688
  C      0.913035   -0.674081    0.819911
  C     -0.122489   -0.382726   -0.238931
  C     -1.578752   -0.683661    0.014729
  C     -2.106831   -1.074043    1.235928
  C     -3.456544   -1.368737    1.388570
  C     -4.302165   -1.281493    0.298477
  C     -3.799389   -0.928127   -0.946325
  C     -2.447077   -0.646511   -1.092348
  O     -1.880367   -0.337058   -2.279283
  C     -2.698875   -0.306927   -3.434176
  N      1.514658   -1.995900    0.754560
  O      1.078520   -2.795627   -0.059449
  H      0.169472   -1.055851   -1.050218
  H     -1.474859   -1.173204    2.106504
  H     -3.833990   -1.666789    2.359148
  H     -5.358639   -1.500729    0.402578
  H     -4.461607   -0.883590   -1.800183
  H     -2.038844   -0.052174   -4.260680
  H     -3.481041    0.451515   -3.342989
  H     -3.155361   -1.283401   -3.617226
  O      2.489380   -2.201385    1.449771
  H     -1.882534    4.305147    0.142571
  H      3.983422   -0.136434   -3.113701
  N      0.623327   -0.254093    2.166918
  O      0.895332   -0.935453    3.135081
  O      0.118661    0.860291    2.240987

----------------------------
CARTESIAN COORDINATES (A.U.)
----------------------------
  NO LB      ZA    FRAG     MASS         X           Y           Z
   0 C     6.0000    0    12.011    7.935914   -0.206250   -1.774617
   1 C     6.0000    0    12.011    6.645573    0.161978   -4.090940
   2 C     6.0000    0    12.011    4.266992    1.116188   -4.032264
   3 N     7.0000    0    14.007    3.153530    1.775734   -1.816709
   4 C     6.0000    0    12.011    4.218088    1.157748    0.504534
   5 C     6.0000    0    12.011    6.791224    0.319337    0.463419
   6 C     6.0000    0    12.011    0.444235    1.920062   -1.622593
   7 C     6.0000    0    12.011   -0.410341    4.270027   -0.220692
   8 O     8.0000    0    15.999    0.969193    5.958282    0.430366
   9 O     8.0000    0    15.999   -2.891865    4.273489    0.026350
  10 C     6.0000    0    12.011   -3.969122    6.401496    1.301683
  11 H     1.0000    0     1.008    9.877623   -0.858149   -1.795368
  12 H     1.0000    0     1.008    3.143480    1.442668   -5.710486
  13 H     1.0000    0     1.008    3.670404    2.463404    1.992346
  14 H     1.0000    0     1.008    7.771561    0.123426    2.244246
  15 H     1.0000    0     1.008   -0.393753    2.025078   -3.499474
  16 H     1.0000    0     1.008   -3.217913    6.531893    3.215110
  17 H     1.0000    0     1.008   -5.991981    6.051066    1.344895
  18 C     6.0000    0    12.011    1.725386   -1.273828    1.549407
  19 C     6.0000    0    12.011   -0.231471   -0.723247   -0.451514
  20 C     6.0000    0    12.011   -2.983409   -1.291932    0.027834
  21 C     6.0000    0    12.011   -3.981334   -2.029647    2.335565
  22 C     6.0000    0    12.011   -6.531922   -2.586538    2.624017
  23 C     6.0000    0    12.011   -8.129914   -2.421671    0.564040
  24 C     6.0000    0    12.011   -7.179805   -1.753906   -1.788295
  25 C     6.0000    0    12.011   -4.624305   -1.221729   -2.064239
  26 O     8.0000    0    15.999   -3.553379   -0.636947   -4.307221
  27 C     6.0000    0    12.011   -5.100135   -0.580008   -6.489652
  28 N     7.0000    0    14.007    2.862289   -3.771704    1.425912
  29 O     8.0000    0    15.999    2.038107   -5.282969   -0.112342
  30 H     1.0000    0     1.008    0.320256   -1.995269   -1.984624
  31 H     1.0000    0     1.008   -2.787080   -2.217034    3.980716
  32 H     1.0000    0     1.008   -7.245191   -3.149775    4.458144
  33 H     1.0000    0     1.008  -10.126360   -2.835967    0.760762
  34 H     1.0000    0     1.008   -8.431215   -1.669743   -3.401853
  35 H     1.0000    0     1.008   -3.852857   -0.098595   -8.051518
  36 H     1.0000    0     1.008   -6.578214    0.853240   -6.317334
  37 H     1.0000    0     1.008   -5.962768   -2.425276   -6.835567
  38 O     8.0000    0    15.999    4.704246   -4.160015    2.739670
  39 H     1.0000    0     1.008   -3.557474    8.135549    0.269420
  40 H     1.0000    0     1.008    7.527577   -0.257823   -5.884042
  41 N     7.0000    0    14.007    1.177917   -0.480166    4.094882
  42 O     8.0000    0    15.999    1.691932   -1.767750    5.924444
  43 O     8.0000    0    15.999    0.224237    1.625714    4.234852

--------------------------------
INTERNAL COORDINATES (ANGSTROEM)
--------------------------------
 C      0   0   0     0.000000000000     0.00000000     0.00000000
 C      1   0   0     1.416567058755     0.00000000     0.00000000
 C      2   1   0     1.356553573913   118.59707050     0.00000000
 N      3   2   1     1.357778662924   121.20470504     1.78228009
 C      4   3   2     1.390373301663   121.77419644   349.99959180
 C      1   2   3     1.359003553822   120.73484379     1.78647051
 C      4   3   2     1.439399888050   120.49744867   202.14315007
 C      7   4   3     1.516991668700   112.04401225   224.27125280
 O      8   7   4     1.204060754674   124.57067532     7.28538152
 O      8   7   4     1.319658429754   110.25631723   183.05071773
 C     10   8   7     1.431262664006   116.36801168   180.49567793
 H      1   2   3     1.083926922502   119.46861895   183.73516486
 H      3   2   1     1.082590916761   123.37986796   180.48769419
 H      5   4   3     1.086847674455   112.48358406   153.54738167
 H      6   1   2     1.080712331149   121.75669660   182.56422826
 H      7   4   3     1.089120299842   110.07029009   342.48256795
 H     11  10   8     1.089966628527   110.03408364   300.16379221
 H     11  10   8     1.086635282277   105.54610073   180.90726763
 C      5   4   3     1.923898513102    97.66714586   248.88426650
 C     19   5   4     1.509418454758    98.02851317   348.52848890
 C     20  19   5     1.508511582652   120.38553552   205.18497953
 C     21  20  19     1.386575830514   124.88440255     8.32425634
 C     22  21  20     1.389917017728   121.75250932   181.68751960
 C     23  22  21     1.382385308019   119.60621002     0.40813163
 C     24  23  22     1.388230260200   120.10646383     1.31609138
 C     25  24  23     1.389020530204   119.89894280   359.23488103
 O     26  25  24     1.351198015664   123.16884611   177.86754314
 C     27  26  25     1.415853475708   118.61588864   359.51574820
 N     19   5   4     1.453762861023   108.14696265   108.59237277
 O     29  19   5     1.221634266732   118.51769618   245.78951876
 H     20  19   5     1.093857891828   102.61421738    89.10527329
 H     22  21  20     1.080335172287   120.84912587     0.85827922
 H     23  22  21     1.083199950011   119.67753119   180.23989159
 H     24  23  22     1.083992045438   120.51004135   180.46471631
 H     25  24  23     1.081475708491   119.78017390   178.59762244
 H     28  27  26     1.087956283123   105.89829289   180.70131386
 H     28  27  26     1.093312849961   111.11928134    61.79663289
 H     28  27  26     1.093338119418   111.03419951   299.58161422
 O     29  19   5     1.214753224746   117.39636638    60.46872638
 H     11  10   8     1.089894237697   110.27268406    61.48285313
 H      2   1   3     1.080529986191   121.55835706   178.57300839
 N     19   5   4     1.440398730719   102.21918579   228.01996771
 O     42  19   5     1.214733618615   122.46287991   245.87282981
 O     42  19   5     1.225571575949   113.85754646    63.84184979

---------------------------
INTERNAL COORDINATES (A.U.)
---------------------------
 C      0   0   0     0.000000000000     0.00000000     0.00000000
 C      1   0   0     2.676923791381     0.00000000     0.00000000
 C      2   1   0     2.563514740688   118.59707050     0.00000000
 N      3   2   1     2.565829823408   121.20470504     1.78228009
 C      4   3   2     2.627424764059   121.77419644   349.99959180
 C      1   2   3     2.568144531749   120.73484379     1.78647051
 C      4   3   2     2.720071585611   120.49744867   202.14315007
 C      7   4   3     2.866698801282   112.04401225   224.27125280
 O      8   7   4     2.275345074936   124.57067532     7.28538152
 O      8   7   4     2.493793022556   110.25631723   183.05071773
 C     10   8   7     2.704694460678   116.36801168   180.49567793
 H      1   2   3     2.048325032713   119.46861895   183.73516486
 H      3   2   1     2.045800347750   123.37986796   180.48769419
 H      5   4   3     2.053844454010   112.48358406   153.54738167
 H      6   1   2     2.042250335423   121.75669660   182.56422826
 H      7   4   3     2.058139093597   110.07029009   342.48256795
 H     11  10   8     2.059738423029   110.03408364   300.16379221
 H     11  10   8     2.053443090960   105.54610073   180.90726763
 C      5   4   3     3.635641299221    97.66714586   248.88426650
 C     19   5   4     2.852387500980    98.02851317   348.52848890
 C     20  19   5     2.850673761060   120.38553552   205.18497953
 C     21  20  19     2.620248583586   124.88440255     8.32425634
 C     22  21  20     2.626562512382   121.75250932   181.68751960
 C     23  22  21     2.612329643712   119.60621002     0.40813163
 C     24  23  22     2.623375002601   120.10646383     1.31609138
 C     25  24  23     2.624868396480   119.89894280   359.23488103
 O     26  25  24     2.553394202303   123.16884611   177.86754314
 C     27  26  25     2.675575314848   118.61588864   359.51574820
 N     19   5   4     2.747213671000   108.14696265   108.59237277
 O     29  19   5     2.308554199937   118.51769618   245.78951876
 H     20  19   5     2.067091844984   102.61421738    89.10527329
 H     22  21  20     2.041537608466   120.84912587     0.85827922
 H     23  22  21     2.046951253798   119.67753119   180.23989159
 H     24  23  22     2.048448097227   120.51004135   180.46471631
 H     25  24  23     2.043692909537   119.78017390   178.59762244
 H     28  27  26     2.055939420781   105.89829289   180.70131386
 H     28  27  26     2.066061865122   111.11928134    61.79663289
 H     28  27  26     2.066109617476   111.03419951   299.58161422
 O     29  19   5     2.295550915067   117.39636638    60.46872638
 H     11  10   8     2.059601624187   110.27268406    61.48285313
 H      2   1   3     2.041905753391   121.55835706   178.57300839
 N     19   5   4     2.721959124707   102.21918579   228.01996771
 O     42  19   5     2.295513864850   122.46287991   245.87282981
 O     42  19   5     2.315994636061   113.85754646    63.84184979

---------------------
BASIS SET INFORMATION
---------------------
There are 4 groups of distinct atoms

 Group   1 Type C   : 11s6p2d1f contracted to 5s3p2d1f pattern {62111/411/11/1}
 Group   2 Type N   : 11s6p2d1f contracted to 5s3p2d1f pattern {62111/411/11/1}
 Group   3 Type O   : 11s6p2d1f contracted to 5s3p2d1f pattern {62111/411/11/1}
 Group   4 Type H   : 5s1p contracted to 3s1p pattern {311/1}

Atom   0C    basis set group =>   1
Atom   1C    basis set group =>   1
Atom   2C    basis set group =>   1
Atom   3N    basis set group =>   2
Atom   4C    basis set group =>   1
Atom   5C    basis set group =>   1
Atom   6C    basis set group =>   1
Atom   7C    basis set group =>   1
Atom   8O    basis set group =>   3
Atom   9O    basis set group =>   3
Atom  10C    basis set group =>   1
Atom  11H    basis set group =>   4
Atom  12H    basis set group =>   4
Atom  13H    basis set group =>   4
Atom  14H    basis set group =>   4
Atom  15H    basis set group =>   4
Atom  16H    basis set group =>   4
Atom  17H    basis set group =>   4
Atom  18C    basis set group =>   1
Atom  19C    basis set group =>   1
Atom  20C    basis set group =>   1
Atom  21C    basis set group =>   1
Atom  22C    basis set group =>   1
Atom  23C    basis set group =>   1
Atom  24C    basis set group =>   1
Atom  25C    basis set group =>   1
Atom  26O    basis set group =>   3
Atom  27C    basis set group =>   1
Atom  28N    basis set group =>   2
Atom  29O    basis set group =>   3
Atom  30H    basis set group =>   4
Atom  31H    basis set group =>   4
Atom  32H    basis set group =>   4
Atom  33H    basis set group =>   4
Atom  34H    basis set group =>   4
Atom  35H    basis set group =>   4
Atom  36H    basis set group =>   4
Atom  37H    basis set group =>   4
Atom  38O    basis set group =>   3
Atom  39H    basis set group =>   4
Atom  40H    basis set group =>   4
Atom  41N    basis set group =>   2
Atom  42O    basis set group =>   3
Atom  43O    basis set group =>   3
---------------------------------
AUXILIARY/J BASIS SET INFORMATION
---------------------------------
There are 4 groups of distinct atoms

 Group   1 Type C   : 12s5p4d2f1g contracted to 6s4p3d1f1g pattern {711111/2111/211/2/1}
 Group   2 Type N   : 12s5p4d2f1g contracted to 6s4p3d1f1g pattern {711111/2111/211/2/1}
 Group   3 Type O   : 12s5p4d2f1g contracted to 6s4p3d1f1g pattern {711111/2111/211/2/1}
 Group   4 Type H   : 5s2p1d contracted to 3s1p1d pattern {311/2/1}

Atom   0C    basis set group =>   1
Atom   1C    basis set group =>   1
Atom   2C    basis set group =>   1
Atom   3N    basis set group =>   2
Atom   4C    basis set group =>   1
Atom   5C    basis set group =>   1
Atom   6C    basis set group =>   1
Atom   7C    basis set group =>   1
Atom   8O    basis set group =>   3
Atom   9O    basis set group =>   3
Atom  10C    basis set group =>   1
Atom  11H    basis set group =>   4
Atom  12H    basis set group =>   4
Atom  13H    basis set group =>   4
Atom  14H    basis set group =>   4
Atom  15H    basis set group =>   4
Atom  16H    basis set group =>   4
Atom  17H    basis set group =>   4
Atom  18C    basis set group =>   1
Atom  19C    basis set group =>   1
Atom  20C    basis set group =>   1
Atom  21C    basis set group =>   1
Atom  22C    basis set group =>   1
Atom  23C    basis set group =>   1
Atom  24C    basis set group =>   1
Atom  25C    basis set group =>   1
Atom  26O    basis set group =>   3
Atom  27C    basis set group =>   1
Atom  28N    basis set group =>   2
Atom  29O    basis set group =>   3
Atom  30H    basis set group =>   4
Atom  31H    basis set group =>   4
Atom  32H    basis set group =>   4
Atom  33H    basis set group =>   4
Atom  34H    basis set group =>   4
Atom  35H    basis set group =>   4
Atom  36H    basis set group =>   4
Atom  37H    basis set group =>   4
Atom  38O    basis set group =>   3
Atom  39H    basis set group =>   4
Atom  40H    basis set group =>   4
Atom  41N    basis set group =>   2
Atom  42O    basis set group =>   3
Atom  43O    basis set group =>   3


           ************************************************************
           *        Program running with 24 parallel MPI-processes    *
           *              working on a common directory               *
           ************************************************************
------------------------------------------------------------------------------
                           ORCA GTO INTEGRAL CALCULATION
                           -- RI-GTO INTEGRALS CHOSEN --
------------------------------------------------------------------------------
------------------------------------------------------------------------------
                   ___                                                        
                  /   \      - P O W E R E D   B Y -                         
                 /     \                                                     
                 |  |  |   _    _      __       _____    __    __             
                 |  |  |  | |  | |    /  \     |  _  \  |  |  /  |          
                  \  \/   | |  | |   /    \    | | | |  |  | /  /          
                 / \  \   | |__| |  /  /\  \   | |_| |  |  |/  /          
                |  |  |   |  __  | /  /__\  \  |    /   |      \           
                |  |  |   | |  | | |   __   |  |    \   |  |\   \          
                \     /   | |  | | |  |  |  |  | |\  \  |  | \   \       
                 \___/    |_|  |_| |__|  |__|  |_| \__\ |__|  \__/        
                                                                              
                      - O R C A' S   B I G   F R I E N D -                    
                                      &                                       
                       - I N T E G R A L  F E E D E R -                       
                                                                              
 v1 FN, 2020, v2 2021                                                         
------------------------------------------------------------------------------


Reading SHARK input file TS1_NO2/TS1_NO2.SHARKINP.tmp ... ok
----------------------
SHARK INTEGRAL PACKAGE
----------------------

Number of atoms                             ...     44
Number of basis functions                   ...    939
Number of shells                            ...    365
Maximum angular momentum                    ...      3
Integral batch strategy                     ... SHARK/LIBINT Hybrid
RI-J (if used) integral strategy            ... SPLIT-RIJ (Revised 2003 algorithm where possible)
Printlevel                                  ...      1
Contraction scheme used                     ... SEGMENTED contraction
Coulomb Range Separation                    ... NOT USED
Exchange Range Separation                   ... NOT USED
Finite Nucleus Model                        ... NOT USED
Auxiliary Coulomb fitting basis             ... AVAILABLE
   # of basis functions in Aux-J            ...   1510
   # of shells in Aux-J                     ...    490
   Maximum angular momentum in Aux-J        ...      4
Auxiliary J/K fitting basis                 ... NOT available
Auxiliary Correlation fitting basis         ... NOT available
Auxiliary 'external' fitting basis          ... NOT available
Integral threshold                          ...     2.500000e-11
Primitive cut-off                           ...     2.500000e-12
Primitive pair pre-selection threshold      ...     2.500000e-12

Calculating pre-screening integrals         ... done (  0.1 sec) Dimension = 365
Organizing shell pair data                  ... done (  0.6 sec)
Shell pair information
Total number of shell pairs                 ...     66795
Shell pairs after pre-screening             ...     48397
Total number of primitive shell pairs       ...    207048
Primitive shell pairs kept                  ...     97633
          la=0 lb=0:  12020 shell pairs
          la=1 lb=0:  13792 shell pairs
          la=1 lb=1:   3970 shell pairs
          la=2 lb=0:   6977 shell pairs
          la=2 lb=1:   4102 shell pairs
          la=2 lb=2:   1086 shell pairs
          la=3 lb=0:   3255 shell pairs
          la=3 lb=1:   1959 shell pairs
          la=3 lb=2:    984 shell pairs
          la=3 lb=3:    252 shell pairs

Calculating one electron integrals          ... done (  0.1 sec)
Calculating RI/J V-Matrix + Cholesky decomp.... done (  0.2 sec)
Calculating Nuclear repulsion               ... done (  0.0 sec) ENN=   2784.742779114719 Eh

SHARK setup successfully completed in   1.7 seconds

Maximum memory used throughout the entire GTOINT-calculation: 73.2 MB


           ************************************************************
           *        Program running with 24 parallel MPI-processes    *
           *              working on a common directory               *
           ************************************************************
-------------------------------------------------------------------------------
                                 ORCA SCF
-------------------------------------------------------------------------------

------------
SCF SETTINGS
------------
Hamiltonian:
 Density Functional     Method          .... DFT(GTOs)
 Exchange Functional    Exchange        .... PBE
   PBE kappa parameter   XKappa         ....  0.804000
   PBE mue parameter    XMuePBE         ....  0.219520
 Correlation Functional Correlation     .... PBE
   PBE beta parameter  CBetaPBE         ....  0.066725
 LDA part of GGA corr.  LDAOpt          .... PW91-LDA
 Gradients option       PostSCFGGA      .... off
 Hybrid DFT is turned on
   Fraction HF Exchange ScalHFX         ....  0.250000
   Scaling of DF-GGA-X  ScalDFX         ....  0.750000
   Scaling of DF-GGA-C  ScalDFC         ....  1.000000
   Scaling of DF-LDA-C  ScalLDAC        ....  1.000000
   Perturbative correction              ....  0.000000
   Density functional embedding theory  .... OFF
   NL short-range parameter             ....  6.900000
 RI-approximation to the Coulomb term is turned on
   Number of AuxJ basis functions       .... 1510
   RIJ-COSX (HFX calculated with COS-X)).... on


General Settings:
 Integral files         IntName         .... TS1_NO2/TS1_NO2
 Hartree-Fock type      HFTyp           .... RHF
 Total Charge           Charge          ....    0
 Multiplicity           Mult            ....    1
 Number of Electrons    NEL             ....  196
 Basis Dimension        Dim             ....  939
 Nuclear Repulsion      ENuc            ....   2784.7427791147 Eh

Convergence Acceleration:
 DIIS                   CNVDIIS         .... on
   Start iteration      DIISMaxIt       ....    12
   Startup error        DIISStart       ....  0.200000
   # of expansion vecs  DIISMaxEq       ....     5
   Bias factor          DIISBfac        ....   1.050
   Max. coefficient     DIISMaxC        ....  10.000
 Trust-Rad. Augm. Hess. CNVTRAH         .... auto
   Auto Start mean grad. ratio tolernc. ....  1.125000
   Auto Start start iteration           ....    20
   Auto Start num. interpolation iter.  ....    10
   Max. Number of Micro iterations      ....    16
   Max. Number of Macro iterations      .... Maxiter - #DIIS iter
   Number of Davidson start vectors     ....     2
   Converg. threshold I  (grad. norm)   ....   1.000e-05
   Converg. threshold II (energy diff.) ....   1.000e-08
   Grad. Scal. Fac. for Micro threshold ....   0.100
   Minimum threshold for Micro iter.    ....   0.010
   NR start threshold (gradient norm)   ....   0.001
   Initial trust radius                 ....   0.400
   Minimum AH scaling param. (alpha)    ....   1.000
   Maximum AH scaling param. (alpha)    .... 1000.000
   Orbital update algorithm             .... Taylor
   White noise on init. David. guess    .... on
   Maximum white noise                  ....   0.010
   Quad. conv. algorithm                .... NR
 SOSCF                  CNVSOSCF        .... on
   Start iteration      SOSCFMaxIt      ....   150
   Startup grad/error   SOSCFStart      ....  0.003300
 Level Shifting         CNVShift        .... on
   Level shift para.    LevelShift      ....    0.2500
   Turn off err/grad.   ShiftErr        ....    0.0010
 Zerner damping         CNVZerner       .... off
 Static damping         CNVDamp         .... on
   Fraction old density DampFac         ....    0.7000
   Max. Damping (<1)    DampMax         ....    0.9800
   Min. Damping (>=0)   DampMin         ....    0.0000
   Turn off err/grad.   DampErr         ....    0.1000
 Fernandez-Rico         CNVRico         .... off

SCF Procedure:
 Maximum # iterations   MaxIter         ....   800
 SCF integral mode      SCFMode         .... Direct
   Integral package                     .... SHARK and LIBINT hybrid scheme
 Reset frequency        DirectResetFreq ....    20
 Integral Threshold     Thresh          ....  2.500e-11 Eh
 Primitive CutOff       TCut            ....  2.500e-12 Eh

Convergence Tolerance:
 Convergence Check Mode ConvCheckMode   .... Total+1el-Energy
 Convergence forced     ConvForced      .... 0
 Energy Change          TolE            ....  1.000e-08 Eh
 1-El. energy change                    ....  1.000e-05 Eh
 Orbital Gradient       TolG            ....  1.000e-05
 Orbital Rotation angle TolX            ....  1.000e-05
 DIIS Error             TolErr          ....  5.000e-07


Diagonalization of the overlap matrix:
Smallest eigenvalue                        ... 5.222e-06
Time for diagonalization                   ...    0.287 sec
Threshold for overlap eigenvalues          ... 1.000e-08
Number of eigenvalues below threshold      ... 0
Time for construction of square roots      ...    0.159 sec
Total time needed                          ...    0.456 sec

Time for model grid setup =    0.315 sec

------------------------------
INITIAL GUESS: MODEL POTENTIAL
------------------------------
Loading Hartree-Fock densities                     ... done
Calculating cut-offs                               ... done
Initializing the effective Hamiltonian             ... done
Setting up the integral package (SHARK)            ... done
Starting the Coulomb interaction                   ... done (   0.5 sec)
Reading the grid                                   ... done
Mapping shells                                     ... done
Starting the XC term evaluation                    ... done (   0.2 sec)
  promolecular density results
     # of electrons  =    195.994409490
     EX              =   -168.806760050
     EC              =     -6.695978424
     EX+EC           =   -175.502738474
Transforming the Hamiltonian                       ... done (   0.2 sec)
Diagonalizing the Hamiltonian                      ... done (   0.3 sec)
Back transforming the eigenvectors                 ... done (   0.1 sec)
Now organizing SCF variables                       ... done
                      ------------------
                      INITIAL GUESS DONE (   1.7 sec)
                      ------------------
-------------------
DFT GRID GENERATION
-------------------

General Integration Accuracy     IntAcc      ... 4.388
Radial Grid Type                 RadialGrid  ... OptM3 with GC (2021)
Angular Grid (max. ang.)         AngularGrid ... 4 (Lebedev-302)
Angular grid pruning method      GridPruning ... 4 (adaptive)
Weight generation scheme         WeightScheme... Becke
Basis function cutoff            BFCut       ... 1.0000e-11
Integration weight cutoff        WCut        ... 1.0000e-14
Angular grids for H and He will be reduced by one unit
Partially contracted basis set               ... off
Rotationally invariant grid construction     ... off

Total number of grid points                  ...   214709
Total number of batches                      ...     3378
Average number of points per batch           ...       63
Average number of grid points per atom       ...     4880
Time for grid setup =    1.340 sec

--------------------
COSX GRID GENERATION
--------------------

GRIDX 1
-------
General Integration Accuracy     IntAcc      ... 3.816
Radial Grid Type                 RadialGrid  ... OptM3 with GC (2021)
Angular Grid (max. ang.)         AngularGrid ... 1 (Lebedev-50)
Angular grid pruning method      GridPruning ... 4 (adaptive)
Weight generation scheme         WeightScheme... Becke
Basis function cutoff            BFCut       ... 1.0000e-11
Integration weight cutoff        WCut        ... 1.0000e-14
Angular grids for H and He will be reduced by one unit
Partially contracted basis set               ... on
Rotationally invariant grid construction     ... off

Total number of grid points                  ...    27205
Total number of batches                      ...      447
Average number of points per batch           ...       60
Average number of grid points per atom       ...      618
UseSFitting                                  ... on

GRIDX 2
-------
General Integration Accuracy     IntAcc      ... 4.020
Radial Grid Type                 RadialGrid  ... OptM3 with GC (2021)
Angular Grid (max. ang.)         AngularGrid ... 2 (Lebedev-110)
Angular grid pruning method      GridPruning ... 4 (adaptive)
Weight generation scheme         WeightScheme... Becke
Basis function cutoff            BFCut       ... 1.0000e-11
Integration weight cutoff        WCut        ... 1.0000e-14
Angular grids for H and He will be reduced by one unit
Partially contracted basis set               ... on
Rotationally invariant grid construction     ... off

Total number of grid points                  ...    59392
Total number of batches                      ...      950
Average number of points per batch           ...       62
Average number of grid points per atom       ...     1350
UseSFitting                                  ... on

GRIDX 3
-------
General Integration Accuracy     IntAcc      ... 4.338
Radial Grid Type                 RadialGrid  ... OptM3 with GC (2021)
Angular Grid (max. ang.)         AngularGrid ... 3 (Lebedev-194)
Angular grid pruning method      GridPruning ... 4 (adaptive)
Weight generation scheme         WeightScheme... Becke
Basis function cutoff            BFCut       ... 1.0000e-11
Integration weight cutoff        WCut        ... 1.0000e-14
Angular grids for H and He will be reduced by one unit
Partially contracted basis set               ... on
Rotationally invariant grid construction     ... off

Total number of grid points                  ...   129708
Total number of batches                      ...     2047
Average number of points per batch           ...       63
Average number of grid points per atom       ...     2948
UseSFitting                                  ... on

Time for X-Grid setup             =    2.714 sec


--------------------
CPCM SOLVATION MODEL
--------------------
CPCM parameters:
  Epsilon                                         ...      47.2000
  Refrac                                          ...       1.4790
  Rsolv                                           ...       1.3000
  Surface type                                    ... GAUSSIAN VDW
  Epsilon function type                           ...         CPCM
Radii:
 Radius for C  used is    3.8550 Bohr (=   2.0400 Ang.)
 Radius for N  used is    3.5149 Bohr (=   1.8600 Ang.)
 Radius for O  used is    3.4469 Bohr (=   1.8240 Ang.)
 Radius for H  used is    2.4944 Bohr (=   1.3200 Ang.)
Calculating surface                               ...        done! (  0.0s)
GEPOL surface points                              ...         2176
GEPOL Volume                                      ...    2697.3655
GEPOL Surface-area                                ...    1310.7070
Calculating surface distance matrix               ...        done! (  0.1s)
Performing Cholesky decomposition & store         ...        done! (  0.3s)
Overall time for CPCM initialization              ...                 0.4s
--------------
SCF ITERATIONS
--------------
ITER       Energy         Delta-E        Max-DP      RMS-DP      [F,P]     Damp
               ***  Starting incremental Fock matrix formation  ***
  0  -1347.0112826248   0.000000000000 0.31843114  0.00091825  0.2710737 0.7000
  1  -1347.3162724477  -0.304989822980 0.13600367  0.00057920  0.1103586 0.7000
                               ***Turning on DIIS***
  2  -1347.4263566654  -0.110084217630 0.17629841  0.00114984  0.0355516 0.0000
  3  -1347.6258676730  -0.199511007645 0.15976782  0.00048061  0.0499977 0.0000
  4  -1347.6551846175  -0.029316944491 0.03794994  0.00024915  0.0168338 0.0000
  5  -1347.6584703178  -0.003285700345 0.02364523  0.00007061  0.0035104 0.0000
                      *** Initiating the SOSCF procedure ***
                           *** Shutting down DIIS ***
                      *** Re-Reading the Fockian *** 
                      *** Removing any level shift *** 
ITER      Energy       Delta-E        Grad      Rot      Max-DP    RMS-DP
  6  -1347.65858634  -0.0001160224  0.000182  0.000182  0.006099  0.000021
               *** Restarting incremental Fock matrix formation ***
  7  -1347.65865572  -0.0000693798  0.000142  0.000567  0.003107  0.000021
  8  -1347.65865441   0.0000013053  0.000286  0.000396  0.000767  0.000007
  9  -1347.65865878  -0.0000043669  0.000076  0.000201  0.001008  0.000005
 10  -1347.65865837   0.0000004159  0.000097  0.000110  0.001041  0.000003
 11  -1347.65865902  -0.0000006503  0.000009  0.000027  0.000665  0.000002
 12  -1347.65865901   0.0000000072  0.000013  0.000017  0.000283  0.000001
 13  -1347.65865901  -0.0000000042  0.000003  0.000006  0.000773  0.000002
 14  -1347.65865899   0.0000000277  0.000003  0.000003  0.000189  0.000001
                  ***Gradient check signals convergence***
              ***Rediagonalizing the Fockian in SOSCF/NRSCF***

               *****************************************************
               *                     SUCCESS                       *
               *           SCF CONVERGED AFTER  15 CYCLES          *
               *****************************************************

Old exchange energy                            =    -42.892619013 Eh
New exchange energy                            =    -42.892636069 Eh
Exchange energy change after final integration =     -0.000017056 Eh
Total energy after final integration           =  -1347.658676120 Eh
Final COS-X integration done in                =    18.046 sec

----------------
TOTAL SCF ENERGY
----------------

Total Energy       :        -1347.65867612 Eh          -36671.65693 eV

Components:
Nuclear Repulsion  :         2784.74277911 Eh           75776.70343 eV
Electronic Energy  :        -4132.40145523 Eh         -112448.36036 eV
One Electron Energy:        -7379.73773463 Eh         -200812.87289 eV
Two Electron Energy:         3247.33627939 Eh           88364.51253 eV
Max COSX asymmetry :            0.00000211 Eh               0.00006 eV
CPCM Dielectric    :           -0.03733598 Eh              -1.01596 eV

Virial components:
Potential Energy   :        -2689.66859252 Eh          -73189.60329 eV
Kinetic Energy     :         1342.00991640 Eh           36517.94636 eV
Virial Ratio       :            2.00420918


DFT components:
N(Alpha)           :       98.000073767281 electrons
N(Beta)            :       98.000073767281 electrons
N(Total)           :      196.000147534562 electrons
E(X)               :     -128.574565643442 Eh       
E(C)               :       -6.682864573286 Eh       
E(XC)              :     -135.257430216728 Eh       
DFET-embed. en.    :        0.000000000000 Eh       
CPCM Solvation Model Properties:
Surface-charge          :           -0.02812030
Charge-correction       :           -0.00010546 Eh              -0.00287 eV
Free-energy (cav+disp)  :  This term is not implemented in the current solvation scheme

---------------
SCF CONVERGENCE
---------------

  Last Energy change         ...   -7.8148e-08  Tolerance :   1.0000e-08
  Last MAX-Density change    ...    1.6653e-15  Tolerance :   1.0000e-07
  Last RMS-Density change    ...    1.3488e-17  Tolerance :   5.0000e-09
  Last Orbital Gradient      ...    6.3945e-07  Tolerance :   1.0000e-05
  Last Orbital Rotation      ...    2.0165e-06  Tolerance :   1.0000e-05

             **** THE GBW FILE WAS UPDATED (TS1_NO2/TS1_NO2.gbw) ****
             **** DENSITY TS1_NO2/TS1_NO2.scfp WAS UPDATED ****
             **** ENERGY FILE WAS UPDATED (TS1_NO2/TS1_NO2.en.tmp) ****
             **** THE GBW FILE WAS UPDATED (TS1_NO2/TS1_NO2.gbw) ****
             **** DENSITY TS1_NO2/TS1_NO2.scfp WAS UPDATED ****
----------------
ORBITAL ENERGIES
----------------

  NO   OCC          E(Eh)            E(eV) 
   0   2.0000     -19.267137      -524.2854 
   1   2.0000     -19.249936      -523.8174 
   2   2.0000     -19.249881      -523.8159 
   3   2.0000     -19.249583      -523.8078 
   4   2.0000     -19.249518      -523.8060 
   5   2.0000     -19.246995      -523.7374 
   6   2.0000     -19.207526      -522.6633 
   7   2.0000     -14.633844      -398.2072 
   8   2.0000     -14.629725      -398.0950 
   9   2.0000     -14.465847      -393.6357 
  10   2.0000     -10.366708      -282.0925 
  11   2.0000     -10.337575      -281.2997 
  12   2.0000     -10.310981      -280.5761 
  13   2.0000     -10.299655      -280.2679 
  14   2.0000     -10.293547      -280.1016 
  15   2.0000     -10.287814      -279.9457 
  16   2.0000     -10.279050      -279.7072 
  17   2.0000     -10.272254      -279.5222 
  18   2.0000     -10.268531      -279.4209 
  19   2.0000     -10.253710      -279.0176 
  20   2.0000     -10.249803      -278.9113 
  21   2.0000     -10.242729      -278.7188 
  22   2.0000     -10.236335      -278.5448 
  23   2.0000     -10.233538      -278.4687 
  24   2.0000     -10.230190      -278.3776 
  25   2.0000     -10.226923      -278.2887 
  26   2.0000     -10.222531      -278.1692 
  27   2.0000      -1.291226       -35.1360 
  28   2.0000      -1.275814       -34.7167 
  29   2.0000      -1.159365       -31.5479 
  30   2.0000      -1.112324       -30.2679 
  31   2.0000      -1.105746       -30.0889 
  32   2.0000      -1.098206       -29.8837 
  33   2.0000      -1.069714       -29.1084 
  34   2.0000      -1.051834       -28.6219 
  35   2.0000      -0.921124       -25.0651 
  36   2.0000      -0.890200       -24.2236 
  37   2.0000      -0.876292       -23.8451 
  38   2.0000      -0.825816       -22.4716 
  39   2.0000      -0.821376       -22.3508 
  40   2.0000      -0.791724       -21.5439 
  41   2.0000      -0.780629       -21.2420 
  42   2.0000      -0.758450       -20.6385 
  43   2.0000      -0.752080       -20.4651 
  44   2.0000      -0.727263       -19.7898 
  45   2.0000      -0.711767       -19.3682 
  46   2.0000      -0.691458       -18.8155 
  47   2.0000      -0.667255       -18.1569 
  48   2.0000      -0.639636       -17.4054 
  49   2.0000      -0.623638       -16.9701 
  50   2.0000      -0.613968       -16.7069 
  51   2.0000      -0.605597       -16.4791 
  52   2.0000      -0.597761       -16.2659 
  53   2.0000      -0.585772       -15.9397 
  54   2.0000      -0.571114       -15.5408 
  55   2.0000      -0.563863       -15.3435 
  56   2.0000      -0.559242       -15.2177 
  57   2.0000      -0.556247       -15.1362 
  58   2.0000      -0.549614       -14.9558 
  59   2.0000      -0.542819       -14.7708 
  60   2.0000      -0.533764       -14.5245 
  61   2.0000      -0.520230       -14.1562 
  62   2.0000      -0.514737       -14.0067 
  63   2.0000      -0.512465       -13.9449 
  64   2.0000      -0.508342       -13.8327 
  65   2.0000      -0.495865       -13.4932 
  66   2.0000      -0.491859       -13.3842 
  67   2.0000      -0.481491       -13.1020 
  68   2.0000      -0.477139       -12.9836 
  69   2.0000      -0.468693       -12.7538 
  70   2.0000      -0.459668       -12.5082 
  71   2.0000      -0.457314       -12.4441 
  72   2.0000      -0.449404       -12.2289 
  73   2.0000      -0.437556       -11.9065 
  74   2.0000      -0.427312       -11.6277 
  75   2.0000      -0.425212       -11.5706 
  76   2.0000      -0.407078       -11.0772 
  77   2.0000      -0.398503       -10.8438 
  78   2.0000      -0.393722       -10.7137 
  79   2.0000      -0.387018       -10.5313 
  80   2.0000      -0.384105       -10.4520 
  81   2.0000      -0.379075       -10.3152 
  82   2.0000      -0.376850       -10.2546 
  83   2.0000      -0.361297        -9.8314 
  84   2.0000      -0.353785        -9.6270 
  85   2.0000      -0.350550        -9.5390 
  86   2.0000      -0.349274        -9.5042 
  87   2.0000      -0.344847        -9.3838 
  88   2.0000      -0.341964        -9.3053 
  89   2.0000      -0.334454        -9.1010 
  90   2.0000      -0.331678        -9.0254 
  91   2.0000      -0.329947        -8.9783 
  92   2.0000      -0.322887        -8.7862 
  93   2.0000      -0.315178        -8.5764 
  94   2.0000      -0.307563        -8.3692 
  95   2.0000      -0.272154        -7.4057 
  96   2.0000      -0.242683        -6.6037 
  97   2.0000      -0.230309        -6.2670 
  98   0.0000      -0.088882        -2.4186 
  99   0.0000      -0.082100        -2.2340 
 100   0.0000      -0.043740        -1.1902 
 101   0.0000      -0.018334        -0.4989 
 102   0.0000      -0.000884        -0.0241 
 103   0.0000       0.003437         0.0935 
 104   0.0000       0.028931         0.7872 
 105   0.0000       0.046080         1.2539 
 106   0.0000       0.063310         1.7228 
 107   0.0000       0.066696         1.8149 
 108   0.0000       0.068205         1.8559 
 109   0.0000       0.082016         2.2318 
 110   0.0000       0.084934         2.3112 
 111   0.0000       0.092218         2.5094 
 112   0.0000       0.094524         2.5721 
 113   0.0000       0.101630         2.7655 
 114   0.0000       0.106934         2.9098 
 115   0.0000       0.110067         2.9951 
 116   0.0000       0.116093         3.1590 
 117   0.0000       0.120094         3.2679 
 118   0.0000       0.124981         3.4009 
 119   0.0000       0.129313         3.5188 
 120   0.0000       0.131808         3.5867 
 121   0.0000       0.136895         3.7251 
 122   0.0000       0.140751         3.8300 
 123   0.0000       0.145650         3.9633 
 124   0.0000       0.147929         4.0253 
 125   0.0000       0.152666         4.1543 
 126   0.0000       0.153514         4.1773 
 127   0.0000       0.157416         4.2835 
 128   0.0000       0.163806         4.4574 
 129   0.0000       0.165184         4.4949 
 130   0.0000       0.172376         4.6906 
 131   0.0000       0.183599         4.9960 
 132   0.0000       0.184505         5.0206 
 133   0.0000       0.193608         5.2683 
 134   0.0000       0.200322         5.4511 
 135   0.0000       0.205014         5.5787 
 136   0.0000       0.207648         5.6504 
 137   0.0000       0.216761         5.8984 
 138   0.0000       0.218783         5.9534 
 139   0.0000       0.224353         6.1049 
 140   0.0000       0.227412         6.1882 
 141   0.0000       0.232464         6.3257 
 142   0.0000       0.233827         6.3627 
 143   0.0000       0.237631         6.4663 
 144   0.0000       0.241118         6.5611 
 145   0.0000       0.241760         6.5786 
 146   0.0000       0.248519         6.7625 
 147   0.0000       0.250060         6.8045 
 148   0.0000       0.260229         7.0812 
 149   0.0000       0.262134         7.1330 
 150   0.0000       0.265208         7.2167 
 151   0.0000       0.270469         7.3598 
 152   0.0000       0.273145         7.4327 
 153   0.0000       0.281779         7.6676 
 154   0.0000       0.285500         7.7688 
 155   0.0000       0.287941         7.8353 
 156   0.0000       0.295870         8.0510 
 157   0.0000       0.296918         8.0796 
 158   0.0000       0.303551         8.2600 
 159   0.0000       0.310021         8.4361 
 160   0.0000       0.312225         8.4961 
 161   0.0000       0.315688         8.5903 
 162   0.0000       0.319977         8.7070 
 163   0.0000       0.322519         8.7762 
 164   0.0000       0.325983         8.8704 
 165   0.0000       0.328301         8.9335 
 166   0.0000       0.333523         9.0756 
 167   0.0000       0.336932         9.1684 
 168   0.0000       0.338442         9.2095 
 169   0.0000       0.345200         9.3934 
 170   0.0000       0.353817         9.6279 
 171   0.0000       0.357865         9.7380 
 172   0.0000       0.362687         9.8692 
 173   0.0000       0.369017        10.0415 
 174   0.0000       0.370564        10.0836 
 175   0.0000       0.373042        10.1510 
 176   0.0000       0.378265        10.2931 
 177   0.0000       0.382355        10.4044 
 178   0.0000       0.388928        10.5833 
 179   0.0000       0.392625        10.6839 
 180   0.0000       0.396639        10.7931 
 181   0.0000       0.400158        10.8888 
 182   0.0000       0.405718        11.0401 
 183   0.0000       0.408028        11.1030 
 184   0.0000       0.412677        11.2295 
 185   0.0000       0.417162        11.3516 
 186   0.0000       0.419111        11.4046 
 187   0.0000       0.425471        11.5776 
 188   0.0000       0.427589        11.6353 
 189   0.0000       0.430277        11.7084 
 190   0.0000       0.434365        11.8197 
 191   0.0000       0.436410        11.8753 
 192   0.0000       0.442217        12.0333 
 193   0.0000       0.446522        12.1505 
 194   0.0000       0.452070        12.3015 
 195   0.0000       0.453374        12.3369 
 196   0.0000       0.455882        12.4052 
 197   0.0000       0.457720        12.4552 
 198   0.0000       0.460383        12.5276 
 199   0.0000       0.464898        12.6505 
 200   0.0000       0.469268        12.7694 
 201   0.0000       0.473565        12.8863 
 202   0.0000       0.478035        13.0080 
 203   0.0000       0.483071        13.1450 
 204   0.0000       0.485407        13.2086 
 205   0.0000       0.488142        13.2830 
 206   0.0000       0.489929        13.3316 
 207   0.0000       0.495967        13.4959 
 208   0.0000       0.496828        13.5194 
 209   0.0000       0.501065        13.6347 
 210   0.0000       0.502530        13.6745 
 211   0.0000       0.507318        13.8048 
 212   0.0000       0.511703        13.9242 
 213   0.0000       0.513312        13.9679 
 214   0.0000       0.522657        14.2222 
 215   0.0000       0.527063        14.3421 
 216   0.0000       0.529099        14.3975 
 217   0.0000       0.532289        14.4843 
 218   0.0000       0.537582        14.6284 
 219   0.0000       0.544591        14.8191 
 220   0.0000       0.550960        14.9924 
 221   0.0000       0.555571        15.1179 
 222   0.0000       0.561256        15.2726 
 223   0.0000       0.564359        15.3570 
 224   0.0000       0.567192        15.4341 
 225   0.0000       0.576662        15.6918 
 226   0.0000       0.580413        15.7938 
 227   0.0000       0.591745        16.1022 
 228   0.0000       0.594992        16.1906 
 229   0.0000       0.602337        16.3904 
 230   0.0000       0.606802        16.5119 
 231   0.0000       0.610248        16.6057 
 232   0.0000       0.619934        16.8693 
 233   0.0000       0.627778        17.0827 
 234   0.0000       0.634824        17.2744 
 235   0.0000       0.642300        17.4779 
 236   0.0000       0.643470        17.5097 
 237   0.0000       0.648333        17.6420 
 238   0.0000       0.654334        17.8053 
 239   0.0000       0.659290        17.9402 
 240   0.0000       0.662130        18.0175 
 241   0.0000       0.667506        18.1638 
 242   0.0000       0.674999        18.3676 
 243   0.0000       0.676698        18.4139 
 244   0.0000       0.685534        18.6543 
 245   0.0000       0.689771        18.7696 
 246   0.0000       0.692868        18.8539 
 247   0.0000       0.696005        18.9393 
 248   0.0000       0.705453        19.1964 
 249   0.0000       0.708698        19.2846 
 250   0.0000       0.713639        19.4191 
 251   0.0000       0.720373        19.6024 
 252   0.0000       0.727074        19.7847 
 253   0.0000       0.729850        19.8602 
 254   0.0000       0.734897        19.9976 
 255   0.0000       0.743752        20.2385 
 256   0.0000       0.749083        20.3836 
 257   0.0000       0.759685        20.6721 
 258   0.0000       0.761154        20.7120 
 259   0.0000       0.767835        20.8939 
 260   0.0000       0.776834        21.1387 
 261   0.0000       0.780448        21.2371 
 262   0.0000       0.781693        21.2710 
 263   0.0000       0.794319        21.6145 
 264   0.0000       0.795405        21.6441 
 265   0.0000       0.803659        21.8687 
 266   0.0000       0.815388        22.1878 
 267   0.0000       0.820849        22.3364 
 268   0.0000       0.822197        22.3731 
 269   0.0000       0.827126        22.5073 
 270   0.0000       0.830375        22.5957 
 271   0.0000       0.847794        23.0697 
 272   0.0000       0.850992        23.1567 
 273   0.0000       0.859189        23.3797 
 274   0.0000       0.863183        23.4884 
[...]
 23:    210.15   0.000328    1.66  0.000487  ( 0.015338 -0.003956 -0.015364)
 24:    230.84   0.003862   19.52  0.005221  ( 0.027913  0.037693 -0.054965)
 25:    248.49   0.001386    7.01  0.001741  (-0.012196 -0.012094  0.038025)
 26:    262.23   0.002135   10.79  0.002541  ( 0.025603 -0.024887  0.035582)
 27:    282.37   0.001740    8.79  0.001922  (-0.043803  0.001936 -0.000110)
 28:    296.23   0.002213   11.18  0.002331  ( 0.046529 -0.000900 -0.012851)
 29:    308.58   0.000146    0.74  0.000148  (-0.008281  0.006194 -0.006376)
 30:    320.81   0.001501    7.59  0.001460  ( 0.003198  0.021372 -0.031514)
 31:    342.43   0.000010    0.05  0.000009  ( 0.001629 -0.001946  0.001637)
 32:    365.66   0.002769   13.99  0.002363  (-0.034861  0.030379  0.014986)
 33:    414.56   0.006210   31.38  0.004675  ( 0.044886  0.000578 -0.051572)
 34:    430.51   0.000302    1.52  0.000219  (-0.010881 -0.004133 -0.009119)
 35:    457.15   0.001788    9.04  0.001221  ( 0.022942 -0.024504 -0.009689)
 36:    466.25   0.000218    1.10  0.000146  (-0.003760 -0.006141 -0.009701)
 37:    488.97   0.001439    7.27  0.000918  (-0.016805 -0.012019  0.022164)
 38:    539.41   0.005188   26.22  0.003002  ( 0.011110  0.026930 -0.046400)
 39:    550.47   0.002328   11.77  0.001320  (-0.018770  0.030972  0.002873)
 40:    582.45   0.004810   24.31  0.002577  (-0.049114 -0.011478  0.005775)
 41:    585.44   0.007664   38.73  0.004085  ( 0.010808  0.020844 -0.059445)
 42:    603.61   0.005135   25.95  0.002655  ( 0.026861 -0.029053  0.033005)
 43:    634.64   0.022589  114.15  0.011107  (-0.048412 -0.086336  0.036188)
 44:    648.85   0.002834   14.32  0.001363  (-0.009075 -0.018722 -0.030497)
 45:    652.48   0.000055    0.28  0.000026  ( 0.005013 -0.001113  0.000277)
 46:    685.44   0.002698   13.64  0.001229  ( 0.009258 -0.032597  0.008961)
 47:    709.22   0.026737  135.12  0.011765  ( 0.042018  0.082655 -0.056278)
 48:    748.06   0.015493   78.29  0.006463  ( 0.043563  0.066875 -0.009637)
 49:    756.59   0.029605  149.61  0.012211  ( 0.025191  0.107477  0.005015)
 50:    765.21   0.014448   73.02  0.005892  (-0.007390  0.073283 -0.021617)
 51:    768.62   0.011253   56.87  0.004569  (-0.034411 -0.003505  0.058071)
 52:    783.41   0.006121   30.93  0.002438  (-0.026944  0.025363  0.032697)
 53:    805.98   0.002939   14.85  0.001138  (-0.025298 -0.008327  0.020703)
 54:    822.01   0.006496   32.83  0.002466  (-0.035231 -0.028323  0.020562)
 55:    837.53   0.002379   12.02  0.000886  (-0.012671  0.026942 -0.000182)
 56:    843.77   0.015846   80.08  0.005861  (-0.018489  0.059071  0.045050)
 57:    858.06   0.007543   38.12  0.002743  ( 0.049871  0.009515 -0.012869)
 58:    873.40   0.002693   13.61  0.000962  ( 0.008541 -0.002586  0.029711)
 59:    879.07   0.010589   53.51  0.003759  (-0.003671  0.040948 -0.045485)
 60:    924.58   0.005727   28.94  0.001933  ( 0.031274 -0.019114  0.024281)
 61:    942.50   0.007149   36.13  0.002367  (-0.032256  0.006508  0.035836)
 62:    948.01   0.000851    4.30  0.000280  (-0.000391 -0.014713  0.007973)
 63:    968.78   0.000729    3.69  0.000235  ( 0.015124 -0.001747 -0.001767)
 64:    985.53   0.000105    0.53  0.000033  ( 0.001278  0.005530 -0.001031)
 65:   1008.23   0.007009   35.42  0.002169  (-0.015711 -0.025691  0.035532)
 66:   1015.32   0.002354   11.90  0.000724  ( 0.012304 -0.023878  0.001427)
 67:   1015.86   0.002714   13.71  0.000834  ( 0.009342 -0.023749  0.013504)
 68:   1044.90   0.012466   63.00  0.003723  (-0.026824  0.045307  0.030835)
 69:   1056.29   0.010706   54.10  0.003163  (-0.025699  0.044033  0.023739)
 70:   1073.54   0.012187   61.59  0.003543  ( 0.029656  0.010497  0.050527)
 71:   1084.14   0.006906   34.90  0.001988  ( 0.021388  0.012875  0.036940)
 72:   1092.42   0.001273    6.44  0.000364  (-0.012526  0.001263 -0.014327)
 73:   1094.88   0.006197   31.31  0.001766  (-0.039719 -0.012586  0.005488)
 74:   1146.02   0.023653  119.53  0.006441  ( 0.011423 -0.012049  0.078518)
 75:   1165.91   0.008579   43.35  0.002296  ( 0.018367  0.026490 -0.035454)
 76:   1170.82   0.000056    0.28  0.000015  ( 0.001776 -0.002501  0.002351)
 77:   1171.10   0.000281    1.42  0.000075  ( 0.003587 -0.007862 -0.000431)
 78:   1178.00   0.002444   12.35  0.000647  ( 0.025071  0.001488 -0.004080)
 79:   1183.95   0.000984    4.98  0.000259  (-0.014682 -0.004773  0.004600)
 80:   1196.71   0.004847   24.50  0.001264  ( 0.018719  0.030076 -0.003014)
 81:   1204.87   0.007110   35.93  0.001842  (-0.041149  0.006607 -0.010229)
 82:   1206.87   0.004904   24.78  0.001268  ( 0.033830 -0.010782 -0.002679)
 83:   1209.61   0.001556    7.86  0.000401  (-0.017001 -0.009081  0.005464)
 84:   1234.60   0.013864   70.06  0.003504  (-0.043412  0.027587 -0.029305)
 85:   1244.39   0.017377   87.81  0.004358  (-0.012171  0.037593 -0.052880)
 86:   1272.42   0.007529   38.05  0.001846  ( 0.040737 -0.013638  0.000968)
 87:   1278.56   0.114354  577.90  0.027911  (-0.133366  0.064205  0.077473)
 88:   1286.05   0.009389   47.45  0.002278  ( 0.034005 -0.022287  0.025002)
 89:   1302.89   0.069587  351.66  0.016667  ( 0.021732  0.024183 -0.124940)
 90:   1331.14   0.043350  219.07  0.010163  ( 0.043746 -0.057292 -0.070475)
 91:   1344.11   0.114800  580.15  0.026653  (-0.051629  0.127809  0.087478)
 92:   1356.08   0.003729   18.85  0.000858  (-0.017852 -0.018696 -0.013784)
 93:   1371.98   0.006978   35.26  0.001587  ( 0.029182 -0.012454 -0.024092)
 94:   1375.37   0.025523  128.98  0.005791  ( 0.060248 -0.044663  0.012900)
 95:   1392.52   0.004818   24.35  0.001080  (-0.005471 -0.009893 -0.030852)
 96:   1414.40   0.097665  493.56  0.021548  ( 0.061651  0.052877 -0.122275)
 97:   1441.05   0.042806  216.32  0.009270  (-0.039415 -0.043310  0.076423)
 98:   1464.32   0.002609   13.18  0.000556  ( 0.005627  0.006304 -0.022014)
 99:   1466.32   0.003152   15.93  0.000671  (-0.000371  0.011145 -0.023375)
100:   1469.86   0.013487   68.16  0.002863  (-0.030585  0.036317  0.024678)
101:   1473.53   0.003663   18.51  0.000776  ( 0.027272  0.004325  0.003636)
102:   1473.78   0.002965   14.99  0.000628  (-0.005039  0.023253  0.007860)
103:   1480.89   0.001322    6.68  0.000279  (-0.002145  0.007894 -0.014550)
104:   1484.11   0.004853   24.53  0.001020  (-0.013356 -0.009444  0.027439)
105:   1499.05   0.012416   62.74  0.002585  (-0.003796 -0.009673  0.049766)
106:   1508.72   0.004810   24.31  0.000995  ( 0.012222 -0.005691 -0.028517)
107:   1540.10   0.028488  143.97  0.005772  (-0.024568 -0.018726  0.069413)
108:   1592.10   0.071729  362.49  0.014059  (-0.004938 -0.099224  0.064728)
109:   1601.52   0.048932  247.28  0.009535  (-0.043564 -0.081279 -0.032101)
110:   1635.89   0.140791  711.50  0.026857  ( 0.098453 -0.042753  0.123841)
111:   1647.65   0.006495   32.82  0.001230  (-0.021905  0.002791 -0.027250)
112:   1666.41   0.010587   53.50  0.001983  ( 0.011254  0.009080 -0.042113)
113:   1691.05   0.036396  183.93  0.006716  ( 0.076256 -0.023153 -0.019113)
114:   1798.14   0.112590  568.98  0.019540  ( 0.109424  0.085226  0.017401)
115:   3040.33   0.012493   63.14  0.001282  ( 0.019173 -0.001240  0.030219)
116:   3073.79   0.005789   29.25  0.000588  (-0.011471  0.019111  0.009534)
117:   3078.52   0.001134    5.73  0.000115  ( 0.001617  0.009044  0.005523)
118:   3113.44   0.006952   35.13  0.000697  (-0.004846  0.025583  0.004343)
119:   3133.07   0.001241    6.27  0.000124  ( 0.000638  0.003723 -0.010458)
120:   3148.31   0.003892   19.67  0.000386  (-0.007276 -0.013474 -0.012300)
121:   3158.26   0.003513   17.76  0.000347  ( 0.002322 -0.009589  0.015806)
122:   3167.54   0.003520   17.79  0.000347  ( 0.011971  0.004186 -0.013635)
123:   3191.84   0.001970    9.96  0.000193  ( 0.013431  0.003445  0.000625)
124:   3196.99   0.000559    2.82  0.000055  (-0.007194 -0.000866 -0.001428)
125:   3204.73   0.001555    7.86  0.000151  (-0.011943  0.002442 -0.001690)
126:   3213.27   0.002718   13.74  0.000264  (-0.012384 -0.004219  0.009633)
127:   3225.76   0.000361    1.83  0.000035  ( 0.005794  0.000574  0.001028)
128:   3233.49   0.000485    2.45  0.000047  ( 0.004079 -0.000474  0.005468)
129:   3241.64   0.000075    0.38  0.000007  (-0.001563 -0.001792  0.001253)
130:   3246.52   0.001144    5.78  0.000110  ( 0.001375 -0.003366  0.009835)
131:   3247.43   0.000040    0.20  0.000004  (-0.000633  0.000835 -0.001661)

* The epsilon (eps) is given for a Dirac delta lineshape.
** The dipole moment derivative (T) already includes vibrational overlap.

The first frequency considered to be a vibration is 7
The total number of vibrations considered is 125


--------------------------
THERMOCHEMISTRY AT 298.15K
--------------------------

Temperature         ... 298.15 K
Pressure            ... 1.00 atm
Total Mass          ... 375.34 AMU

Throughout the following assumptions are being made:
  (1) The electronic state is orbitally nondegenerate
  (2) There are no thermally accessible electronically excited states
  (3) Hindered rotations indicated by low frequency modes are not
      treated as such but are treated as vibrations and this may
      cause some error
  (4) All equations used are the standard statistical mechanics
      equations for an ideal gas
  (5) All vibrations are strictly harmonic

freq.      17.30  E(vib)   ...       0.57 
freq.      44.82  E(vib)   ...       0.53 
freq.      60.15  E(vib)   ...       0.51 
freq.      64.14  E(vib)   ...       0.51 
freq.      73.69  E(vib)   ...       0.49 
freq.      83.32  E(vib)   ...       0.48 
freq.      88.99  E(vib)   ...       0.47 
freq.      97.73  E(vib)   ...       0.46 
freq.     103.78  E(vib)   ...       0.46 
freq.     108.85  E(vib)   ...       0.45 
freq.     139.66  E(vib)   ...       0.42 
freq.     148.08  E(vib)   ...       0.41 
freq.     155.66  E(vib)   ...       0.40 
freq.     164.27  E(vib)   ...       0.39 
freq.     180.05  E(vib)   ...       0.37 
freq.     195.48  E(vib)   ...       0.36 
freq.     210.15  E(vib)   ...       0.34 
freq.     230.84  E(vib)   ...       0.32 
freq.     248.49  E(vib)   ...       0.31 
freq.     262.23  E(vib)   ...       0.29 
freq.     282.37  E(vib)   ...       0.28 
freq.     296.23  E(vib)   ...       0.27 
freq.     308.58  E(vib)   ...       0.26 
freq.     320.81  E(vib)   ...       0.25 
freq.     342.43  E(vib)   ...       0.23 
freq.     365.66  E(vib)   ...       0.22 
freq.     414.56  E(vib)   ...       0.19 
freq.     430.51  E(vib)   ...       0.18 
freq.     457.15  E(vib)   ...       0.16 
freq.     466.25  E(vib)   ...       0.16 
freq.     488.97  E(vib)   ...       0.15 
freq.     539.41  E(vib)   ...       0.12 
freq.     550.47  E(vib)   ...       0.12 
freq.     582.45  E(vib)   ...       0.11 
freq.     585.44  E(vib)   ...       0.11 
freq.     603.61  E(vib)   ...       0.10 
freq.     634.64  E(vib)   ...       0.09 
freq.     648.85  E(vib)   ...       0.08 
freq.     652.48  E(vib)   ...       0.08 
freq.     685.44  E(vib)   ...       0.07 
freq.     709.22  E(vib)   ...       0.07 
freq.     748.06  E(vib)   ...       0.06 
freq.     756.59  E(vib)   ...       0.06 
freq.     765.21  E(vib)   ...       0.06 
freq.     768.62  E(vib)   ...       0.06 
freq.     783.41  E(vib)   ...       0.05 
freq.     805.98  E(vib)   ...       0.05 
freq.     822.01  E(vib)   ...       0.05 
freq.     837.53  E(vib)   ...       0.04 
freq.     843.77  E(vib)   ...       0.04 
freq.     858.06  E(vib)   ...       0.04 
freq.     873.40  E(vib)   ...       0.04 
freq.     879.07  E(vib)   ...       0.04 
freq.     924.58  E(vib)   ...       0.03 
freq.     942.50  E(vib)   ...       0.03 
freq.     948.01  E(vib)   ...       0.03 
freq.     968.78  E(vib)   ...       0.03 
freq.     985.53  E(vib)   ...       0.02 
freq.    1008.23  E(vib)   ...       0.02 
freq.    1015.32  E(vib)   ...       0.02 
freq.    1015.86  E(vib)   ...       0.02 
freq.    1044.90  E(vib)   ...       0.02 
freq.    1056.29  E(vib)   ...       0.02 
freq.    1073.54  E(vib)   ...       0.02 
freq.    1084.14  E(vib)   ...       0.02 
freq.    1092.42  E(vib)   ...       0.02 
freq.    1094.88  E(vib)   ...       0.02 
freq.    1146.02  E(vib)   ...       0.01 
freq.    1165.91  E(vib)   ...       0.01 
freq.    1170.82  E(vib)   ...       0.01 
freq.    1171.10  E(vib)   ...       0.01 
freq.    1178.00  E(vib)   ...       0.01 
freq.    1183.95  E(vib)   ...       0.01 
freq.    1196.71  E(vib)   ...       0.01 
freq.    1204.87  E(vib)   ...       0.01 
freq.    1206.87  E(vib)   ...       0.01 
freq.    1209.61  E(vib)   ...       0.01 
freq.    1234.60  E(vib)   ...       0.01 
freq.    1244.39  E(vib)   ...       0.01 
freq.    1272.42  E(vib)   ...       0.01 
freq.    1278.56  E(vib)   ...       0.01 
freq.    1286.05  E(vib)   ...       0.01 
freq.    1302.89  E(vib)   ...       0.01 
freq.    1331.14  E(vib)   ...       0.01 
freq.    1344.11  E(vib)   ...       0.01 
freq.    1356.08  E(vib)   ...       0.01 
freq.    1371.98  E(vib)   ...       0.01 
freq.    1375.37  E(vib)   ...       0.01 
freq.    1392.52  E(vib)   ...       0.00 
freq.    1414.40  E(vib)   ...       0.00 
freq.    1441.05  E(vib)   ...       0.00 
freq.    1464.32  E(vib)   ...       0.00 
freq.    1466.32  E(vib)   ...       0.00 
freq.    1469.86  E(vib)   ...       0.00 
freq.    1473.53  E(vib)   ...       0.00 
freq.    1473.78  E(vib)   ...       0.00 
freq.    1480.89  E(vib)   ...       0.00 
freq.    1484.11  E(vib)   ...       0.00 
freq.    1499.05  E(vib)   ...       0.00 
freq.    1508.72  E(vib)   ...       0.00 
freq.    1540.10  E(vib)   ...       0.00 
freq.    1592.10  E(vib)   ...       0.00 
freq.    1601.52  E(vib)   ...       0.00 
freq.    1635.89  E(vib)   ...       0.00 
freq.    1647.65  E(vib)   ...       0.00 
freq.    1666.41  E(vib)   ...       0.00 
freq.    1691.05  E(vib)   ...       0.00 
freq.    1798.14  E(vib)   ...       0.00 
freq.    3040.33  E(vib)   ...       0.00 
freq.    3073.79  E(vib)   ...       0.00 
freq.    3078.52  E(vib)   ...       0.00 
freq.    3113.44  E(vib)   ...       0.00 
freq.    3133.07  E(vib)   ...       0.00 
freq.    3148.31  E(vib)   ...       0.00 
freq.    3158.26  E(vib)   ...       0.00 
freq.    3167.54  E(vib)   ...       0.00 
freq.    3191.84  E(vib)   ...       0.00 
freq.    3196.99  E(vib)   ...       0.00 
freq.    3204.73  E(vib)   ...       0.00 
freq.    3213.27  E(vib)   ...       0.00 
freq.    3225.76  E(vib)   ...       0.00 
freq.    3233.49  E(vib)   ...       0.00 
freq.    3241.64  E(vib)   ...       0.00 
freq.    3246.52  E(vib)   ...       0.00 
freq.    3247.43  E(vib)   ...       0.00 

------------
INNER ENERGY
------------

The inner energy is: U= E(el) + E(ZPE) + E(vib) + E(rot) + E(trans)
    E(el)   - is the total energy from the electronic structure calculation
              = E(kin-el) + E(nuc-el) + E(el-el) + E(nuc-nuc)
    E(ZPE)  - the the zero temperature vibrational energy from the frequency calculation
    E(vib)  - the the finite temperature correction to E(ZPE) due to population
              of excited vibrational states
    E(rot)  - is the rotational thermal energy
    E(trans)- is the translational thermal energy

Summary of contributions to the inner energy U:
Electronic energy                ...  -1347.71719926 Eh
Zero point energy                ...      0.33700416 Eh     211.47 kcal/mol
Thermal vibrational correction   ...      0.02062113 Eh      12.94 kcal/mol
Thermal rotational correction    ...      0.00141627 Eh       0.89 kcal/mol
Thermal translational correction ...      0.00141627 Eh       0.89 kcal/mol
-----------------------------------------------------------------------
Total thermal energy                  -1347.35674143 Eh


Summary of corrections to the electronic energy:
(perhaps to be used in another calculation)
Total thermal correction                  0.02345368 Eh      14.72 kcal/mol
Non-thermal (ZPE) correction              0.33700416 Eh     211.47 kcal/mol
-----------------------------------------------------------------------
Total correction                          0.36045783 Eh     226.19 kcal/mol


--------
ENTHALPY
--------

The enthalpy is H = U + kB*T
                kB is Boltzmann's constant
Total free energy                 ...  -1347.35674143 Eh 
Thermal Enthalpy correction       ...      0.00094421 Eh       0.59 kcal/mol
-----------------------------------------------------------------------
Total Enthalpy                    ...  -1347.35579722 Eh


Note: Only C1 symmetry has been detected, increase convergence thresholds 
      if your molecule has a higher symmetry. Symmetry factor of 1.0 is   
      used for the rotational entropy correction. 
 

Note: Rotational entropy computed according to Herzberg 
Infrared and Raman Spectra, Chapter V,1, Van Nostrand Reinhold, 1945 
Point Group:  C1, Symmetry Number:   1  
Rotational constants in cm-1:     0.009484     0.006105     0.005722 

Vibrational entropy computed according to the QRRHO of S. Grimme
Chem.Eur.J. 2012 18 9955


-------
ENTROPY
-------

The entropy contributions are T*S = T*(S(el)+S(vib)+S(rot)+S(trans))
     S(el)   - electronic entropy
     S(vib)  - vibrational entropy
     S(rot)  - rotational entropy
     S(trans)- translational entropy
The entropies will be listed as multiplied by the temperature to get
units of energy

Electronic entropy                ...      0.00000000 Eh      0.00 kcal/mol
Vibrational entropy               ...      0.03687733 Eh     23.14 kcal/mol
Rotational entropy                ...      0.01655452 Eh     10.39 kcal/mol
Translational entropy             ...      0.02074448 Eh     13.02 kcal/mol
-----------------------------------------------------------------------
Final entropy term                ...      0.07417632 Eh     46.55 kcal/mol

In case the symmetry of your molecule has not been determined correctly
or in case you have a reason to use a different symmetry number we print 
out the resulting rotational entropy values for sn=1,12 :
 --------------------------------------------------------
|  sn= 1 | S(rot)=       0.01655452 Eh     10.39 kcal/mol|
|  sn= 2 | S(rot)=       0.01590006 Eh      9.98 kcal/mol|
|  sn= 3 | S(rot)=       0.01551723 Eh      9.74 kcal/mol|
|  sn= 4 | S(rot)=       0.01524561 Eh      9.57 kcal/mol|
|  sn= 5 | S(rot)=       0.01503492 Eh      9.43 kcal/mol|
|  sn= 6 | S(rot)=       0.01486277 Eh      9.33 kcal/mol|
|  sn= 7 | S(rot)=       0.01471723 Eh      9.24 kcal/mol|
|  sn= 8 | S(rot)=       0.01459115 Eh      9.16 kcal/mol|
|  sn= 9 | S(rot)=       0.01447994 Eh      9.09 kcal/mol|
|  sn=10 | S(rot)=       0.01438046 Eh      9.02 kcal/mol|
|  sn=11 | S(rot)=       0.01429047 Eh      8.97 kcal/mol|
|  sn=12 | S(rot)=       0.01420832 Eh      8.92 kcal/mol|
 --------------------------------------------------------


-------------------
GIBBS FREE ENERGY
-------------------

The Gibbs free energy is G = H - T*S

Total enthalpy                    ...  -1347.35579722 Eh 
Total entropy correction          ...     -0.07417632 Eh    -46.55 kcal/mol
-----------------------------------------------------------------------
Final Gibbs free energy         ...  -1347.42997354 Eh

For completeness - the Gibbs free energy minus the electronic energy
G-E(el)                           ...      0.28722572 Eh    180.24 kcal/mol


Timings for individual modules:

Sum of individual times         ...     4058.921 sec (=  67.649 min)
GTO integral calculation        ...       17.000 sec (=   0.283 min)   0.4 %
SCF iterations                  ...      751.323 sec (=  12.522 min)  18.5 %
SCF Gradient evaluation         ...      161.245 sec (=   2.687 min)   4.0 %
Geometry relaxation             ...        1.503 sec (=   0.025 min)   0.0 %
Analytical frequency calculation...     3127.849 sec (=  52.131 min)  77.1 %
                             ****ORCA TERMINATED NORMALLY****
TOTAL RUN TIME: 0 days 1 hours 7 minutes 58 seconds 257 msec
