
                                 *****************
                                 * O   R   C   A *
                                 *****************

                                            #,                                       
                                            ###                                      
                                            ####                                     
                                            #####                                    
                                            ######                                   
                                           ########,                                 
                                     ,,################,,,,,                         
                               ,,#################################,,                 
                          ,,##########################################,,             
                       ,#########################################, ''#####,          
                    ,#############################################,,   '####,        
                  ,##################################################,,,,####,       
                ,###########''''           ''''###############################       
              ,#####''   ,,,,##########,,,,          '''####'''          '####       
            ,##' ,,,,###########################,,,                        '##       
           ' ,,###''''                  '''############,,,                           
         ,,##''                                '''############,,,,        ,,,,,,###''
      ,#''                                            '''#######################'''  
     '                                                          ''''####''''         
             ,#######,   #######,   ,#######,      ##                                
            ,#'     '#,  ##    ##  ,#'     '#,    #''#        ######   ,####,        
            ##       ##  ##   ,#'  ##            #'  '#       #        #'  '#        
            ##       ##  #######   ##           ,######,      #####,   #    #        
            '#,     ,#'  ##    ##  '#,     ,#' ,#      #,         ##   #,  ,#        
             '#######'   ##     ##  '#######'  #'      '#     #####' # '####'        



                  #######################################################
                  #                        -***-                        #
                  #          Department of theory and spectroscopy      #
                  #    Directorship and core code : Frank Neese         #
                  #        Max Planck Institute fuer Kohlenforschung    #
                  #                Kaiser Wilhelm Platz 1               #
                  #                 D-45470 Muelheim/Ruhr               #
                  #                      Germany                        #
                  #                                                     #
                  #                  All rights reserved                #
                  #                        -***-                        #
                  #######################################################


                         Program Version 5.0.4 -  RELEASE  -


 With contributions from (in alphabetic order):
   Daniel Aravena         : Magnetic Suceptibility
   Michael Atanasov       : Ab Initio Ligand Field Theory (pilot matlab implementation)
   Alexander A. Auer      : GIAO ZORA, VPT2 properties, NMR spectrum
   Ute Becker             : Parallelization
   Giovanni Bistoni       : ED, misc. LED, open-shell LED, HFLD
   Martin Brehm           : Molecular dynamics
   Dmytro Bykov           : SCF Hessian
   Vijay G. Chilkuri      : MRCI spin determinant printing, contributions to CSF-ICE
   Dipayan Datta          : RHF DLPNO-CCSD density
   Achintya Kumar Dutta   : EOM-CC, STEOM-CC
   Dmitry Ganyushin       : Spin-Orbit,Spin-Spin,Magnetic field MRCI
   Miquel Garcia          : C-PCM and meta-GGA Hessian, CC/C-PCM, Gaussian charge scheme
   Yang Guo               : DLPNO-NEVPT2, F12-NEVPT2, CIM, IAO-localization
   Andreas Hansen         : Spin unrestricted coupled pair/coupled cluster methods
   Benjamin Helmich-Paris : MC-RPA, TRAH-SCF, COSX integrals
   Lee Huntington         : MR-EOM, pCC
   Robert Izsak           : Overlap fitted RIJCOSX, COSX-SCS-MP3, EOM
   Marcus Kettner         : VPT2
   Christian Kollmar      : KDIIS, OOCD, Brueckner-CCSD(T), CCSD density, CASPT2, CASPT2-K
   Simone Kossmann        : Meta GGA functionals, TD-DFT gradient, OOMP2, MP2 Hessian
   Martin Krupicka        : Initial AUTO-CI
   Lucas Lang             : DCDCAS
   Marvin Lechner         : AUTO-CI (C++ implementation), FIC-MRCC
   Dagmar Lenk            : GEPOL surface, SMD
   Dimitrios Liakos       : Extrapolation schemes; Compound Job, initial MDCI parallelization
   Dimitrios Manganas     : Further ROCIS development; embedding schemes
   Dimitrios Pantazis     : SARC Basis sets
   Anastasios Papadopoulos: AUTO-CI, single reference methods and gradients
   Taras Petrenko         : DFT Hessian,TD-DFT gradient, ASA, ECA, R-Raman, ABS, FL, XAS/XES, NRVS
   Peter Pinski           : DLPNO-MP2, DLPNO-MP2 Gradient
   Christoph Reimann      : Effective Core Potentials
   Marius Retegan         : Local ZFS, SOC
   Christoph Riplinger    : Optimizer, TS searches, QM/MM, DLPNO-CCSD(T), (RO)-DLPNO pert. Triples
   Tobias Risthaus        : Range-separated hybrids, TD-DFT gradient, RPA, STAB
   Michael Roemelt        : Original ROCIS implementation
   Masaaki Saitow         : Open-shell DLPNO-CCSD energy and density
   Barbara Sandhoefer     : DKH picture change effects
   Avijit Sen             : IP-ROCIS
   Kantharuban Sivalingam : CASSCF convergence, NEVPT2, FIC-MRCI
   Bernardo de Souza      : ESD, SOC TD-DFT
   Georgi Stoychev        : AutoAux, RI-MP2 NMR, DLPNO-MP2 response
   Willem Van den Heuvel  : Paramagnetic NMR
   Boris Wezisla          : Elementary symmetry handling
   Frank Wennmohs         : Technical directorship


 We gratefully acknowledge several colleagues who have allowed us to
 interface, adapt or use parts of their codes:
   Stefan Grimme, W. Hujo, H. Kruse, P. Pracht,  : VdW corrections, initial TS optimization,
                  C. Bannwarth, S. Ehlert          DFT functionals, gCP, sTDA/sTD-DF
   Ed Valeev, F. Pavosevic, A. Kumar             : LibInt (2-el integral package), F12 methods
   Garnet Chan, S. Sharma, J. Yang, R. Olivares  : DMRG
   Ulf Ekstrom                                   : XCFun DFT Library
   Mihaly Kallay                                 : mrcc  (arbitrary order and MRCC methods)
   Jiri Pittner, Ondrej Demel                    : Mk-CCSD
   Frank Weinhold                                : gennbo (NPA and NBO analysis)
   Christopher J. Cramer and Donald G. Truhlar   : smd solvation model
   Lars Goerigk                                  : TD-DFT with DH, B97 family of functionals
   V. Asgeirsson, H. Jonsson                     : NEB implementation
   FAccTs GmbH                                   : IRC, NEB, NEB-TS, DLPNO-Multilevel, CI-OPT
                                                   MM, QMMM, 2- and 3-layer-ONIOM, Crystal-QMMM,
                                                   LR-CPCM, SF, NACMEs, symmetry and pop. for TD-DFT,
                                                   nearIR, NL-DFT gradient (VV10), updates on ESD,
                                                   ML-optimized integration grids
   S Lehtola, MJT Oliveira, MAL Marques          : LibXC Library
   Liviu Ungur et al                             : ANISO software


 Your calculation uses the libint2 library for the computation of 2-el integrals
 For citations please refer to: http://libint.valeyev.net

 Your ORCA version has been built with support for libXC version: 5.1.0
 For citations please refer to: https://tddft.org/programs/libxc/

 This ORCA versions uses:
   CBLAS   interface :  Fast vector & matrix operations
   LAPACKE interface :  Fast linear algebra routines
   SCALAPACK package :  Parallel linear algebra routines
   Shared memory     :  Shared parallel matrices
   BLAS/LAPACK       :  OpenBLAS 0.3.15  USE64BITINT DYNAMIC_ARCH NO_AFFINITY Haswell SINGLE_THREADED
        Core in use  :  Haswell
   Copyright (c) 2011-2014, The OpenBLAS Project


Your calculation utilizes the atom-pairwise dispersion correction
with the Becke-Johnson damping scheme (D3BJ)
Cite in your paper:
S.Grimme, S.Ehrlich, L.Goerigk, J Comput Chem, (2011), 32, 1456–1465 
S.Grimme, J.Antony, S.Ehrlich and H.Krieg, J.Chem.Phys., 132, (2010), 154104 
   

================================================================================

----- Orbital basis set information -----
Your calculation utilizes the basis: def2-TZVP
   F. Weigend and R. Ahlrichs, Phys. Chem. Chem. Phys. 7, 3297 (2005).

----- AuxJ basis set information -----
Your calculation utilizes the auxiliary basis: def2/J
   F. Weigend, Phys. Chem. Chem. Phys. 8, 1057 (2006).

================================================================================
                                        WARNINGS
                       Please study these warnings very carefully!
================================================================================


WARNING: Geometry Optimization
  ===> : Switching off AutoStart
         For restart on a previous wavefunction, please use MOREAD

INFO   : the flag for use of the SHARK integral package has been found!

================================================================================
                                       INPUT FILE
================================================================================
NAME = TS1_Me.inp
|  1> %pal nprocs 28 end
|  2> %maxcore 3500
|  3> !PBE0 D3BJ def2-TZVP TightOpt TightSCF OPTTS FREQ
|  4> !CPCM(dmso)
|  5> %scf
|  6> MaxIter 800
|  7> end
|  8> %geom
|  9> MaxIter 800
| 10> MaxStep 0.2
| 11> calc_hess True
| 12> end
| 13> *xyz 0 1
| 14> C       -3.927039000     -1.198825000      0.919757000
| 15> C       -3.819609000     -1.606857000     -0.413464000
| 16> C       -2.624469000     -1.441970000     -1.055381000
| 17> N       -1.553735000     -0.952621000     -0.404138000
| 18> C       -1.619535000     -0.571834000      0.889393000
| 19> C       -2.824428000     -0.699388000      1.574758000
| 20> C       -0.332205000     -0.626306000     -1.114298000
| 21> C        0.737616000     -1.688298000     -0.955462000
| 22> O        1.775328000     -1.642550000     -1.565325000
| 23> O        0.369842000     -2.686529000     -0.169512000
| 24> C        1.313413000     -3.753634000     -0.031326000
| 25> H       -4.869681000     -1.303065000      1.443739000
| 26> H       -2.474912000     -1.679161000     -2.100033000
| 27> H       -0.681577000     -0.407896000      1.394091000
| 28> H       -2.861899000     -0.424115000      2.619863000
| 29> H       -0.576333000     -0.653508000     -2.175905000
| 30> H        0.856984000     -4.460252000      0.656407000
| 31> H        2.251725000     -3.376268000      0.374384000
| 32> C       -1.045532255      1.215764553      0.116386544
| 33> C        0.104633000      0.881041000     -0.793011000
| 34> C        1.561790000      1.097110000     -0.474467000
| 35> C        2.291380000      1.970549000     -1.268585000
| 36> C        3.629088000      2.248186000     -1.017676000
| 37> C        4.257098000      1.634859000      0.052538000
| 38> C        3.555882000      0.753535000      0.865933000
| 39> C        2.218781000      0.487008000      0.602236000
| 40> O        1.468789000     -0.363685000      1.340861000
| 41> C        2.068257000     -1.025052000      2.440099000
| 42> N       -2.219222700      1.409454848     -0.507115565
| 43> O       -2.336790129      1.097727329     -1.730879532
| 44> H       -0.064239000      1.375200000     -1.750718000
| 45> H        1.792309000      2.444302000     -2.107759000
| 46> H        4.171343000      2.934698000     -1.656727000
| 47> H        5.300968000      1.835689000      0.265288000
| 48> H        4.056072000      0.278716000      1.699312000
| 49> H        2.398658000     -0.306472000      3.194637000
| 50> H        2.916399000     -1.634504000      2.117688000
| 51> H        1.296341000     -1.667470000      2.859199000
| 52> O       -3.218685467      1.849863253      0.128466361
| 53> H        1.493708000     -4.222194000     -0.998794000
| 54> H       -4.660053000     -2.021677000     -0.951679000
| 55> C       -0.863078946      1.876948585      1.437728292
| 56> H       -0.023624568      1.448408419      1.979102696
| 57> H       -0.682462827      2.951652718      1.325975230
| 58> H       -1.758513192      1.770667921      2.056366931
| 59> *
| 60> 
| 61>                          ****END OF INPUT****
================================================================================

                       *****************************
                       * Geometry Optimization Run *
                       *****************************

Geometry optimization settings:
Update method            Update   .... Bofill
Choice of coordinates    CoordSys .... Z-matrix Internals
Initial Hessian          InHess   .... Almoef's Model

Convergence Tolerances:
Energy Change            TolE     ....  1.0000e-06 Eh
Max. Gradient            TolMAXG  ....  1.0000e-04 Eh/bohr
RMS Gradient             TolRMSG  ....  3.0000e-05 Eh/bohr
Max. Displacement        TolMAXD  ....  1.0000e-03 bohr
RMS Displacement         TolRMSD  ....  6.0000e-04 bohr
Strict Convergence                ....  False
------------------------------------------------------------------------------
                        ORCA OPTIMIZATION COORDINATE SETUP
------------------------------------------------------------------------------

The optimization will be done in new redundant internal coordinates
Making redundant internal coordinates   ...  (new redundants) done
Following TS mode number                ...     0
Evaluating the initial hessian          ...  (Is done on the fly) done
Evaluating the coordinates              ...  done
Calculating the B-matrix                .... done
Calculating the G-matrix                .... done
Diagonalizing the G-matrix              .... done
Small eigenvalue found = 2.994e-03
Small eigenvalue found = 4.322e-03
Small eigenvalue found = 6.660e-03
Small eigenvalue found = 8.591e-03
Small eigenvalue found = 1.222e-02
Small eigenvalue found = 1.962e-02
Small eigenvalue found = 2.677e-02
Small eigenvalue found = 2.929e-02
The first mode is                       ....   95
The number of degrees of freedom        ....  129

    -----------------------------------------------------------------
                    Redundant Internal Coordinates


    -----------------------------------------------------------------
         Definition                    Initial Value    d2E/dq (diagonal element)
    -----------------------------------------------------------------
      1. B(C   1,C   0)                  1.3984         0.000000   
      2. B(C   2,C   1)                  1.3666         0.000000   
      3. B(N   3,C   2)                  1.3454         0.000000   
      4. B(C   4,N   3)                  1.3500         0.000000   
      5. B(C   5,C   4)                  1.3920         0.000000   
      6. B(C   5,C   0)                  1.3763         0.000000   
      7. B(C   6,N   3)                  1.4502         0.000000   
      8. B(C   7,C   6)                  1.5158         0.000000   
      9. B(O   8,C   7)                  1.2045         0.000000   
     10. B(O   9,C   7)                  1.3227         0.000000   
     11. B(C  10,O   9)                  1.4311         0.000000   
     12. B(H  11,C   0)                  1.0835         0.000000   
     13. B(H  12,C   2)                  1.0816         0.000000   
     14. B(H  13,C   4)                  1.0777         0.000000   
     15. B(H  14,C   5)                  1.0814         0.000000   
     16. B(H  15,C   6)                  1.0897         0.000000   
     17. B(H  16,C  10)                  1.0866         0.000000   
     18. B(H  17,C  10)                  1.0897         0.000000   
     19. B(C  19,C  18)                  1.5040         0.000000   
     20. B(C  19,C   6)                  1.6019         0.000000   
     21. B(C  20,C  19)                  1.5071         0.000000   
     22. B(C  21,C  20)                  1.3877         0.000000   
     23. B(C  22,C  21)                  1.3891         0.000000   
     24. B(C  23,C  22)                  1.3842         0.000000   
     25. B(C  24,C  23)                  1.3893         0.000000   
     26. B(C  25,C  24)                  1.3887         0.000000   
     27. B(C  25,C  20)                  1.4011         0.000000   
     28. B(O  26,C  25)                  1.3534         0.000000   
     29. B(C  27,O  26)                  1.4160         0.000000   
     30. B(N  28,C  18)                  1.3431         0.000000   
     31. B(O  29,N  28)                  1.2683         0.000000   
     32. B(H  30,C  19)                  1.0908         0.000000   
     33. B(H  31,C  21)                  1.0852         0.000000   
     34. B(H  32,C  22)                  1.0834         0.000000   
     35. B(H  33,C  23)                  1.0841         0.000000   
     36. B(H  34,C  24)                  1.0817         0.000000   
     37. B(H  35,C  27)                  1.0931         0.000000   
     38. B(H  36,C  27)                  1.0930         0.000000   
     39. B(H  37,C  27)                  1.0882         0.000000   
     40. B(O  38,N  28)                  1.2637         0.000000   
     41. B(H  39,C  10)                  1.0900         0.000000   
     42. B(H  40,C   1)                  1.0808         0.000000   
     43. B(C  41,C  18)                  1.4888         0.000000   
     44. B(H  42,C  41)                  1.0869         0.000000   
     45. B(H  43,C  41)                  1.0955         0.000000   
     46. B(H  44,C  41)                  1.0935         0.000000   
     47. A(C   5,C   0,H  11)          120.1154         0.000000   
     48. A(C   1,C   0,H  11)          119.9882         0.000000   
     49. A(C   1,C   0,C   5)          119.8724         0.000000   
     50. A(C   2,C   1,H  40)          119.5020         0.000000   
     51. A(C   0,C   1,C   2)          118.6727         0.000000   
     52. A(C   0,C   1,H  40)          121.8048         0.000000   
     53. A(C   1,C   2,H  12)          123.2383         0.000000   
     54. A(C   1,C   2,N   3)          120.8318         0.000000   
     55. A(N   3,C   2,H  12)          115.9271         0.000000   
     56. A(C   4,N   3,C   6)          116.5392         0.000000   
     57. A(C   2,N   3,C   4)          121.8439         0.000000   
     58. A(C   2,N   3,C   6)          121.0098         0.000000   
     59. A(C   5,C   4,H  13)          122.4601         0.000000   
     60. A(N   3,C   4,H  13)          116.6934         0.000000   
     61. A(N   3,C   4,C   5)          119.2150         0.000000   
     62. A(C   0,C   5,C   4)          119.4966         0.000000   
     63. A(C   0,C   5,H  14)          121.6382         0.000000   
     64. A(C   4,C   5,H  14)          118.8482         0.000000   
     65. A(H  15,C   6,C  19)          106.2594         0.000000   
     66. A(C   7,C   6,C  19)          116.4732         0.000000   
     67. A(N   3,C   6,C  19)          110.0733         0.000000   
     68. A(C   7,C   6,H  15)          104.0476         0.000000   
     69. A(N   3,C   6,C   7)          112.6778         0.000000   
     70. A(N   3,C   6,H  15)          106.4256         0.000000   
     71. A(C   6,C   7,O   9)          113.2529         0.000000   
     72. A(C   6,C   7,O   8)          121.8963         0.000000   
     73. A(O   8,C   7,O   9)          124.6855         0.000000   
     74. A(C   7,O   9,C  10)          115.8993         0.000000   
     75. A(O   9,C  10,H  39)          110.1140         0.000000   
     76. A(H  16,C  10,H  17)          110.5648         0.000000   
     77. A(O   9,C  10,H  17)          110.2097         0.000000   
     78. A(O   9,C  10,H  16)          105.6086         0.000000   
     79. A(H  17,C  10,H  39)          109.6885         0.000000   
     80. A(H  16,C  10,H  39)          110.5930         0.000000   
     81. A(C  19,C  18,N  28)          114.8155         0.000000   
     82. A(N  28,C  18,C  41)          117.0703         0.000000   
     83. A(C  19,C  18,C  41)          122.8054         0.000000   
     84. A(C   6,C  19,C  20)          116.1641         0.000000   
     85. A(C   6,C  19,C  18)           97.0161         0.000000   
     86. A(C  20,C  19,H  30)          105.6818         0.000000   
     87. A(C  18,C  19,H  30)          108.1592         0.000000   
     88. A(C   6,C  19,H  30)          102.0030         0.000000   
     89. A(C  18,C  19,C  20)          125.4284         0.000000   
     90. A(C  21,C  20,C  25)          117.8580         0.000000   
     91. A(C  19,C  20,C  25)          123.5968         0.000000   
     92. A(C  19,C  20,C  21)          118.5282         0.000000   
     93. A(C  22,C  21,H  31)          119.6892         0.000000   
     94. A(C  20,C  21,H  31)          118.3906         0.000000   
     95. A(C  20,C  21,C  22)          121.9202         0.000000   
     96. A(C  23,C  22,H  32)          120.6481         0.000000   
     97. A(C  21,C  22,H  32)          120.1403         0.000000   
     98. A(C  21,C  22,C  23)          119.2113         0.000000   
     99. A(C  24,C  23,H  33)          119.2508         0.000000   
    100. A(C  22,C  23,H  33)          120.4326         0.000000   
    101. A(C  22,C  23,C  24)          120.3167         0.000000   
    102. A(C  25,C  24,H  34)          120.4821         0.000000   
    103. A(C  23,C  24,H  34)          119.7443         0.000000   
    104. A(C  23,C  24,C  25)          119.7735         0.000000   
    105. A(C  24,C  25,O  26)          123.4063         0.000000   
    106. A(C  20,C  25,O  26)          115.6732         0.000000   
    107. A(C  20,C  25,C  24)          120.9199         0.000000   
    108. A(C  25,O  26,C  27)          118.8577         0.000000   
    109. A(H  36,C  27,H  37)          109.5637         0.000000   
    110. A(H  35,C  27,H  37)          109.6726         0.000000   
    111. A(O  26,C  27,H  37)          105.9262         0.000000   
    112. A(H  35,C  27,H  36)          109.6097         0.000000   
    113. A(O  26,C  27,H  36)          111.0966         0.000000   
    114. A(O  26,C  27,H  35)          110.9026         0.000000   
    115. A(C  18,N  28,O  38)          120.5271         0.000000   
    116. A(C  18,N  28,O  29)          119.5707         0.000000   
    117. A(O  29,N  28,O  38)          119.8445         0.000000   
    118. A(H  43,C  41,H  44)          106.7420         0.000000   
    119. A(H  42,C  41,H  44)          108.1988         0.000000   
    120. A(C  18,C  41,H  44)          111.0137         0.000000   
    121. A(H  42,C  41,H  43)          108.0750         0.000000   
    122. A(C  18,C  41,H  43)          111.4295         0.000000   
    123. A(C  18,C  41,H  42)          111.1995         0.000000   
    124. D(C   2,C   1,C   0,H  11)    178.8926         0.000000   
    125. D(H  40,C   1,C   0,C   5)    178.7678         0.000000   
    126. D(C   2,C   1,C   0,C   5)     -2.8888         0.000000   
    127. D(H  40,C   1,C   0,H  11)      0.5492         0.000000   
    128. D(N   3,C   2,C   1,H  40)   -178.6888         0.000000   
    129. D(H  12,C   2,C   1,C   0)   -176.4356         0.000000   
    130. D(H  12,C   2,C   1,H  40)      1.9468         0.000000   
    131. D(N   3,C   2,C   1,C   0)      2.9288         0.000000   
    132. D(C   4,N   3,C   2,H  12)    177.5827         0.000000   
    133. D(C   6,N   3,C   2,H  12)      6.8268         0.000000   
    134. D(C   4,N   3,C   2,C   1)     -1.8262         0.000000   
    135. D(C   6,N   3,C   2,C   1)   -172.5821         0.000000   
    136. D(C   5,C   4,N   3,C   6)    171.7507         0.000000   
    137. D(C   5,C   4,N   3,C   2)      0.6037         0.000000   
    138. D(H  13,C   4,N   3,C   2)    166.4100         0.000000   
    139. D(H  13,C   4,N   3,C   6)    -22.4429         0.000000   
    140. D(H  14,C   5,C   4,H  13)     12.9937         0.000000   
    141. D(C   0,C   5,C   4,H  13)   -165.5297         0.000000   
    142. D(H  14,C   5,C   0,H  11)      1.4735         0.000000   
    143. D(C   0,C   5,C   4,N   3)     -0.5779         0.000000   
    144. D(H  14,C   5,C   0,C   1)   -176.7428         0.000000   
    145. D(H  14,C   5,C   4,N   3)    177.9456         0.000000   
    146. D(C   4,C   5,C   0,H  11)    179.9544         0.000000   
    147. D(C   4,C   5,C   0,C   1)      1.7382         0.000000   
    148. D(C  19,C   6,N   3,C   4)    -44.6641         0.000000   
    149. D(C  19,C   6,N   3,C   2)    126.5620         0.000000   
    150. D(H  15,C   6,N   3,C   4)   -159.4043         0.000000   
    151. D(C   7,C   6,N   3,C   2)   -101.5967         0.000000   
    152. D(H  15,C   6,N   3,C   2)     11.8218         0.000000   
    153. D(C   7,C   6,N   3,C   4)     87.1772         0.000000   
    154. D(O   8,C   7,C   6,N   3)    173.5895         0.000000   
    155. D(O   9,C   7,C   6,C  19)    126.6399         0.000000   
    156. D(O   9,C   7,C   6,H  15)   -116.8068         0.000000   
    157. D(O   9,C   7,C   6,N   3)     -1.9430         0.000000   
    158. D(O   8,C   7,C   6,C  19)    -57.8277         0.000000   
    159. D(O   8,C   7,C   6,H  15)     58.7256         0.000000   
    160. D(C  10,O   9,C   7,O   8)      1.7106         0.000000   
    161. D(C  10,O   9,C   7,C   6)    177.0976         0.000000   
    162. D(H  39,C  10,O   9,C   7)    -61.7975         0.000000   
    163. D(H  17,C  10,O   9,C   7)     59.3432         0.000000   
    164. D(H  16,C  10,O   9,C   7)    178.7813         0.000000   
    165. D(H  30,C  19,C  18,C  41)   -122.4188         0.000000   
    166. D(C  20,C  19,C  18,C  41)      3.2035         0.000000   
    167. D(C  20,C  19,C  18,N  28)    156.6566         0.000000   
    168. D(C   6,C  19,C  18,C  41)    132.4588         0.000000   
    169. D(C   6,C  19,C  18,N  28)    -74.0881         0.000000   
    170. D(H  30,C  19,C   6,H  15)      3.7879         0.000000   
    171. D(H  30,C  19,C   6,C   7)    119.1096         0.000000   
    172. D(H  30,C  19,C   6,N   3)   -111.0578         0.000000   
    173. D(C  20,C  19,C   6,H  15)   -110.5637         0.000000   
    174. D(C  20,C  19,C   6,C   7)      4.7580         0.000000   
    175. D(C  20,C  19,C   6,N   3)    134.5905         0.000000   
    176. D(C  18,C  19,C   6,H  15)    114.1037         0.000000   
    177. D(H  30,C  19,C  18,N  28)     31.0343         0.000000   
    178. D(C  18,C  19,C   6,N   3)     -0.7420         0.000000   
    179. D(C  18,C  19,C   6,C   7)   -130.5746         0.000000   
    180. D(C  25,C  20,C  19,H  30)   -172.4292         0.000000   
    181. D(C  25,C  20,C  19,C  18)     60.9163         0.000000   
    182. D(C  25,C  20,C  19,C   6)    -60.1830         0.000000   
    183. D(C  21,C  20,C  19,H  30)      9.1026         0.000000   
    184. D(C  21,C  20,C  19,C  18)   -117.5519         0.000000   
    185. D(C  21,C  20,C  19,C   6)    121.3489         0.000000   
    186. D(C  22,C  21,C  20,C  19)    178.3108         0.000000   
    187. D(H  31,C  21,C  20,C  25)    179.7132         0.000000   
    188. D(H  31,C  21,C  20,C  19)     -1.7300         0.000000   
    189. D(C  22,C  21,C  20,C  25)     -0.2460         0.000000   
    190. D(H  32,C  22,C  21,H  31)      0.0166         0.000000   
    191. D(H  32,C  22,C  21,C  20)    179.9752         0.000000   
    192. D(C  23,C  22,C  21,H  31)   -179.7777         0.000000   
    193. D(C  23,C  22,C  21,C  20)      0.1810         0.000000   
    194. D(H  33,C  23,C  22,H  32)      0.0866         0.000000   
    195. D(H  33,C  23,C  22,C  21)    179.8798         0.000000   
    196. D(C  24,C  23,C  22,H  32)   -179.8666         0.000000   
    197. D(C  24,C  23,C  22,C  21)     -0.0734         0.000000   
    198. D(H  34,C  24,C  23,H  33)     -0.0070         0.000000   
    199. D(H  34,C  24,C  23,C  22)    179.9467         0.000000   
    200. D(C  25,C  24,C  23,H  33)   -179.9133         0.000000   
    201. D(C  25,C  24,C  23,C  22)      0.0404         0.000000   
    202. D(O  26,C  25,C  24,H  34)     -0.3068         0.000000   
    203. D(O  26,C  25,C  24,C  23)    179.5988         0.000000   
    204. D(C  20,C  25,C  24,H  34)    179.9836         0.000000   
    205. D(C  20,C  25,C  24,C  23)     -0.1108         0.000000   
    206. D(O  26,C  25,C  20,C  21)   -179.5216         0.000000   
    207. D(O  26,C  25,C  20,C  19)      2.0007         0.000000   
    208. D(C  24,C  25,C  20,C  21)      0.2094         0.000000   
    209. D(C  24,C  25,C  20,C  19)   -178.2683         0.000000   
    210. D(C  27,O  26,C  25,C  24)     -0.1724         0.000000   
    211. D(C  27,O  26,C  25,C  20)    179.5512         0.000000   
    212. D(H  37,C  27,O  26,C  25)   -178.4432         0.000000   
    213. D(H  36,C  27,O  26,C  25)    -59.5403         0.000000   
    214. D(H  35,C  27,O  26,C  25)     62.6278         0.000000   
    215. D(O  38,N  28,C  18,C  41)    -16.5054         0.000000   
    216. D(O  38,N  28,C  18,C  19)   -171.5528         0.000000   
    217. D(O  29,N  28,C  18,C  41)    166.2631         0.000000   
    218. D(O  29,N  28,C  18,C  19)     11.2157         0.000000   
    219. D(H  44,C  41,C  18,N  28)     43.5830         0.000000   
    220. D(H  44,C  41,C  18,C  19)   -163.5187         0.000000   
    221. D(H  43,C  41,C  18,N  28)    -75.2509         0.000000   
    222. D(H  43,C  41,C  18,C  19)     77.6474         0.000000   
    223. D(H  42,C  41,C  18,N  28)    164.1033         0.000000   
    224. D(H  42,C  41,C  18,C  19)    -42.9984         0.000000   
    -----------------------------------------------------------------

Number of atoms                         .... 45
Number of degrees of freedom            .... 224

         *************************************************************
         *                GEOMETRY OPTIMIZATION CYCLE   1            *
         *************************************************************
---------------------------------
CARTESIAN COORDINATES (ANGSTROEM)
---------------------------------
  C     -3.927039   -1.198825    0.919757
  C     -3.819609   -1.606857   -0.413464
  C     -2.624469   -1.441970   -1.055381
  N     -1.553735   -0.952621   -0.404138
  C     -1.619535   -0.571834    0.889393
  C     -2.824428   -0.699388    1.574758
  C     -0.332205   -0.626306   -1.114298
  C      0.737616   -1.688298   -0.955462
  O      1.775328   -1.642550   -1.565325
  O      0.369842   -2.686529   -0.169512
  C      1.313413   -3.753634   -0.031326
  H     -4.869681   -1.303065    1.443739
  H     -2.474912   -1.679161   -2.100033
  H     -0.681577   -0.407896    1.394091
  H     -2.861899   -0.424115    2.619863
  H     -0.576333   -0.653508   -2.175905
  H      0.856984   -4.460252    0.656407
  H      2.251725   -3.376268    0.374384
  C     -1.045532    1.215765    0.116387
  C      0.104633    0.881041   -0.793011
  C      1.561790    1.097110   -0.474467
  C      2.291380    1.970549   -1.268585
  C      3.629088    2.248186   -1.017676
  C      4.257098    1.634859    0.052538
  C      3.555882    0.753535    0.865933
  C      2.218781    0.487008    0.602236
  O      1.468789   -0.363685    1.340861
  C      2.068257   -1.025052    2.440099
  N     -2.219223    1.409455   -0.507116
  O     -2.336790    1.097727   -1.730880
  H     -0.064239    1.375200   -1.750718
  H      1.792309    2.444302   -2.107759
  H      4.171343    2.934698   -1.656727
  H      5.300968    1.835689    0.265288
  H      4.056072    0.278716    1.699312
  H      2.398658   -0.306472    3.194637
  H      2.916399   -1.634504    2.117688
  H      1.296341   -1.667470    2.859199
  O     -3.218685    1.849863    0.128466
  H      1.493708   -4.222194   -0.998794
  H     -4.660053   -2.021677   -0.951679
  C     -0.863079    1.876949    1.437728
  H     -0.023625    1.448408    1.979103
  H     -0.682463    2.951653    1.325975
  H     -1.758513    1.770668    2.056367

----------------------------
CARTESIAN COORDINATES (A.U.)
----------------------------
  NO LB      ZA    FRAG     MASS         X           Y           Z
   0 C     6.0000    0    12.011   -7.421028   -2.265451    1.738089
   1 C     6.0000    0    12.011   -7.218015   -3.036520   -0.781334
   2 C     6.0000    0    12.011   -4.959528   -2.724928   -1.994381
   3 N     7.0000    0    14.007   -2.936134   -1.800193   -0.763710
   4 C     6.0000    0    12.011   -3.060478   -1.080610    1.680709
   5 C     6.0000    0    12.011   -5.337395   -1.321652    2.975861
   6 C     6.0000    0    12.011   -0.627776   -1.183547   -2.105718
   7 C     6.0000    0    12.011    1.393892   -3.190421   -1.805562
   8 O     8.0000    0    15.999    3.354884   -3.103970   -2.958036
   9 O     8.0000    0    15.999    0.698900   -5.076804   -0.320331
  10 C     6.0000    0    12.011    2.481991   -7.093340   -0.059198
  11 H     1.0000    0     1.008   -9.202363   -2.462436    2.728271
  12 H     1.0000    0     1.008   -4.676906   -3.173154   -3.968487
  13 H     1.0000    0     1.008   -1.287994   -0.770812    2.634450
  14 H     1.0000    0     1.008   -5.408205   -0.801461    4.950824
  15 H     1.0000    0     1.008   -1.089112   -1.234951   -4.111865
  16 H     1.0000    0     1.008    1.619465   -8.428655    1.240429
  17 H     1.0000    0     1.008    4.255144   -6.380222    0.707483
  18 C     6.0000    0    12.011   -1.975770    2.297462    0.219939
  19 C     6.0000    0    12.011    0.197728    1.664926   -1.498574
  20 C     6.0000    0    12.011    2.951355    2.073237   -0.896613
  21 C     6.0000    0    12.011    4.330081    3.723798   -2.397278
  22 C     6.0000    0    12.011    6.857982    4.248456   -1.923129
  23 C     6.0000    0    12.011    8.044749    3.089436    0.099282
  24 C     6.0000    0    12.011    6.719643    1.423975    1.636376
  25 C     6.0000    0    12.011    4.192888    0.920312    1.138061
  26 O     8.0000    0    15.999    2.775609   -0.687265    2.533860
  27 C     6.0000    0    12.011    3.908439   -1.937068    4.611119
  28 N     7.0000    0    14.007   -4.193723    2.663484   -0.958310
  29 O     8.0000    0    15.999   -4.415893    2.074404   -3.270888
  30 H     1.0000    0     1.008   -0.121394    2.598751   -3.308378
  31 H     1.0000    0     1.008    3.386973    4.619061   -3.983087
  32 H     1.0000    0     1.008    7.882696    5.545776   -3.130760
  33 H     1.0000    0     1.008   10.017378    3.468949    0.501322
  34 H     1.0000    0     1.008    7.664865    0.526697    3.211234
  35 H     1.0000    0     1.008    4.532807   -0.579148    6.036989
  36 H     1.0000    0     1.008    5.511195   -3.088765    4.001850
  37 H     1.0000    0     1.008    2.449729   -3.151062    5.403103
  38 O     8.0000    0    15.999   -6.082434    3.495735    0.242766
  39 H     1.0000    0     1.008    2.822699   -7.978790   -1.887447
  40 H     1.0000    0     1.008   -8.806224   -3.820416   -1.798413
  41 C     6.0000    0    12.011   -1.630983    3.546919    2.716913
  42 H     1.0000    0     1.008   -0.044644    2.737095    3.739962
  43 H     1.0000    0     1.008   -1.289668    5.577815    2.505730
  44 H     1.0000    0     1.008   -3.323108    3.346077    3.885970

--------------------------------
INTERNAL COORDINATES (ANGSTROEM)
--------------------------------
 C      0   0   0     0.000000000000     0.00000000     0.00000000
 C      1   0   0     1.398395349236     0.00000000     0.00000000
 C      2   1   0     1.366603372328   118.67265793     0.00000000
 N      3   2   1     1.345381428297   120.83181971     2.92882396
 C      4   3   2     1.350018824806   121.84387435   358.17380586
 C      1   2   3     1.376304706194   119.87237114   357.11116837
 C      4   3   2     1.450153180090   121.00976116   187.41791754
 C      7   4   3     1.515774671579   112.67777597   258.40333624
 O      8   7   4     1.204521462331   121.89630686   173.58945297
 O      8   7   4     1.322664071840   113.25285224   358.05702476
 C     10   8   7     1.431130561361   115.89930746   177.09757508
 H      1   2   3     1.083511446219   119.98820678   178.89260507
 H      3   2   1     1.081630559773   123.23825646   183.56442820
 H      5   4   3     1.077664580847   116.69342026   166.41000765
 H      6   1   2     1.081398983445   121.63815958   183.25724429
 H      7   4   3     1.089654923192   106.42563587    11.82177524
 H     11  10   8     1.086560218881   105.60859305   178.78132974
 H     11  10   8     1.089694962547   110.20967804    59.34317061
 C      5   4   3     2.030400630165    82.51685995   239.32854041
 C     19   5   4     1.503969369294   104.50467758   312.36322321
 C     20  19   5     1.507137225121   125.42838021   257.26540359
 C     21  20  19     1.387739403759   118.52820349   242.44812338
 C     22  21  20     1.389064549729   121.92019546   178.31084530
 C     23  22  21     1.384169272461   119.21126824     0.18096391
 C     24  23  22     1.389261421640   120.31666531   359.92663532
 C     25  24  23     1.388672687763   119.77353645     0.04042505
 O     26  25  24     1.353415483485   123.40631269   179.59877557
 C     27  26  25     1.416012843288   118.85767765   359.82764806
 N     19   5   4     1.343063688359    93.24813323    69.03602555
 O     29  19   5     1.268303746502   119.57067124   263.60043416
 H     20  19   5     1.090831594479   108.15917730   131.64313142
 H     22  21  20     1.085231205931   118.39055656   358.27002021
 H     23  22  21     1.083386076969   120.14032956   179.97524484
 H     24  23  22     1.084094012667   120.43256411   179.87979946
 H     25  24  23     1.081741039483   119.74428405   179.94671223
 H     28  27  26     1.093091775948   110.90261841    62.62782266
 H     28  27  26     1.093034969884   111.09656331   300.45965825
 H     28  27  26     1.088209542221   105.92617167   181.55681731
 O     29  19   5     1.263665212971   120.52706405    80.83193151
 H     11  10   8     1.089976647295   110.11403982   298.20247494
 H      2   1   3     1.080785425402   121.80480706   181.65661575
 C     19   5   4     1.488757048395    95.03429859   186.58978351
 H     42  19   5     1.086929883629   111.19947775    67.85144202
 H     42  19   5     1.095490713241   111.42953099   188.49724465
 H     42  19   5     1.093531816690   111.01368013   307.33116245

---------------------------
INTERNAL COORDINATES (A.U.)
---------------------------
 C      0   0   0     0.000000000000     0.00000000     0.00000000
 C      1   0   0     2.642584237005     0.00000000     0.00000000
 C      2   1   0     2.582506107393   118.67265793     0.00000000
 N      3   2   1     2.542402445145   120.83181971     2.92882396
 C      4   3   2     2.551165854521   121.84387435   358.17380586
 C      1   2   3     2.600838971533   119.87237114   357.11116837
 C      4   3   2     2.740392362605   121.00976116   187.41791754
 C      7   4   3     2.864399010019   112.67777597   258.40333624
 O      8   7   4     2.276215686237   121.89630686   173.58945297
 O      8   7   4     2.499472862955   113.25285224   358.05702476
 C     10   8   7     2.704444822858   115.89930746   177.09757508
 H      1   2   3     2.047539896323   119.98820678   178.89260507
 H      3   2   1     2.043985536050   123.23825646   183.56442820
 H      5   4   3     2.036490922028   116.69342026   166.41000765
 H      6   1   2     2.043547920211   121.63815958   183.25724429
 H      7   4   3     2.059149385312   106.42563587    11.82177524
 H     11  10   8     2.053301241698   105.60859305   178.78132974
 H     11  10   8     2.059225048727   110.20967804    59.34317061
 C      5   4   3     3.836901133152    82.51685995   239.32854041
 C     19   5   4     2.842090221772   104.50467758   312.36322321
 C     20  19   5     2.848076601717   125.42838021   257.26540359
 C     21  20  19     2.622447418355   118.52820349   242.44812338
 C     22  21  20     2.624951581327   121.92019546   178.31084530
 C     23  22  21     2.615700847940   119.21126824     0.18096391
 C     24  23  22     2.625323615322   120.31666531   359.92663532
 C     25  24  23     2.624211069528   119.77353645     0.04042505
 O     26  25  24     2.557584609196   123.40631269   179.59877557
 C     27  26  25     2.675876475930   118.85767765   359.82764806
 N     19   5   4     2.538022551413    93.24813323    69.03602555
 O     29  19   5     2.396746735515   119.57067124   263.60043416
 H     20  19   5     2.061372971794   108.15917730   131.64313142
 H     22  21  20     2.050789771194   118.39055656   358.27002021
 H     23  22  21     2.047302982774   120.14032956   179.97524484
 H     24  23  22     2.048640787364   120.43256411   179.87979946
 H     25  24  23     2.044194312446   119.74428405   179.94671223
 H     28  27  26     2.065644095783   110.90261841    62.62782266
 H     28  27  26     2.065536747879   111.09656331   300.45965825
 H     28  27  26     2.056418011117   105.92617167   181.55681731
 O     29  19   5     2.387981177478   120.52706405    80.83193151
 H     11  10   8     2.059757355758   110.11403982   298.20247494
 H      2   1   3     2.042388463543   121.80480706   181.65661575
 C     19   5   4     2.813343101411    95.03429859   186.58978351
 H     42  19   5     2.053999806833   111.19947775    67.85144202
 H     42  19   5     2.070177430279   111.42953099   188.49724465
 H     42  19   5     2.066475652274   111.01368013   307.33116245

---------------------
BASIS SET INFORMATION
---------------------
There are 4 groups of distinct atoms

 Group   1 Type C   : 11s6p2d1f contracted to 5s3p2d1f pattern {62111/411/11/1}
 Group   2 Type N   : 11s6p2d1f contracted to 5s3p2d1f pattern {62111/411/11/1}
 Group   3 Type O   : 11s6p2d1f contracted to 5s3p2d1f pattern {62111/411/11/1}
 Group   4 Type H   : 5s1p contracted to 3s1p pattern {311/1}

Atom   0C    basis set group =>   1
Atom   1C    basis set group =>   1
Atom   2C    basis set group =>   1
Atom   3N    basis set group =>   2
Atom   4C    basis set group =>   1
Atom   5C    basis set group =>   1
Atom   6C    basis set group =>   1
Atom   7C    basis set group =>   1
Atom   8O    basis set group =>   3
Atom   9O    basis set group =>   3
Atom  10C    basis set group =>   1
Atom  11H    basis set group =>   4
Atom  12H    basis set group =>   4
Atom  13H    basis set group =>   4
Atom  14H    basis set group =>   4
Atom  15H    basis set group =>   4
Atom  16H    basis set group =>   4
Atom  17H    basis set group =>   4
Atom  18C    basis set group =>   1
Atom  19C    basis set group =>   1
Atom  20C    basis set group =>   1
Atom  21C    basis set group =>   1
Atom  22C    basis set group =>   1
Atom  23C    basis set group =>   1
Atom  24C    basis set group =>   1
Atom  25C    basis set group =>   1
Atom  26O    basis set group =>   3
Atom  27C    basis set group =>   1
Atom  28N    basis set group =>   2
Atom  29O    basis set group =>   3
Atom  30H    basis set group =>   4
Atom  31H    basis set group =>   4
Atom  32H    basis set group =>   4
Atom  33H    basis set group =>   4
Atom  34H    basis set group =>   4
Atom  35H    basis set group =>   4
Atom  36H    basis set group =>   4
Atom  37H    basis set group =>   4
Atom  38O    basis set group =>   3
Atom  39H    basis set group =>   4
Atom  40H    basis set group =>   4
Atom  41C    basis set group =>   1
Atom  42H    basis set group =>   4
Atom  43H    basis set group =>   4
Atom  44H    basis set group =>   4
---------------------------------
AUXILIARY/J BASIS SET INFORMATION
---------------------------------
There are 4 groups of distinct atoms

 Group   1 Type C   : 12s5p4d2f1g contracted to 6s4p3d1f1g pattern {711111/2111/211/2/1}
 Group   2 Type N   : 12s5p4d2f1g contracted to 6s4p3d1f1g pattern {711111/2111/211/2/1}
 Group   3 Type O   : 12s5p4d2f1g contracted to 6s4p3d1f1g pattern {711111/2111/211/2/1}
 Group   4 Type H   : 5s2p1d contracted to 3s1p1d pattern {311/2/1}

Atom   0C    basis set group =>   1
Atom   1C    basis set group =>   1
Atom   2C    basis set group =>   1
Atom   3N    basis set group =>   2
Atom   4C    basis set group =>   1
Atom   5C    basis set group =>   1
Atom   6C    basis set group =>   1
Atom   7C    basis set group =>   1
Atom   8O    basis set group =>   3
Atom   9O    basis set group =>   3
Atom  10C    basis set group =>   1
Atom  11H    basis set group =>   4
Atom  12H    basis set group =>   4
Atom  13H    basis set group =>   4
Atom  14H    basis set group =>   4
Atom  15H    basis set group =>   4
Atom  16H    basis set group =>   4
Atom  17H    basis set group =>   4
Atom  18C    basis set group =>   1
Atom  19C    basis set group =>   1
Atom  20C    basis set group =>   1
Atom  21C    basis set group =>   1
Atom  22C    basis set group =>   1
Atom  23C    basis set group =>   1
Atom  24C    basis set group =>   1
Atom  25C    basis set group =>   1
Atom  26O    basis set group =>   3
Atom  27C    basis set group =>   1
Atom  28N    basis set group =>   2
Atom  29O    basis set group =>   3
Atom  30H    basis set group =>   4
Atom  31H    basis set group =>   4
Atom  32H    basis set group =>   4
Atom  33H    basis set group =>   4
Atom  34H    basis set group =>   4
Atom  35H    basis set group =>   4
Atom  36H    basis set group =>   4
Atom  37H    basis set group =>   4
Atom  38O    basis set group =>   3
Atom  39H    basis set group =>   4
Atom  40H    basis set group =>   4
Atom  41C    basis set group =>   1
Atom  42H    basis set group =>   4
Atom  43H    basis set group =>   4
Atom  44H    basis set group =>   4


           ************************************************************
           *        Program running with 28 parallel MPI-processes    *
           *              working on a common directory               *
           ************************************************************
------------------------------------------------------------------------------
                           ORCA GTO INTEGRAL CALCULATION
                           -- RI-GTO INTEGRALS CHOSEN --
------------------------------------------------------------------------------
------------------------------------------------------------------------------
                   ___                                                        
                  /   \      - P O W E R E D   B Y -                         
                 /     \                                                     
                 |  |  |   _    _      __       _____    __    __             
                 |  |  |  | |  | |    /  \     |  _  \  |  |  /  |          
                  \  \/   | |  | |   /    \    | | | |  |  | /  /          
                 / \  \   | |__| |  /  /\  \   | |_| |  |  |/  /          
                |  |  |   |  __  | /  /__\  \  |    /   |      \           
                |  |  |   | |  | | |   __   |  |    \   |  |\   \          
                \     /   | |  | | |  |  |  |  | |\  \  |  | \   \       
                 \___/    |_|  |_| |__|  |__|  |_| \__\ |__|  \__/        
                                                                              
                      - O R C A' S   B I G   F R I E N D -                    
                                      &                                       
                       - I N T E G R A L  F E E D E R -                       
                                                                              
 v1 FN, 2020, v2 2021                                                         
------------------------------------------------------------------------------


Reading SHARK input file TS1_Me.SHARKINP.tmp ... ok
----------------------
SHARK INTEGRAL PACKAGE
----------------------

Number of atoms                             ...     45
Number of basis functions                   ...    895
Number of shells                            ...    355
Maximum angular momentum                    ...      3
Integral batch strategy                     ... SHARK/LIBINT Hybrid
RI-J (if used) integral strategy            ... SPLIT-RIJ (Revised 2003 algorithm where possible)
Printlevel                                  ...      1
Contraction scheme used                     ... SEGMENTED contraction
Coulomb Range Separation                    ... NOT USED
Exchange Range Separation                   ... NOT USED
Finite Nucleus Model                        ... NOT USED
Auxiliary Coulomb fitting basis             ... AVAILABLE
   # of basis functions in Aux-J            ...   1445
   # of shells in Aux-J                     ...    475
   Maximum angular momentum in Aux-J        ...      4
Auxiliary J/K fitting basis                 ... NOT available
Auxiliary Correlation fitting basis         ... NOT available
Auxiliary 'external' fitting basis          ... NOT available
Integral threshold                          ...     2.500000e-11
Primitive cut-off                           ...     2.500000e-12
Primitive pair pre-selection threshold      ...     2.500000e-12

Calculating pre-screening integrals         ... done (  0.1 sec) Dimension = 355
Organizing shell pair data                  ... done (  0.7 sec)
Shell pair information
Total number of shell pairs                 ...     63190
Shell pairs after pre-screening             ...     47637
Total number of primitive shell pairs       ...    193120
Primitive shell pairs kept                  ...     96128
          la=0 lb=0:  12410 shell pairs
          la=1 lb=0:  13674 shell pairs
          la=1 lb=1:   3786 shell pairs
          la=2 lb=0:   6820 shell pairs
          la=2 lb=1:   3801 shell pairs
          la=2 lb=2:    972 shell pairs
          la=3 lb=0:   3191 shell pairs
          la=3 lb=1:   1827 shell pairs
          la=3 lb=2:    919 shell pairs
          la=3 lb=3:    237 shell pairs

Calculating one electron integrals          ... done (  0.1 sec)
Calculating RI/J V-Matrix + Cholesky decomp.... done (  0.2 sec)
Calculating Nuclear repulsion               ... done (  0.0 sec) ENN=   2474.617770857988 Eh

SHARK setup successfully completed in   1.9 seconds

Maximum memory used throughout the entire GTOINT-calculation: 71.0 MB


           ************************************************************
           *        Program running with 28 parallel MPI-processes    *
           *              working on a common directory               *
           ************************************************************
-------------------------------------------------------------------------------
                                 ORCA SCF
-------------------------------------------------------------------------------

------------
SCF SETTINGS
------------
Hamiltonian:
 Density Functional     Method          .... DFT(GTOs)
 Exchange Functional    Exchange        .... PBE
   PBE kappa parameter   XKappa         ....  0.804000
   PBE mue parameter    XMuePBE         ....  0.219520
 Correlation Functional Correlation     .... PBE
   PBE beta parameter  CBetaPBE         ....  0.066725
 LDA part of GGA corr.  LDAOpt          .... PW91-LDA
 Gradients option       PostSCFGGA      .... off
 Hybrid DFT is turned on
   Fraction HF Exchange ScalHFX         ....  0.250000
   Scaling of DF-GGA-X  ScalDFX         ....  0.750000
   Scaling of DF-GGA-C  ScalDFC         ....  1.000000
   Scaling of DF-LDA-C  ScalLDAC        ....  1.000000
   Perturbative correction              ....  0.000000
   Density functional embedding theory  .... OFF
   NL short-range parameter             ....  6.900000
 RI-approximation to the Coulomb term is turned on
   Number of AuxJ basis functions       .... 1445
   RIJ-COSX (HFX calculated with COS-X)).... on


General Settings:
 Integral files         IntName         .... TS1_Me
 Hartree-Fock type      HFTyp           .... RHF
 Total Charge           Charge          ....    0
 Multiplicity           Mult            ....    1
 Number of Electrons    NEL             ....  182
 Basis Dimension        Dim             ....  895
 Nuclear Repulsion      ENuc            ....   2474.6177708580 Eh

Convergence Acceleration:
 DIIS                   CNVDIIS         .... on
   Start iteration      DIISMaxIt       ....    12
   Startup error        DIISStart       ....  0.200000
   # of expansion vecs  DIISMaxEq       ....     5
   Bias factor          DIISBfac        ....   1.050
   Max. coefficient     DIISMaxC        ....  10.000
 Trust-Rad. Augm. Hess. CNVTRAH         .... auto
   Auto Start mean grad. ratio tolernc. ....  1.125000
   Auto Start start iteration           ....    20
   Auto Start num. interpolation iter.  ....    10
   Max. Number of Micro iterations      ....    16
   Max. Number of Macro iterations      .... Maxiter - #DIIS iter
   Number of Davidson start vectors     ....     2
   Converg. threshold I  (grad. norm)   ....   1.000e-05
   Converg. threshold II (energy diff.) ....   1.000e-08
   Grad. Scal. Fac. for Micro threshold ....   0.100
   Minimum threshold for Micro iter.    ....   0.010
   NR start threshold (gradient norm)   ....   0.001
   Initial trust radius                 ....   0.400
   Minimum AH scaling param. (alpha)    ....   1.000
   Maximum AH scaling param. (alpha)    .... 1000.000
   Orbital update algorithm             .... Taylor
   White noise on init. David. guess    .... on
   Maximum white noise                  ....   0.010
   Quad. conv. algorithm                .... NR
 SOSCF                  CNVSOSCF        .... on
   Start iteration      SOSCFMaxIt      ....   150
   Startup grad/error   SOSCFStart      ....  0.003300
 Level Shifting         CNVShift        .... on
   Level shift para.    LevelShift      ....    0.2500
   Turn off err/grad.   ShiftErr        ....    0.0010
 Zerner damping         CNVZerner       .... off
 Static damping         CNVDamp         .... on
   Fraction old density DampFac         ....    0.7000
   Max. Damping (<1)    DampMax         ....    0.9800
   Min. Damping (>=0)   DampMin         ....    0.0000
   Turn off err/grad.   DampErr         ....    0.1000
 Fernandez-Rico         CNVRico         .... off

SCF Procedure:
 Maximum # iterations   MaxIter         ....   800
 SCF integral mode      SCFMode         .... Direct
   Integral package                     .... SHARK and LIBINT hybrid scheme
 Reset frequency        DirectResetFreq ....    20
 Integral Threshold     Thresh          ....  2.500e-11 Eh
 Primitive CutOff       TCut            ....  2.500e-12 Eh

Convergence Tolerance:
 Convergence Check Mode ConvCheckMode   .... Total+1el-Energy
 Convergence forced     ConvForced      .... 0
 Energy Change          TolE            ....  1.000e-08 Eh
 1-El. energy change                    ....  1.000e-05 Eh
 Orbital Gradient       TolG            ....  1.000e-05
 Orbital Rotation angle TolX            ....  1.000e-05
 DIIS Error             TolErr          ....  5.000e-07


Diagonalization of the overlap matrix:
Smallest eigenvalue                        ... 5.465e-06
Time for diagonalization                   ...    0.214 sec
Threshold for overlap eigenvalues          ... 1.000e-08
Number of eigenvalues below threshold      ... 0
Time for construction of square roots      ...    0.192 sec
Total time needed                          ...    0.411 sec

Time for model grid setup =    0.335 sec

------------------------------
INITIAL GUESS: MODEL POTENTIAL
------------------------------
Loading Hartree-Fock densities                     ... done
Calculating cut-offs                               ... done
Initializing the effective Hamiltonian             ... done
Setting up the integral package (SHARK)            ... done
Starting the Coulomb interaction                   ... done (   0.4 sec)
Reading the grid                                   ... done
Mapping shells                                     ... done
Starting the XC term evaluation                    ... done (   0.2 sec)
  promolecular density results
     # of electrons  =    181.985961753
     EX              =   -151.977878049
     EC              =     -6.192047057
     EX+EC           =   -158.169925105
Transforming the Hamiltonian                       ... done (   0.2 sec)
Diagonalizing the Hamiltonian                      ... done (   0.2 sec)
Back transforming the eigenvectors                 ... done (   0.1 sec)
Now organizing SCF variables                       ... done
                      ------------------
                      INITIAL GUESS DONE (   1.5 sec)
                      ------------------
-------------------
DFT GRID GENERATION
-------------------

General Integration Accuracy     IntAcc      ... 4.388
Radial Grid Type                 RadialGrid  ... OptM3 with GC (2021)
Angular Grid (max. ang.)         AngularGrid ... 4 (Lebedev-302)
Angular grid pruning method      GridPruning ... 4 (adaptive)
Weight generation scheme         WeightScheme... Becke
Basis function cutoff            BFCut       ... 1.0000e-11
Integration weight cutoff        WCut        ... 1.0000e-14
Angular grids for H and He will be reduced by one unit
Partially contracted basis set               ... off
Rotationally invariant grid construction     ... off

Total number of grid points                  ...   211732
Total number of batches                      ...     3333
Average number of points per batch           ...       63
Average number of grid points per atom       ...     4705
Time for grid setup =    1.397 sec

--------------------
COSX GRID GENERATION
--------------------

GRIDX 1
-------
General Integration Accuracy     IntAcc      ... 3.816
Radial Grid Type                 RadialGrid  ... OptM3 with GC (2021)
Angular Grid (max. ang.)         AngularGrid ... 1 (Lebedev-50)
Angular grid pruning method      GridPruning ... 4 (adaptive)
Weight generation scheme         WeightScheme... Becke
Basis function cutoff            BFCut       ... 1.0000e-11
Integration weight cutoff        WCut        ... 1.0000e-14
Angular grids for H and He will be reduced by one unit
Partially contracted basis set               ... on
Rotationally invariant grid construction     ... off

Total number of grid points                  ...    26855
Total number of batches                      ...      443
Average number of points per batch           ...       60
Average number of grid points per atom       ...      597
UseSFitting                                  ... on

GRIDX 2
-------
General Integration Accuracy     IntAcc      ... 4.020
Radial Grid Type                 RadialGrid  ... OptM3 with GC (2021)
Angular Grid (max. ang.)         AngularGrid ... 2 (Lebedev-110)
Angular grid pruning method      GridPruning ... 4 (adaptive)
Weight generation scheme         WeightScheme... Becke
Basis function cutoff            BFCut       ... 1.0000e-11
Integration weight cutoff        WCut        ... 1.0000e-14
Angular grids for H and He will be reduced by one unit
Partially contracted basis set               ... on
Rotationally invariant grid construction     ... off

Total number of grid points                  ...    57849
Total number of batches                      ...      927
Average number of points per batch           ...       62
Average number of grid points per atom       ...     1286
UseSFitting                                  ... on

GRIDX 3
-------
General Integration Accuracy     IntAcc      ... 4.338
Radial Grid Type                 RadialGrid  ... OptM3 with GC (2021)
Angular Grid (max. ang.)         AngularGrid ... 3 (Lebedev-194)
Angular grid pruning method      GridPruning ... 4 (adaptive)
Weight generation scheme         WeightScheme... Becke
Basis function cutoff            BFCut       ... 1.0000e-11
Integration weight cutoff        WCut        ... 1.0000e-14
Angular grids for H and He will be reduced by one unit
Partially contracted basis set               ... on
Rotationally invariant grid construction     ... off

Total number of grid points                  ...   126035
Total number of batches                      ...     1991
Average number of points per batch           ...       63
Average number of grid points per atom       ...     2801
UseSFitting                                  ... on

Time for X-Grid setup             =    2.431 sec


--------------------
CPCM SOLVATION MODEL
--------------------
CPCM parameters:
  Epsilon                                         ...      47.2000
  Refrac                                          ...       1.4790
  Rsolv                                           ...       1.3000
  Surface type                                    ... GAUSSIAN VDW
  Epsilon function type                           ...         CPCM
Radii:
 Radius for C  used is    3.8550 Bohr (=   2.0400 Ang.)
 Radius for N  used is    3.5149 Bohr (=   1.8600 Ang.)
 Radius for O  used is    3.4469 Bohr (=   1.8240 Ang.)
 Radius for H  used is    2.4944 Bohr (=   1.3200 Ang.)
Calculating surface                               ...        done! (  0.0s)
GEPOL surface points                              ...         2178
GEPOL Volume                                      ...    2594.7039
GEPOL Surface-area                                ...    1233.0979
Calculating surface distance matrix               ...        done! (  0.1s)
Performing Cholesky decomposition & store         ...        done! (  0.3s)
Overall time for CPCM initialization              ...                 0.4s
--------------
SCF ITERATIONS
--------------
ITER       Energy         Delta-E        Max-DP      RMS-DP      [F,P]     Damp
               ***  Starting incremental Fock matrix formation  ***
  0  -1181.9667954863   0.000000000000 0.11561530  0.00076045  0.2667452 0.7000
  1  -1182.2180136540  -0.251218167744 0.09482664  0.00066565  0.1062676 0.7000
                               ***Turning on DIIS***
  2  -1182.3199335732  -0.101919919142 0.15495623  0.00122571  0.0384114 0.0000
  3  -1182.4872310508  -0.167297477652 0.11854337  0.00053230  0.0506737 0.0000
  4  -1182.5173939177  -0.030162866924 0.05024395  0.00020089  0.0152506 0.0000
  5  -1182.5193629249  -0.001969007127 0.00953844  0.00005799  0.0065625 0.0000
                      *** Initiating the SOSCF procedure ***
                           *** Shutting down DIIS ***
                      *** Re-Reading the Fockian *** 
                      *** Removing any level shift *** 
ITER      Energy       Delta-E        Grad      Rot      Max-DP    RMS-DP
  6  -1182.51954208  -0.0001791528  0.000217  0.000217  0.004499  0.000034
               *** Restarting incremental Fock matrix formation ***
  7  -1182.51958352  -0.0000414457  0.000238  0.000969  0.002008  0.000021
  8  -1182.51957359   0.0000099359  0.000413  0.000623  0.000811  0.000008
  9  -1182.51958932  -0.0000157368  0.000063  0.000238  0.000587  0.000003
 10  -1182.51958885   0.0000004737  0.000117  0.000149  0.000231  0.000002
 11  -1182.51958949  -0.0000006437  0.000010  0.000038  0.000236  0.000002
 12  -1182.51958949   0.0000000062  0.000017  0.000026  0.000101  0.000001
                  ***Gradient check signals convergence***
              ***Rediagonalizing the Fockian in SOSCF/NRSCF***

               *****************************************************
               *                     SUCCESS                       *
               *           SCF CONVERGED AFTER  13 CYCLES          *
               *****************************************************

Old exchange energy                            =    -38.730683257 Eh
New exchange energy                            =    -38.730659096 Eh
Exchange energy change after final integration =      0.000024161 Eh
Total energy after final integration           =  -1182.519565340 Eh
Final COS-X integration done in                =    15.804 sec

----------------
TOTAL SCF ENERGY
----------------

Total Energy       :        -1182.51956534 Eh          -32177.99327 eV

Components:
Nuclear Repulsion  :         2474.61777086 Eh           67337.77293 eV
Electronic Energy  :        -3657.13733620 Eh          -99515.76620 eV
One Electron Energy:        -6534.22614042 Eh         -177805.33273 eV
Two Electron Energy:         2877.08880422 Eh           78289.56653 eV
Max COSX asymmetry :            0.00000247 Eh               0.00007 eV
CPCM Dielectric    :           -0.04543597 Eh              -1.23638 eV

Virial components:
Potential Energy   :        -2360.15407636 Eh          -64223.05745 eV
Kinetic Energy     :         1177.63451102 Eh           32045.06418 eV
Virial Ratio       :            2.00414819


DFT components:
N(Alpha)           :       90.999954106006 electrons
N(Beta)            :       90.999954106006 electrons
N(Total)           :      181.999908212011 electrons
E(X)               :     -115.989015428937 Eh       
E(C)               :       -6.174895138221 Eh       
E(XC)              :     -122.163910567158 Eh       
DFET-embed. en.    :        0.000000000000 Eh       
CPCM Solvation Model Properties:
Surface-charge          :           -0.03041540
Charge-correction       :           -0.00038723 Eh              -0.01054 eV
Free-energy (cav+disp)  :  This term is not implemented in the current solvation scheme

---------------
SCF CONVERGENCE
---------------

  Last Energy change         ...   -1.2924e-08  Tolerance :   1.0000e-08
  Last MAX-Density change    ...    2.5535e-15  Tolerance :   1.0000e-07
  Last RMS-Density change    ...    1.6014e-17  Tolerance :   5.0000e-09
  Last Orbital Gradient      ...    1.6513e-06  Tolerance :   1.0000e-05
  Last Orbital Rotation      ...    5.3511e-06  Tolerance :   1.0000e-05

             **** THE GBW FILE WAS UPDATED (TS1_Me.gbw) ****
             **** DENSITY TS1_Me.scfp WAS UPDATED ****
             **** ENERGY FILE WAS UPDATED (TS1_Me.en.tmp) ****
             **** THE GBW FILE WAS UPDATED (TS1_Me.gbw) ****
             **** DENSITY TS1_Me.scfp WAS UPDATED ****
----------------
ORBITAL ENERGIES
----------------

  NO   OCC          E(Eh)            E(eV) 
   0   2.0000     -19.265628      -524.2444 
   1   2.0000     -19.252624      -523.8905 
   2   2.0000     -19.203357      -522.5499 
   3   2.0000     -19.187250      -522.1116 
   4   2.0000     -19.184044      -522.0244 
   5   2.0000     -14.558116      -396.1465 
   6   2.0000     -14.472175      -393.8079 
   7   2.0000     -10.363661      -282.0095 
   8   2.0000     -10.294800      -280.1358 
   9   2.0000     -10.294213      -280.1198 
  10   2.0000     -10.293283      -280.0945 
  11   2.0000     -10.290434      -280.0169 
  12   2.0000     -10.271651      -279.5058 
  13   2.0000     -10.269894      -279.4580 
  14   2.0000     -10.263673      -279.2887 
  15   2.0000     -10.261954      -279.2420 
  16   2.0000     -10.256027      -279.0807 
  17   2.0000     -10.244202      -278.7589 
  18   2.0000     -10.235161      -278.5129 
  19   2.0000     -10.231468      -278.4124 
  20   2.0000     -10.231224      -278.4058 
  21   2.0000     -10.229082      -278.3475 
  22   2.0000     -10.227528      -278.3052 
  23   2.0000     -10.222668      -278.1729 
  24   2.0000     -10.212644      -277.9002 
  25   2.0000      -1.200469       -32.6664 
  26   2.0000      -1.157183       -31.4886 
  27   2.0000      -1.114584       -30.3294 
  28   2.0000      -1.064099       -28.9556 
  29   2.0000      -1.060676       -28.8625 
  30   2.0000      -1.016184       -27.6518 
  31   2.0000      -0.902638       -24.5620 
  32   2.0000      -0.883148       -24.0317 
  33   2.0000      -0.866171       -23.5697 
  34   2.0000      -0.822439       -22.3797 
  35   2.0000      -0.811235       -22.0748 
  36   2.0000      -0.789939       -21.4953 
  37   2.0000      -0.781436       -21.2640 
  38   2.0000      -0.754295       -20.5254 
  39   2.0000      -0.729351       -19.8466 
  40   2.0000      -0.724947       -19.7268 
  41   2.0000      -0.702555       -19.1175 
  42   2.0000      -0.687439       -18.7062 
  43   2.0000      -0.664732       -18.0883 
  44   2.0000      -0.632324       -17.2064 
  45   2.0000      -0.618703       -16.8358 
  46   2.0000      -0.605309       -16.4713 
  47   2.0000      -0.585981       -15.9454 
  48   2.0000      -0.564533       -15.3617 
  49   2.0000      -0.555757       -15.1229 
  50   2.0000      -0.547989       -14.9115 
  51   2.0000      -0.543359       -14.7856 
  52   2.0000      -0.537301       -14.6207 
  53   2.0000      -0.523039       -14.2326 
  54   2.0000      -0.522100       -14.2071 
  55   2.0000      -0.511367       -13.9150 
  56   2.0000      -0.502981       -13.6868 
  57   2.0000      -0.499746       -13.5988 
  58   2.0000      -0.497502       -13.5377 
  59   2.0000      -0.487815       -13.2741 
  60   2.0000      -0.486394       -13.2355 
  61   2.0000      -0.472194       -12.8490 
  62   2.0000      -0.464779       -12.6473 
  63   2.0000      -0.462456       -12.5841 
  64   2.0000      -0.450745       -12.2654 
  65   2.0000      -0.446288       -12.1441 
  66   2.0000      -0.434074       -11.8118 
  67   2.0000      -0.428358       -11.6562 
  68   2.0000      -0.417153       -11.3513 
  69   2.0000      -0.414282       -11.2732 
  70   2.0000      -0.408896       -11.1266 
  71   2.0000      -0.398104       -10.8329 
  72   2.0000      -0.396289       -10.7836 
  73   2.0000      -0.390628       -10.6295 
  74   2.0000      -0.388545       -10.5728 
  75   2.0000      -0.384868       -10.4728 
  76   2.0000      -0.378888       -10.3101 
  77   2.0000      -0.372262       -10.1298 
  78   2.0000      -0.363344        -9.8871 
  79   2.0000      -0.347832        -9.4650 
  80   2.0000      -0.343796        -9.3552 
  81   2.0000      -0.338336        -9.2066 
  82   2.0000      -0.332242        -9.0408 
  83   2.0000      -0.318066        -8.6550 
  84   2.0000      -0.306209        -8.3324 
  85   2.0000      -0.302917        -8.2428 
  86   2.0000      -0.275020        -7.4837 
  87   2.0000      -0.271594        -7.3905 
  88   2.0000      -0.265316        -7.2196 
  89   2.0000      -0.243101        -6.6151 
  90   2.0000      -0.197822        -5.3830 
  91   0.0000      -0.068703        -1.8695 
  92   0.0000      -0.025116        -0.6834 
  93   0.0000      -0.015942        -0.4338 
  94   0.0000      -0.001992        -0.0542 
  95   0.0000       0.003864         0.1052 
  96   0.0000       0.025541         0.6950 
  97   0.0000       0.044136         1.2010 
  98   0.0000       0.057671         1.5693 
  99   0.0000       0.062947         1.7129 
 100   0.0000       0.068824         1.8728 
 101   0.0000       0.075283         2.0486 
 102   0.0000       0.086414         2.3514 
 103   0.0000       0.089524         2.4361 
 104   0.0000       0.094864         2.5814 
 105   0.0000       0.102469         2.7883 
 106   0.0000       0.105585         2.8731 
 107   0.0000       0.107539         2.9263 
 108   0.0000       0.115000         3.1293 
 109   0.0000       0.119101         3.2409 
 110   0.0000       0.120224         3.2715 
 111   0.0000       0.124741         3.3944 
 112   0.0000       0.132711         3.6113 
 113   0.0000       0.133032         3.6200 
 114   0.0000       0.141396         3.8476 
 115   0.0000       0.142842         3.8869 
 116   0.0000       0.146027         3.9736 
 117   0.0000       0.147245         4.0067 
 118   0.0000       0.153588         4.1793 
 119   0.0000       0.155434         4.2296 
 120   0.0000       0.160811         4.3759 
 121   0.0000       0.172603         4.6968 
 122   0.0000       0.175471         4.7748 
 123   0.0000       0.180862         4.9215 
 124   0.0000       0.189895         5.1673 
 125   0.0000       0.195792         5.3278 
 126   0.0000       0.198593         5.4040 
 127   0.0000       0.203233         5.5302 
 128   0.0000       0.205383         5.5888 
 129   0.0000       0.210309         5.7228 
 130   0.0000       0.216619         5.8945 
 131   0.0000       0.224069         6.0972 
 132   0.0000       0.226628         6.1669 
 133   0.0000       0.228224         6.2103 
 134   0.0000       0.231977         6.3124 
 135   0.0000       0.234841         6.3904 
 136   0.0000       0.238141         6.4802 
 137   0.0000       0.240917         6.5557 
 138   0.0000       0.242368         6.5952 
 139   0.0000       0.247150         6.7253 
 140   0.0000       0.256409         6.9772 
 141   0.0000       0.258942         7.0462 
 142   0.0000       0.266154         7.2424 
 143   0.0000       0.269019         7.3204 
 144   0.0000       0.270961         7.3732 
 145   0.0000       0.277222         7.5436 
 146   0.0000       0.283195         7.7061 
 147   0.0000       0.289075         7.8661 
 148   0.0000       0.290533         7.9058 
 149   0.0000       0.293385         7.9834 
 150   0.0000       0.299207         8.1418 
 151   0.0000       0.307028         8.3547 
 152   0.0000       0.310536         8.4501 
 153   0.0000       0.312904         8.5146 
 154   0.0000       0.322951         8.7879 
 155   0.0000       0.325732         8.8636 
 156   0.0000       0.326153         8.8751 
 157   0.0000       0.334944         9.1143 
 158   0.0000       0.340673         9.2702 
 159   0.0000       0.341808         9.3011 
 160   0.0000       0.350694         9.5429 
 161   0.0000       0.351200         9.5566 
 162   0.0000       0.357570         9.7300 
 163   0.0000       0.358757         9.7623 
 164   0.0000       0.364496         9.9184 
 165   0.0000       0.372089        10.1251 
 166   0.0000       0.373843        10.1728 
 167   0.0000       0.375595        10.2205 
 168   0.0000       0.381102        10.3703 
 169   0.0000       0.383471        10.4348 
 170   0.0000       0.388963        10.5842 
 171   0.0000       0.393938        10.7196 
 172   0.0000       0.398117        10.8333 
 173   0.0000       0.401675        10.9301 
 174   0.0000       0.406614        11.0645 
 175   0.0000       0.409916        11.1544 
 176   0.0000       0.412934        11.2365 
 177   0.0000       0.418147        11.3784 
 178   0.0000       0.420083        11.4310 
 179   0.0000       0.423186        11.5155 
 180   0.0000       0.428239        11.6530 
 181   0.0000       0.431483        11.7413 
 182   0.0000       0.433421        11.7940 
 183   0.0000       0.436651        11.8819 
 184   0.0000       0.439593        11.9619 
 185   0.0000       0.442526        12.0417 
 186   0.0000       0.450404        12.2561 
 187   0.0000       0.452531        12.3140 
 188   0.0000       0.454704        12.3731 
 189   0.0000       0.459883        12.5140 
 190   0.0000       0.464381        12.6365 
 191   0.0000       0.467477        12.7207 
 192   0.0000       0.471440        12.8285 
 193   0.0000       0.473162        12.8754 
 194   0.0000       0.479767        13.0551 
 195   0.0000       0.481067        13.0905 
 196   0.0000       0.485636        13.2148 
 197   0.0000       0.487696        13.2709 
 198   0.0000       0.491565        13.3762 
 199   0.0000       0.500245        13.6124 
 200   0.0000       0.502645        13.6777 
 201   0.0000       0.505472        13.7546 
 202   0.0000       0.510418        13.8892 
 203   0.0000       0.514500        14.0002 
 204   0.0000       0.516276        14.0486 
 205   0.0000       0.520725        14.1696 
 206   0.0000       0.523972        14.2580 
 207   0.0000       0.525208        14.2916 
 208   0.0000       0.528372        14.3777 
 209   0.0000       0.539735        14.6869 
 210   0.0000       0.543318        14.7844 
 211   0.0000       0.546267        14.8647 
 212   0.0000       0.548077        14.9139 
 213   0.0000       0.558952        15.2099 
 214   0.0000       0.566759        15.4223 
 215   0.0000       0.574412        15.6306 
 216   0.0000       0.579205        15.7610 
 217   0.0000       0.584962        15.9176 
 218   0.0000       0.589211        16.0332 
 219   0.0000       0.591845        16.1049 
 220   0.0000       0.605330        16.4719 
 221   0.0000       0.610389        16.6095 
 222   0.0000       0.614534        16.7223 
 223   0.0000       0.621760        16.9190 
 224   0.0000       0.625127        17.0106 
 225   0.0000       0.631383        17.1808 
 226   0.0000       0.639280        17.3957 
 227   0.0000       0.651169        17.7192 
 228   0.0000       0.653532        17.7835 
 229   0.0000       0.661749        18.0071 
 230   0.0000       0.670813        18.2538 
 231   0.0000       0.673158        18.3176 
 232   0.0000       0.680165        18.5082 
 233   0.0000       0.685649        18.6575 
 234   0.0000       0.687684        18.7128 
 235   0.0000       0.692737        18.8503 
 236   0.0000       0.701845        19.0982 
 237   0.0000       0.707469        19.2512 
 238   0.0000       0.713283        19.4094 
 239   0.0000       0.713804        19.4236 
 240   0.0000       0.723000        19.6738 
 241   0.0000       0.728849        19.8330 
 242   0.0000       0.730896        19.8887 
 243   0.0000       0.737045        20.0560 
 244   0.0000       0.741167        20.1682 
 245   0.0000       0.749946        20.4071 
 246   0.0000       0.754905        20.5420 
 247   0.0000       0.759668        20.6716 
 248   0.0000       0.759816        20.6757 
 249   0.0000       0.768734        20.9183 
 250   0.0000       0.776652        21.1338 
 251   0.0000       0.783488        21.3198 
 252   0.0000       0.791179        21.5291 
 253   0.0000       0.796584        21.6761 
 254   0.0000       0.799156        21.7462 
 255   0.0000       0.807636        21.9769 
 256   0.0000       0.817319        22.2404 
 257   0.0000       0.821291        22.3485 
 258   0.0000       0.825009        22.4496 
 259   0.0000       0.833563        22.6824 
 260   0.0000       0.835449        22.7337 
 261   0.0000       0.845409        23.0047 
 262   0.0000       0.848389        23.0858 
 263   0.0000       0.852376        23.1943 
 264   0.0000       0.857592        23.3363 
 265   0.0000       0.870862        23.6973 
 266   0.0000       0.875852        23.8331 
 267   0.0000       0.884807        24.0768 
 268   0.0000       0.892337        24.2817 
 269   0.0000       0.900136        24.4939 
 270   0.0000       0.903627        24.5889 
 271   0.0000       0.912446        24.8289 
 272   0.0000       0.916514        24.9396 
 273   0.0000       0.919027        25.0080 
 274   0.0000       0.930866        25.3302 
 275   0.0000       0.936806        25.4918 
 276   0.0000       0.944166        25.6921 
 277   0.0000       0.949388        25.8342 
 278   0.0000       0.962055        26.1789 
 279   0.0000       0.965543        26.2737 
 280   0.0000       0.969485        26.3810 
 281   0.0000       0.972418        26.4609 
 282   0.0000       0.980610        26.6838 
 283   0.0000       0.988776        26.9060 
 284   0.0000       0.994903        27.0727 
 285   0.0000       0.997423        27.1413 
 286   0.0000       1.008566        27.4445 
 287   0.0000       1.012851        27.5611 
 288   0.0000       1.021436        27.7947 
 289   0.0000       1.024109        27.8674 
 290   0.0000       1.036529        28.2054 
 291   0.0000       1.041359        28.3368 
 292   0.0000       1.052372        28.6365 
 293   0.0000       1.058653        28.8074 
 294   0.0000       1.061987        28.8981 
 295   0.0000       1.072441        29.1826 
 296   0.0000       1.078576        29.3495 
 297   0.0000       1.092479        29.7279 
[...]
 28:    305.11   0.002111   10.67  0.002159  ( 0.016866 -0.040725  0.014706)
 29:    321.02   0.003809   19.25  0.003703  ( 0.011925  0.056458 -0.019321)
 30:    331.16   0.000072    0.36  0.000068  ( 0.006242  0.003852 -0.003732)
 31:    380.72   0.001796    9.07  0.001472  ( 0.012649 -0.035464  0.007357)
 32:    385.66   0.002069   10.46  0.001674  (-0.037477  0.008124 -0.014271)
 33:    439.10   0.000259    1.31  0.000184  (-0.012519 -0.003489  0.003899)
 34:    479.72   0.001336    6.75  0.000869  (-0.023555  0.017486  0.002916)
 35:    483.24   0.001332    6.73  0.000860  (-0.008269  0.027546  0.005730)
 36:    506.30   0.000552    2.79  0.000340  (-0.016440  0.007497 -0.003676)
 37:    548.50   0.005652   28.56  0.003215  ( 0.017573  0.038923  0.037305)
 38:    571.33   0.006360   32.14  0.003474  ( 0.049032  0.032710  0.000148)
 39:    587.31   0.004024   20.34  0.002138  ( 0.010764 -0.004123 -0.044781)
 40:    602.07   0.003699   18.69  0.001917  ( 0.022604 -0.036323  0.009329)
 41:    628.02   0.005077   25.66  0.002523  (-0.038451 -0.028432  0.015361)
 42:    639.66   0.002524   12.75  0.001231  (-0.013962 -0.030734  0.009574)
 43:    648.43   0.013578   68.62  0.006535  (-0.010203  0.080188 -0.000571)
 44:    659.86   0.002165   10.94  0.001024  (-0.018210  0.026310 -0.000117)
 45:    698.77   0.008085   40.86  0.003611  ( 0.025489 -0.044733  0.030984)
 46:    717.49   0.054967  277.78  0.023907  ( 0.012671 -0.152698  0.020733)
 47:    756.57   0.004234   21.40  0.001747  (-0.008901 -0.015819  0.037644)
 48:    764.59   0.016384   82.80  0.006687  ( 0.028317 -0.072800 -0.024193)
 49:    767.44   0.009603   48.53  0.003905  (-0.012688  0.043821  0.042702)
 50:    776.81   0.004631   23.41  0.001861  ( 0.010787 -0.034534 -0.023486)
 51:    785.87   0.002701   13.65  0.001073  (-0.010247 -0.023523  0.020354)
 52:    813.22   0.001211    6.12  0.000465  (-0.000999 -0.018174  0.011543)
 53:    825.55   0.004390   22.19  0.001660  (-0.026891 -0.007002  0.029791)
 54:    841.63   0.004028   20.36  0.001494  (-0.003965 -0.038266  0.003678)
 55:    871.69   0.001575    7.96  0.000564  (-0.012614 -0.020106  0.000671)
 56:    890.21   0.008248   41.68  0.002891  ( 0.009676 -0.050872  0.014481)
 57:    890.74   0.009429   47.65  0.003303  ( 0.056326  0.010436 -0.004674)
 58:    939.37   0.015283   77.23  0.005077  (-0.027508  0.065720  0.001094)
 59:    955.73   0.058200  294.12  0.019003  (-0.029298  0.132368 -0.024971)
 60:    960.09   0.006004   30.34  0.001951  ( 0.012257 -0.034694  0.024443)
 61:    964.14   0.002348   11.86  0.000760  (-0.025264 -0.006062 -0.009210)
 62:    970.84   0.000350    1.77  0.000113  ( 0.001463 -0.010451 -0.001120)
 63:    987.68   0.002774   14.02  0.000877  (-0.025824  0.011312  0.009039)
 64:    991.50   0.002192   11.08  0.000690  ( 0.022705 -0.011212 -0.006978)
 65:   1012.69   0.000717    3.62  0.000221  ( 0.007995  0.010961  0.006080)
 66:   1044.54   0.006007   30.36  0.001795  (-0.034959 -0.013354 -0.019853)
 67:   1063.58   0.000756    3.82  0.000222  ( 0.014358  0.003833 -0.001004)
 68:   1068.92   0.007162   36.19  0.002091  ( 0.025315 -0.002808  0.037976)
 69:   1071.30   0.013028   65.84  0.003795  ( 0.034712 -0.045112  0.023557)
 70:   1086.15   0.003948   19.95  0.001134  ( 0.001000 -0.019861  0.027183)
 71:   1095.44   0.014597   73.77  0.004158  ( 0.024219  0.051019 -0.031125)
 72:   1120.12   0.005458   27.58  0.001521  ( 0.009491 -0.036748 -0.008949)
 73:   1145.73   0.011229   56.75  0.003058  ( 0.006874 -0.024281  0.049209)
 74:   1170.19   0.008318   42.04  0.002218  ( 0.015465 -0.044028 -0.006379)
 75:   1172.40   0.000403    2.04  0.000107  ( 0.002490  0.004098  0.009181)
 76:   1172.82   0.000022    0.11  0.000006  (-0.000304 -0.001804 -0.001583)
 77:   1174.64   0.000938    4.74  0.000249  (-0.007982  0.007638 -0.011280)
 78:   1185.83   0.030968  156.50  0.008149  ( 0.059613 -0.062822  0.025479)
 79:   1203.07   0.016369   82.72  0.004246  ( 0.054998 -0.034927 -0.001078)
 80:   1205.91   0.005954   30.09  0.001541  ( 0.011525 -0.034012  0.015848)
 81:   1207.71   0.005729   28.95  0.001480  ( 0.020775 -0.021032  0.024626)
 82:   1218.20   0.018137   91.66  0.004646  ( 0.016155 -0.065212  0.011517)
 83:   1230.23   0.021286  107.57  0.005400  (-0.048127  0.054787  0.009039)
 84:   1247.07   0.000865    4.37  0.000217  (-0.005040  0.010404 -0.009106)
 85:   1281.44   0.028608  144.57  0.006967  (-0.021568  0.066703 -0.045302)
 86:   1295.63   0.020453  103.36  0.004926  ( 0.032237 -0.043200  0.044953)
 87:   1301.73   0.007126   36.01  0.001708  ( 0.021787 -0.017288 -0.030573)
 88:   1305.83   0.084866  428.88  0.020281  (-0.028416 -0.114199  0.080200)
 89:   1327.76   0.009288   46.94  0.002183  ( 0.008305 -0.031205  0.033769)
 90:   1332.51   0.036609  185.01  0.008574  (-0.035897  0.085118 -0.006319)
 91:   1355.90   0.009990   50.49  0.002299  (-0.026508  0.039859 -0.002802)
 92:   1371.93   0.015963   80.67  0.003631  ( 0.026457 -0.054070 -0.002748)
 93:   1385.57   0.008413   42.52  0.001895  (-0.012197  0.009769  0.040628)
 94:   1392.35   0.077183  390.05  0.017299  (-0.047607  0.121446 -0.016830)
 95:   1399.60   0.008492   42.91  0.001893  ( 0.008468  0.006782 -0.042139)
 96:   1426.49   0.033953  171.58  0.007428  ( 0.002777 -0.064123  0.057517)
 97:   1451.92   0.063487  320.84  0.013645  ( 0.030920 -0.059840 -0.095439)
 98:   1461.25   0.013027   65.83  0.002782  (-0.006708 -0.027162 -0.044714)
 99:   1465.06   0.005632   28.46  0.001200  (-0.007312 -0.003903 -0.033629)
100:   1465.48   0.005577   28.18  0.001188  ( 0.004518  0.026681 -0.021336)
101:   1467.16   0.006088   30.77  0.001295  ( 0.024089 -0.025861  0.006776)
102:   1473.51   0.006035   30.50  0.001278  ( 0.018274 -0.021548 -0.021906)
103:   1476.76   0.029531  149.24  0.006240  (-0.007399  0.078488  0.005016)
104:   1477.70   0.005491   27.75  0.001160  (-0.015357  0.029512  0.007264)
105:   1487.39   0.007407   37.43  0.001554  (-0.025405 -0.026866  0.013670)
106:   1496.31   0.019702   99.56  0.004109  ( 0.048860 -0.009151  0.040470)
107:   1499.02   0.013097   66.19  0.002726  (-0.042751 -0.025432  0.015875)
108:   1514.80   0.000629    3.18  0.000130  ( 0.005575  0.008119  0.005706)
109:   1540.96   0.031535  159.36  0.006386  (-0.038636 -0.052493  0.046239)
110:   1606.30   0.033416  168.87  0.006492  (-0.037497 -0.055585 -0.044677)
111:   1650.20   0.007716   38.99  0.001459  ( 0.000112  0.024700 -0.029138)
112:   1664.91   0.008565   43.28  0.001605  ( 0.024245  0.027986 -0.015308)
113:   1680.88   0.036153  182.70  0.006712  ( 0.075442  0.024305 -0.020729)
114:   1788.87   0.118033  596.49  0.020591  ( 0.114805  0.027384 -0.081612)
115:   3042.75   0.011453   57.88  0.001175  (-0.011983  0.020637 -0.024600)
116:   3043.95   0.012190   61.60  0.001250  (-0.016793 -0.024884 -0.018668)
117:   3074.50   0.006466   32.68  0.000656  ( 0.014755 -0.020686  0.003266)
118:   3109.22   0.000982    4.96  0.000099  ( 0.000767 -0.009277  0.003450)
119:   3116.85   0.006990   35.32  0.000700  (-0.008488  0.019306  0.015971)
120:   3124.27   0.001112    5.62  0.000111  (-0.009916  0.003179  0.001620)
121:   3126.90   0.003354   16.95  0.000335  (-0.006539 -0.007081  0.015552)
122:   3158.46   0.003652   18.45  0.000361  (-0.008386 -0.008703 -0.014653)
123:   3166.65   0.003147   15.90  0.000310  ( 0.013337  0.010089 -0.005516)
124:   3177.60   0.000757    3.83  0.000074  ( 0.007866 -0.001058  0.003375)
125:   3184.70   0.000981    4.96  0.000096  ( 0.006614 -0.002540  0.006780)
126:   3191.26   0.002090   10.56  0.000204  ( 0.007965  0.008488 -0.008301)
127:   3196.44   0.001687    8.53  0.000165  (-0.010897  0.000694 -0.006744)
128:   3205.71   0.003882   19.62  0.000378  ( 0.018374 -0.006346  0.000132)
129:   3208.02   0.001101    5.56  0.000107  (-0.004098  0.005482 -0.007759)
130:   3213.52   0.003378   17.07  0.000328  ( 0.010629  0.011660 -0.008895)
131:   3229.06   0.000527    2.66  0.000051  (-0.004068 -0.002014  0.005506)
132:   3231.59   0.000386    1.95  0.000037  (-0.004149  0.001990 -0.004017)
133:   3232.96   0.000266    1.35  0.000026  (-0.004858 -0.000381  0.001398)
134:   3248.39   0.000024    0.12  0.000002  (-0.000761 -0.001234  0.000396)

* The epsilon (eps) is given for a Dirac delta lineshape.
** The dipole moment derivative (T) already includes vibrational overlap.

The first frequency considered to be a vibration is 7
The total number of vibrations considered is 128


--------------------------
THERMOCHEMISTRY AT 298.15K
--------------------------

Temperature         ... 298.15 K
Pressure            ... 1.00 atm
Total Mass          ... 344.37 AMU

Throughout the following assumptions are being made:
  (1) The electronic state is orbitally nondegenerate
  (2) There are no thermally accessible electronically excited states
  (3) Hindered rotations indicated by low frequency modes are not
      treated as such but are treated as vibrations and this may
      cause some error
  (4) All equations used are the standard statistical mechanics
      equations for an ideal gas
  (5) All vibrations are strictly harmonic

freq.      34.16  E(vib)   ...       0.55 
freq.      52.65  E(vib)   ...       0.52 
freq.      73.23  E(vib)   ...       0.49 
freq.      85.66  E(vib)   ...       0.48 
freq.      89.55  E(vib)   ...       0.47 
freq.      91.38  E(vib)   ...       0.47 
freq.     105.81  E(vib)   ...       0.45 
freq.     116.72  E(vib)   ...       0.44 
freq.     118.42  E(vib)   ...       0.44 
freq.     127.60  E(vib)   ...       0.43 
freq.     148.16  E(vib)   ...       0.41 
freq.     151.64  E(vib)   ...       0.40 
freq.     167.40  E(vib)   ...       0.39 
freq.     179.05  E(vib)   ...       0.37 
freq.     202.60  E(vib)   ...       0.35 
freq.     213.65  E(vib)   ...       0.34 
freq.     216.92  E(vib)   ...       0.34 
freq.     235.13  E(vib)   ...       0.32 
freq.     262.14  E(vib)   ...       0.29 
freq.     281.54  E(vib)   ...       0.28 
freq.     297.22  E(vib)   ...       0.27 
freq.     305.11  E(vib)   ...       0.26 
freq.     321.02  E(vib)   ...       0.25 
freq.     331.16  E(vib)   ...       0.24 
freq.     380.72  E(vib)   ...       0.21 
freq.     385.66  E(vib)   ...       0.20 
freq.     439.10  E(vib)   ...       0.17 
freq.     479.72  E(vib)   ...       0.15 
freq.     483.24  E(vib)   ...       0.15 
freq.     506.30  E(vib)   ...       0.14 
freq.     548.50  E(vib)   ...       0.12 
freq.     571.33  E(vib)   ...       0.11 
freq.     587.31  E(vib)   ...       0.10 
freq.     602.07  E(vib)   ...       0.10 
freq.     628.02  E(vib)   ...       0.09 
freq.     639.66  E(vib)   ...       0.09 
freq.     648.43  E(vib)   ...       0.08 
freq.     659.86  E(vib)   ...       0.08 
freq.     698.77  E(vib)   ...       0.07 
freq.     717.49  E(vib)   ...       0.07 
freq.     756.57  E(vib)   ...       0.06 
freq.     764.59  E(vib)   ...       0.06 
freq.     767.44  E(vib)   ...       0.06 
freq.     776.81  E(vib)   ...       0.05 
freq.     785.87  E(vib)   ...       0.05 
freq.     813.22  E(vib)   ...       0.05 
freq.     825.55  E(vib)   ...       0.04 
freq.     841.63  E(vib)   ...       0.04 
freq.     871.69  E(vib)   ...       0.04 
freq.     890.21  E(vib)   ...       0.04 
freq.     890.74  E(vib)   ...       0.04 
freq.     939.37  E(vib)   ...       0.03 
freq.     955.73  E(vib)   ...       0.03 
freq.     960.09  E(vib)   ...       0.03 
freq.     964.14  E(vib)   ...       0.03 
freq.     970.84  E(vib)   ...       0.03 
freq.     987.68  E(vib)   ...       0.02 
freq.     991.50  E(vib)   ...       0.02 
freq.    1012.69  E(vib)   ...       0.02 
freq.    1044.54  E(vib)   ...       0.02 
freq.    1063.58  E(vib)   ...       0.02 
freq.    1068.92  E(vib)   ...       0.02 
freq.    1071.30  E(vib)   ...       0.02 
freq.    1086.15  E(vib)   ...       0.02 
freq.    1095.44  E(vib)   ...       0.02 
freq.    1120.12  E(vib)   ...       0.01 
freq.    1145.73  E(vib)   ...       0.01 
freq.    1170.19  E(vib)   ...       0.01 
freq.    1172.40  E(vib)   ...       0.01 
freq.    1172.82  E(vib)   ...       0.01 
freq.    1174.64  E(vib)   ...       0.01 
freq.    1185.83  E(vib)   ...       0.01 
freq.    1203.07  E(vib)   ...       0.01 
freq.    1205.91  E(vib)   ...       0.01 
freq.    1207.71  E(vib)   ...       0.01 
freq.    1218.20  E(vib)   ...       0.01 
freq.    1230.23  E(vib)   ...       0.01 
freq.    1247.07  E(vib)   ...       0.01 
freq.    1281.44  E(vib)   ...       0.01 
freq.    1295.63  E(vib)   ...       0.01 
freq.    1301.73  E(vib)   ...       0.01 
freq.    1305.83  E(vib)   ...       0.01 
freq.    1327.76  E(vib)   ...       0.01 
freq.    1332.51  E(vib)   ...       0.01 
freq.    1355.90  E(vib)   ...       0.01 
freq.    1371.93  E(vib)   ...       0.01 
freq.    1385.57  E(vib)   ...       0.00 
freq.    1392.35  E(vib)   ...       0.00 
freq.    1399.60  E(vib)   ...       0.00 
freq.    1426.49  E(vib)   ...       0.00 
freq.    1451.92  E(vib)   ...       0.00 
freq.    1461.25  E(vib)   ...       0.00 
freq.    1465.06  E(vib)   ...       0.00 
freq.    1465.48  E(vib)   ...       0.00 
freq.    1467.16  E(vib)   ...       0.00 
freq.    1473.51  E(vib)   ...       0.00 
freq.    1476.76  E(vib)   ...       0.00 
freq.    1477.70  E(vib)   ...       0.00 
freq.    1487.39  E(vib)   ...       0.00 
freq.    1496.31  E(vib)   ...       0.00 
freq.    1499.02  E(vib)   ...       0.00 
freq.    1514.80  E(vib)   ...       0.00 
freq.    1540.96  E(vib)   ...       0.00 
freq.    1606.30  E(vib)   ...       0.00 
freq.    1650.20  E(vib)   ...       0.00 
freq.    1664.91  E(vib)   ...       0.00 
freq.    1680.88  E(vib)   ...       0.00 
freq.    1788.87  E(vib)   ...       0.00 
freq.    3042.75  E(vib)   ...       0.00 
freq.    3043.95  E(vib)   ...       0.00 
freq.    3074.50  E(vib)   ...       0.00 
freq.    3109.22  E(vib)   ...       0.00 
freq.    3116.85  E(vib)   ...       0.00 
freq.    3124.27  E(vib)   ...       0.00 
freq.    3126.90  E(vib)   ...       0.00 
freq.    3158.46  E(vib)   ...       0.00 
freq.    3166.65  E(vib)   ...       0.00 
freq.    3177.60  E(vib)   ...       0.00 
freq.    3184.70  E(vib)   ...       0.00 
freq.    3191.26  E(vib)   ...       0.00 
freq.    3196.44  E(vib)   ...       0.00 
freq.    3205.71  E(vib)   ...       0.00 
freq.    3208.02  E(vib)   ...       0.00 
freq.    3213.52  E(vib)   ...       0.00 
freq.    3229.06  E(vib)   ...       0.00 
freq.    3231.59  E(vib)   ...       0.00 
freq.    3232.96  E(vib)   ...       0.00 
freq.    3248.39  E(vib)   ...       0.00 

------------
INNER ENERGY
------------

The inner energy is: U= E(el) + E(ZPE) + E(vib) + E(rot) + E(trans)
    E(el)   - is the total energy from the electronic structure calculation
              = E(kin-el) + E(nuc-el) + E(el-el) + E(nuc-nuc)
    E(ZPE)  - the the zero temperature vibrational energy from the frequency calculation
    E(vib)  - the the finite temperature correction to E(ZPE) due to population
              of excited vibrational states
    E(rot)  - is the rotational thermal energy
    E(trans)- is the translational thermal energy

Summary of contributions to the inner energy U:
Electronic energy                ...  -1182.61917515 Eh
Zero point energy                ...      0.36214277 Eh     227.25 kcal/mol
Thermal vibrational correction   ...      0.01955039 Eh      12.27 kcal/mol
Thermal rotational correction    ...      0.00141627 Eh       0.89 kcal/mol
Thermal translational correction ...      0.00141627 Eh       0.89 kcal/mol
-----------------------------------------------------------------------
Total thermal energy                  -1182.23464945 Eh


Summary of corrections to the electronic energy:
(perhaps to be used in another calculation)
Total thermal correction                  0.02238293 Eh      14.05 kcal/mol
Non-thermal (ZPE) correction              0.36214277 Eh     227.25 kcal/mol
-----------------------------------------------------------------------
Total correction                          0.38452570 Eh     241.29 kcal/mol


--------
ENTHALPY
--------

The enthalpy is H = U + kB*T
                kB is Boltzmann's constant
Total free energy                 ...  -1182.23464945 Eh 
Thermal Enthalpy correction       ...      0.00094421 Eh       0.59 kcal/mol
-----------------------------------------------------------------------
Total Enthalpy                    ...  -1182.23370524 Eh


Note: Only C1 symmetry has been detected, increase convergence thresholds 
      if your molecule has a higher symmetry. Symmetry factor of 1.0 is   
      used for the rotational entropy correction. 
 

Note: Rotational entropy computed according to Herzberg 
Infrared and Raman Spectra, Chapter V,1, Van Nostrand Reinhold, 1945 
Point Group:  C1, Symmetry Number:   1  
Rotational constants in cm-1:     0.011730     0.007269     0.005739 

Vibrational entropy computed according to the QRRHO of S. Grimme
Chem.Eur.J. 2012 18 9955


-------
ENTROPY
-------

The entropy contributions are T*S = T*(S(el)+S(vib)+S(rot)+S(trans))
     S(el)   - electronic entropy
     S(vib)  - vibrational entropy
     S(rot)  - rotational entropy
     S(trans)- translational entropy
The entropies will be listed as multiplied by the temperature to get
units of energy

Electronic entropy                ...      0.00000000 Eh      0.00 kcal/mol
Vibrational entropy               ...      0.03453478 Eh     21.67 kcal/mol
Rotational entropy                ...      0.01637041 Eh     10.27 kcal/mol
Translational entropy             ...      0.02062252 Eh     12.94 kcal/mol
-----------------------------------------------------------------------
Final entropy term                ...      0.07152771 Eh     44.88 kcal/mol

In case the symmetry of your molecule has not been determined correctly
or in case you have a reason to use a different symmetry number we print 
out the resulting rotational entropy values for sn=1,12 :
 --------------------------------------------------------
|  sn= 1 | S(rot)=       0.01637041 Eh     10.27 kcal/mol|
|  sn= 2 | S(rot)=       0.01571596 Eh      9.86 kcal/mol|
|  sn= 3 | S(rot)=       0.01533313 Eh      9.62 kcal/mol|
|  sn= 4 | S(rot)=       0.01506150 Eh      9.45 kcal/mol|
|  sn= 5 | S(rot)=       0.01485081 Eh      9.32 kcal/mol|
|  sn= 6 | S(rot)=       0.01467867 Eh      9.21 kcal/mol|
|  sn= 7 | S(rot)=       0.01453312 Eh      9.12 kcal/mol|
|  sn= 8 | S(rot)=       0.01440705 Eh      9.04 kcal/mol|
|  sn= 9 | S(rot)=       0.01429584 Eh      8.97 kcal/mol|
|  sn=10 | S(rot)=       0.01419636 Eh      8.91 kcal/mol|
|  sn=11 | S(rot)=       0.01410637 Eh      8.85 kcal/mol|
|  sn=12 | S(rot)=       0.01402421 Eh      8.80 kcal/mol|
 --------------------------------------------------------


-------------------
GIBBS FREE ENERGY
-------------------

The Gibbs free energy is G = H - T*S

Total enthalpy                    ...  -1182.23370524 Eh 
Total entropy correction          ...     -0.07152771 Eh    -44.88 kcal/mol
-----------------------------------------------------------------------
Final Gibbs free energy         ...  -1182.30523296 Eh

For completeness - the Gibbs free energy minus the electronic energy
G-E(el)                           ...      0.31394219 Eh    197.00 kcal/mol


Timings for individual modules:

Sum of individual times         ...    10728.301 sec (= 178.805 min)
GTO integral calculation        ...       69.135 sec (=   1.152 min)   0.6 %
SCF iterations                  ...     3226.266 sec (=  53.771 min)  30.1 %
SCF Gradient evaluation         ...      996.366 sec (=  16.606 min)   9.3 %
Geometry relaxation             ...        5.701 sec (=   0.095 min)   0.1 %
Analytical frequency calculation...     6430.833 sec (= 107.181 min)  59.9 %
                             ****ORCA TERMINATED NORMALLY****
TOTAL RUN TIME: 0 days 3 hours 0 minutes 41 seconds 189 msec
