
                                 *****************
                                 * O   R   C   A *
                                 *****************

                                            #,                                       
                                            ###                                      
                                            ####                                     
                                            #####                                    
                                            ######                                   
                                           ########,                                 
                                     ,,################,,,,,                         
                               ,,#################################,,                 
                          ,,##########################################,,             
                       ,#########################################, ''#####,          
                    ,#############################################,,   '####,        
                  ,##################################################,,,,####,       
                ,###########''''           ''''###############################       
              ,#####''   ,,,,##########,,,,          '''####'''          '####       
            ,##' ,,,,###########################,,,                        '##       
           ' ,,###''''                  '''############,,,                           
         ,,##''                                '''############,,,,        ,,,,,,###''
      ,#''                                            '''#######################'''  
     '                                                          ''''####''''         
             ,#######,   #######,   ,#######,      ##                                
            ,#'     '#,  ##    ##  ,#'     '#,    #''#        ######   ,####,        
            ##       ##  ##   ,#'  ##            #'  '#       #        #'  '#        
            ##       ##  #######   ##           ,######,      #####,   #    #        
            '#,     ,#'  ##    ##  '#,     ,#' ,#      #,         ##   #,  ,#        
             '#######'   ##     ##  '#######'  #'      '#     #####' # '####'        



                  #######################################################
                  #                        -***-                        #
                  #          Department of theory and spectroscopy      #
                  #    Directorship and core code : Frank Neese         #
                  #        Max Planck Institute fuer Kohlenforschung    #
                  #                Kaiser Wilhelm Platz 1               #
                  #                 D-45470 Muelheim/Ruhr               #
                  #                      Germany                        #
                  #                                                     #
                  #                  All rights reserved                #
                  #                        -***-                        #
                  #######################################################


                         Program Version 5.0.4 -  RELEASE  -


 With contributions from (in alphabetic order):
   Daniel Aravena         : Magnetic Suceptibility
   Michael Atanasov       : Ab Initio Ligand Field Theory (pilot matlab implementation)
   Alexander A. Auer      : GIAO ZORA, VPT2 properties, NMR spectrum
   Ute Becker             : Parallelization
   Giovanni Bistoni       : ED, misc. LED, open-shell LED, HFLD
   Martin Brehm           : Molecular dynamics
   Dmytro Bykov           : SCF Hessian
   Vijay G. Chilkuri      : MRCI spin determinant printing, contributions to CSF-ICE
   Dipayan Datta          : RHF DLPNO-CCSD density
   Achintya Kumar Dutta   : EOM-CC, STEOM-CC
   Dmitry Ganyushin       : Spin-Orbit,Spin-Spin,Magnetic field MRCI
   Miquel Garcia          : C-PCM and meta-GGA Hessian, CC/C-PCM, Gaussian charge scheme
   Yang Guo               : DLPNO-NEVPT2, F12-NEVPT2, CIM, IAO-localization
   Andreas Hansen         : Spin unrestricted coupled pair/coupled cluster methods
   Benjamin Helmich-Paris : MC-RPA, TRAH-SCF, COSX integrals
   Lee Huntington         : MR-EOM, pCC
   Robert Izsak           : Overlap fitted RIJCOSX, COSX-SCS-MP3, EOM
   Marcus Kettner         : VPT2
   Christian Kollmar      : KDIIS, OOCD, Brueckner-CCSD(T), CCSD density, CASPT2, CASPT2-K
   Simone Kossmann        : Meta GGA functionals, TD-DFT gradient, OOMP2, MP2 Hessian
   Martin Krupicka        : Initial AUTO-CI
   Lucas Lang             : DCDCAS
   Marvin Lechner         : AUTO-CI (C++ implementation), FIC-MRCC
   Dagmar Lenk            : GEPOL surface, SMD
   Dimitrios Liakos       : Extrapolation schemes; Compound Job, initial MDCI parallelization
   Dimitrios Manganas     : Further ROCIS development; embedding schemes
   Dimitrios Pantazis     : SARC Basis sets
   Anastasios Papadopoulos: AUTO-CI, single reference methods and gradients
   Taras Petrenko         : DFT Hessian,TD-DFT gradient, ASA, ECA, R-Raman, ABS, FL, XAS/XES, NRVS
   Peter Pinski           : DLPNO-MP2, DLPNO-MP2 Gradient
   Christoph Reimann      : Effective Core Potentials
   Marius Retegan         : Local ZFS, SOC
   Christoph Riplinger    : Optimizer, TS searches, QM/MM, DLPNO-CCSD(T), (RO)-DLPNO pert. Triples
   Tobias Risthaus        : Range-separated hybrids, TD-DFT gradient, RPA, STAB
   Michael Roemelt        : Original ROCIS implementation
   Masaaki Saitow         : Open-shell DLPNO-CCSD energy and density
   Barbara Sandhoefer     : DKH picture change effects
   Avijit Sen             : IP-ROCIS
   Kantharuban Sivalingam : CASSCF convergence, NEVPT2, FIC-MRCI
   Bernardo de Souza      : ESD, SOC TD-DFT
   Georgi Stoychev        : AutoAux, RI-MP2 NMR, DLPNO-MP2 response
   Willem Van den Heuvel  : Paramagnetic NMR
   Boris Wezisla          : Elementary symmetry handling
   Frank Wennmohs         : Technical directorship


 We gratefully acknowledge several colleagues who have allowed us to
 interface, adapt or use parts of their codes:
   Stefan Grimme, W. Hujo, H. Kruse, P. Pracht,  : VdW corrections, initial TS optimization,
                  C. Bannwarth, S. Ehlert          DFT functionals, gCP, sTDA/sTD-DF
   Ed Valeev, F. Pavosevic, A. Kumar             : LibInt (2-el integral package), F12 methods
   Garnet Chan, S. Sharma, J. Yang, R. Olivares  : DMRG
   Ulf Ekstrom                                   : XCFun DFT Library
   Mihaly Kallay                                 : mrcc  (arbitrary order and MRCC methods)
   Jiri Pittner, Ondrej Demel                    : Mk-CCSD
   Frank Weinhold                                : gennbo (NPA and NBO analysis)
   Christopher J. Cramer and Donald G. Truhlar   : smd solvation model
   Lars Goerigk                                  : TD-DFT with DH, B97 family of functionals
   V. Asgeirsson, H. Jonsson                     : NEB implementation
   FAccTs GmbH                                   : IRC, NEB, NEB-TS, DLPNO-Multilevel, CI-OPT
                                                   MM, QMMM, 2- and 3-layer-ONIOM, Crystal-QMMM,
                                                   LR-CPCM, SF, NACMEs, symmetry and pop. for TD-DFT,
                                                   nearIR, NL-DFT gradient (VV10), updates on ESD,
                                                   ML-optimized integration grids
   S Lehtola, MJT Oliveira, MAL Marques          : LibXC Library
   Liviu Ungur et al                             : ANISO software


 Your calculation uses the libint2 library for the computation of 2-el integrals
 For citations please refer to: http://libint.valeyev.net

 Your ORCA version has been built with support for libXC version: 5.1.0
 For citations please refer to: https://tddft.org/programs/libxc/

 This ORCA versions uses:
   CBLAS   interface :  Fast vector & matrix operations
   LAPACKE interface :  Fast linear algebra routines
   SCALAPACK package :  Parallel linear algebra routines
   Shared memory     :  Shared parallel matrices
   BLAS/LAPACK       :  OpenBLAS 0.3.15  USE64BITINT DYNAMIC_ARCH NO_AFFINITY Haswell SINGLE_THREADED
        Core in use  :  Haswell
   Copyright (c) 2011-2014, The OpenBLAS Project


Your calculation utilizes the atom-pairwise dispersion correction
with the Becke-Johnson damping scheme (D3BJ)
Cite in your paper:
S.Grimme, S.Ehrlich, L.Goerigk, J Comput Chem, (2011), 32, 1456–1465 
S.Grimme, J.Antony, S.Ehrlich and H.Krieg, J.Chem.Phys., 132, (2010), 154104 
   

================================================================================

----- Orbital basis set information -----
Your calculation utilizes the basis: def2-TZVP
   F. Weigend and R. Ahlrichs, Phys. Chem. Chem. Phys. 7, 3297 (2005).

----- AuxJ basis set information -----
Your calculation utilizes the auxiliary basis: def2/J
   F. Weigend, Phys. Chem. Chem. Phys. 8, 1057 (2006).

================================================================================
                                        WARNINGS
                       Please study these warnings very carefully!
================================================================================


WARNING: Geometry Optimization
  ===> : Switching off AutoStart
         For restart on a previous wavefunction, please use MOREAD

INFO   : the flag for use of the SHARK integral package has been found!

================================================================================
                                       INPUT FILE
================================================================================
NAME = TS1_CHCH2/TS1_CHCH2.inp
|  1> %pal nprocs 24 end
|  2> %maxcore 3500
|  3> !PBE0 D3BJ def2-TZVP TightOpt TightSCF OPTTS FREQ
|  4> !CPCM(dmso)
|  5> %scf
|  6> MaxIter 800
|  7> end
|  8> %geom
|  9> MaxIter 800
| 10> MaxStep 0.2
| 11> inHess Read
| 12> InHessName "TS1_CHCH2-preopt.hess"
| 13> end
| 14> *xyz 0 1
| 15>   C      3.898606   -1.223850    0.997536
| 16>   C      4.212658   -0.226291    0.046802
| 17>   C      3.200372    0.526784   -0.457732
| 18>   N      1.931559    0.376302   -0.019193
| 19>   C      1.576049   -0.592180    0.888130
| 20>   C      2.616518   -1.390054    1.430698
| 21>   C      0.804067    0.961237   -0.698651
| 22>   C      0.332431    2.204419    0.036686
| 23>   O      0.837120    2.640153    1.039179
| 24>   O     -0.635767    2.799183   -0.639539
| 25>   C     -1.168348    3.995568   -0.063181
| 26>   H      4.691401   -1.835672    1.412426
| 27>   H      3.342215    1.273851   -1.227845
| 28>   H      0.712750   -0.357529    1.495972
| 29>   H      2.364657   -2.107757    2.199533
| 30>   H      1.149894    1.323143   -1.668317
| 31>   H     -1.950775    4.324248   -0.741776
| 32>   H     -0.390072    4.753915    0.020196
| 33>   C      0.249062   -1.509985   -0.376077
| 34>   C     -0.253920   -0.204691   -0.980547
| 35>   C     -1.702985    0.110979   -0.711627
| 36>   C     -2.605806    0.008930   -1.760246
| 37>   C     -3.958280    0.276818   -1.593276
| 38>   C     -4.422087    0.660811   -0.347257
| 39>   C     -3.545087    0.772418    0.723850
| 40>   C     -2.196498    0.496922    0.541510
| 41>   O     -1.278431    0.578574    1.529429
| 42>   C     -1.687896    1.023053    2.809249
| 43>   N      1.195592   -2.144050   -1.188316
| 44>   O      1.685121   -1.508173   -2.138124
| 45>   H     -0.187264   -0.341193   -2.058043
| 46>   H     -2.233191   -0.285442   -2.735928
| 47>   H     -4.637777    0.188711   -2.432356
| 48>   H     -5.473320    0.877938   -0.195771
| 49>   H     -3.916611    1.072423    1.694322
| 50>   H     -0.787295    1.047447    3.419140
| 51>   H     -2.411512    0.332473    3.250003
| 52>   H     -2.121010    2.025160    2.755957
| 53>   O      1.605486   -3.271640   -0.892938
| 54>   H     -1.583658    3.782912    0.921960
| 55>   H      5.224803   -0.065240   -0.294957
| 56>   C     -0.607027   -2.320482    0.478295
| 57>   H     -1.497188   -1.789766    0.793666
| 58>   C     -0.452535   -3.556364    0.964696
| 59>   H      0.397347   -4.181272    0.738534
| 60>   H     -1.222936   -3.956306    1.614735
| 61> 
| 62> **                         ****END OF INPUT****
================================================================================

                       *****************************
                       * Geometry Optimization Run *
                       *****************************

Geometry optimization settings:
Update method            Update   .... Bofill
Choice of coordinates    CoordSys .... Z-matrix Internals
Initial Hessian          InHess   .... Read

Convergence Tolerances:
Energy Change            TolE     ....  1.0000e-06 Eh
Max. Gradient            TolMAXG  ....  1.0000e-04 Eh/bohr
RMS Gradient             TolRMSG  ....  3.0000e-05 Eh/bohr
Max. Displacement        TolMAXD  ....  1.0000e-03 bohr
RMS Displacement         TolRMSD  ....  6.0000e-04 bohr
Strict Convergence                ....  False
------------------------------------------------------------------------------
                        ORCA OPTIMIZATION COORDINATE SETUP
------------------------------------------------------------------------------

The optimization will be done in new redundant internal coordinates
Making redundant internal coordinates   ...  (new redundants) done
Following TS mode number                ...     0
Evaluating the initial hessian          ... (Reading Exact Hessian)...  
InHessName: TS1_CHCH2-preopt.hess	The file <TS1_CHCH2-preopt.hess> is opened as a .hess file
done
done
Diagonalizing the Hessian               .... done
Dimension of the hessian                .... 227
Lowest eigenvalues of the non projected Hessian:
 -0.035079464 -0.000000000 -0.000000000 -0.000000000 -0.000000000
done
Evaluating the coordinates              ...  done
Calculating the B-matrix                .... done
Calculating the G-matrix                .... done
Diagonalizing the G-matrix              .... done
Small eigenvalue found = 2.924e-03
Small eigenvalue found = 3.994e-03
Small eigenvalue found = 5.757e-03
Small eigenvalue found = 8.977e-03
Small eigenvalue found = 9.963e-03
Small eigenvalue found = 1.703e-02
Small eigenvalue found = 2.103e-02
Small eigenvalue found = 2.637e-02
Small eigenvalue found = 2.991e-02
The first mode is                       ....   95
The number of degrees of freedom        ....  132

    -----------------------------------------------------------------
                    Redundant Internal Coordinates


    -----------------------------------------------------------------
         Definition                    Initial Value    d2E/dq (diagonal element)
    -----------------------------------------------------------------
      1. B(C   1,C   0)                  1.4134         0.353320   
      2. B(C   2,C   1)                  1.3588         0.463691   
      3. B(N   3,C   2)                  1.3509         0.414892   
      4. B(C   4,N   3)                  1.3739         0.390379   
      5. B(C   5,C   4)                  1.4190         0.349184   
      6. B(C   5,C   0)                  1.3635         0.460741   
      7. B(C   6,N   3)                  1.4405         0.376494   
      8. B(C   7,C   6)                  1.5194         0.275085   
      9. B(O   8,C   7)                  1.2040         0.839306   
     10. B(O   9,C   7)                  1.3223         0.449308   
     11. B(C  10,O   9)                  1.4308         0.325346   
     12. B(H  11,C   0)                  1.0840         0.362641   
     13. B(H  12,C   2)                  1.0823         0.368365   
     14. B(H  13,C   4)                  1.0816         0.363037   
     15. B(H  14,C   5)                  1.0815         0.368077   
     16. B(H  15,C   6)                  1.0912         0.343271   
     17. B(H  16,C  10)                  1.0866         0.355379   
     18. B(H  17,C  10)                  1.0898         0.346783   
     19. B(C  19,C  18)                  1.5239         0.298846   
     20. B(C  19,C   6)                  1.5994         0.264636   
     21. B(C  20,C  19)                  1.5072         0.310755   
     22. B(C  21,C  20)                  1.3875         0.410507   
     23. B(C  22,C  21)                  1.3888         0.403750   
     24. B(C  23,C  22)                  1.3839         0.416305   
     25. B(C  24,C  23)                  1.3888         0.406229   
     26. B(C  25,C  24)                  1.3885         0.401055   
     27. B(C  25,C  20)                  1.4010         0.388785   
     28. B(O  26,C  25)                  1.3511         0.430479   
     29. B(C  27,O  26)                  1.4153         0.343928   
     30. B(N  28,C  18)                  1.3992         0.366745   
     31. B(O  29,N  28)                  1.2434         0.564632   
     32. B(H  30,C  19)                  1.0882         0.346065   
     33. B(H  31,C  21)                  1.0851         0.358290   
     34. B(H  32,C  22)                  1.0833         0.362745   
     35. B(H  33,C  23)                  1.0841         0.361341   
     36. B(H  34,C  24)                  1.0816         0.367973   
     37. B(H  35,C  27)                  1.0880         0.351605   
     38. B(H  36,C  27)                  1.0931         0.338071   
     39. B(H  37,C  27)                  1.0930         0.338397   
     40. B(O  38,N  28)                  1.2356         0.597000   
     41. B(H  39,C  10)                  1.0900         0.346970   
     42. B(H  40,C   1)                  1.0804         0.370615   
     43. B(C  41,C  18)                  1.4559         0.351837   
     44. B(H  42,C  41)                  1.0833         0.363967   
     45. B(C  43,C  41)                  1.3371         0.598497   
     46. B(H  44,C  43)                  1.0789         0.374817   
     47. B(H  45,C  43)                  1.0844         0.359871   
     48. A(C   1,C   0,H  11)          119.5592         0.079576   
     49. A(C   5,C   0,H  11)          119.8239         0.079820   
     50. A(C   1,C   0,C   5)          120.5758         0.079522   
     51. A(C   0,C   1,C   2)          118.3848         0.081033   
     52. A(C   0,C   1,H  40)          121.7473         0.077579   
     53. A(C   2,C   1,H  40)          119.8586         0.078080   
     54. A(C   1,C   2,H  12)          123.3075         0.084207   
     55. A(C   1,C   2,N   3)          121.1611         0.091313   
     56. A(N   3,C   2,H  12)          115.5308         0.093439   
     57. A(C   4,N   3,C   6)          113.2789         0.198407   
     58. A(C   2,N   3,C   4)          122.4089         0.099119   
     59. A(C   2,N   3,C   6)          122.4664         0.151641   
     60. A(C   5,C   4,H  13)          119.4961         0.066252   
     61. A(N   3,C   4,C   5)          117.3315         0.087289   
     62. A(N   3,C   4,H  13)          115.1347         0.071858   
     63. A(C   0,C   5,C   4)          119.9649         0.084433   
     64. A(C   0,C   5,H  14)          121.7172         0.078877   
     65. A(C   4,C   5,H  14)          118.3073         0.080042   
     66. A(H  15,C   6,C  19)          107.1439         0.046309   
     67. A(C   7,C   6,C  19)          118.4507         0.156837   
     68. A(N   3,C   6,C  19)          107.7503         0.240968   
     69. A(C   7,C   6,H  15)          104.8955         0.037289   
     70. A(N   3,C   6,C   7)          110.2990         0.128421   
     71. A(N   3,C   6,H  15)          107.8032         0.041944   
     72. A(C   6,C   7,O   9)          110.3532         0.166312   
     73. A(C   6,C   7,O   8)          124.6779         0.159675   
     74. A(O   8,C   7,O   9)          124.7480         0.201789   
     75. A(C   7,O   9,C  10)          116.2733         0.278538   
     76. A(O   9,C  10,H  39)          110.0444         0.142319   
     77. A(H  16,C  10,H  17)          110.5798         0.066969   
     78. A(O   9,C  10,H  17)          110.2939         0.139885   
     79. A(O   9,C  10,H  16)          105.6279         0.143064   
     80. A(H  17,C  10,H  39)          109.7969         0.068045   
     81. A(H  16,C  10,H  39)          110.4304         0.067177   
     82. A(C  19,C  18,N  28)          112.4074         0.231769   
     83. A(N  28,C  18,C  41)          119.0885         0.232957   
     84. A(C  19,C  18,C  41)          121.0329         0.209027   
     85. A(C   6,C  19,C  20)          116.8611         0.196906   
     86. A(C   6,C  19,C  18)          109.6431         0.253365   
     87. A(C  20,C  19,H  30)          105.1791         0.035282   
     88. A(C  18,C  19,H  30)          105.3738         0.042242   
     89. A(C   6,C  19,H  30)          103.0291         0.046113   
     90. A(C  18,C  19,C  20)          115.2111         0.150977   
     91. A(C  21,C  20,C  25)          117.8430         0.091378   
     92. A(C  19,C  20,C  25)          123.7754         0.180334   
     93. A(C  19,C  20,C  21)          118.3808         0.162797   
     94. A(C  22,C  21,H  31)          119.6587         0.083009   
     95. A(C  20,C  21,H  31)          118.4291         0.083232   
     96. A(C  20,C  21,C  22)          121.9117         0.083979   
     97. A(C  23,C  22,H  32)          120.6468         0.079556   
     98. A(C  21,C  22,H  32)          120.1339         0.079444   
     99. A(C  21,C  22,C  23)          119.2188         0.081395   
    100. A(C  24,C  23,H  33)          119.2406         0.080202   
    101. A(C  22,C  23,H  33)          120.4240         0.080158   
    102. A(C  22,C  23,C  24)          120.3354         0.080699   
    103. A(C  25,C  24,H  34)          120.4309         0.079856   
    104. A(C  23,C  24,H  34)          119.8265         0.082457   
    105. A(C  23,C  24,C  25)          119.7425         0.080801   
    106. A(C  24,C  25,O  26)          123.5017         0.188599   
    107. A(C  20,C  25,O  26)          115.5505         0.176181   
    108. A(C  20,C  25,C  24)          120.9478         0.091681   
    109. A(C  25,O  26,C  27)          118.9195         0.322476   
    110. A(H  36,C  27,H  37)          109.6686         0.069587   
    111. A(H  35,C  27,H  37)          109.5603         0.068347   
    112. A(O  26,C  27,H  37)          111.0070         0.140265   
    113. A(H  35,C  27,H  36)          109.6411         0.068338   
    114. A(O  26,C  27,H  36)          110.9612         0.138950   
    115. A(O  26,C  27,H  35)          105.9303         0.142444   
    116. A(C  18,N  28,O  38)          119.9469         0.230340   
    117. A(C  18,N  28,O  29)          118.5558         0.239071   
    118. A(O  29,N  28,O  38)          121.2443         0.256479   
    119. A(H  42,C  41,C  43)          116.2230         0.108858   
    120. A(C  18,C  41,C  43)          131.3053         0.169200   
    121. A(C  18,C  41,H  42)          112.4132         0.111661   
    122. A(H  44,C  43,H  45)          118.1425         0.067629   
    123. A(C  41,C  43,H  45)          118.4798         0.083284   
    124. A(C  41,C  43,H  44)          123.3764         0.077169   
    125. D(H  40,C   1,C   0,C   5)    178.7760         0.007959   
    126. D(C   2,C   1,C   0,C   5)     -2.3377         0.009363   
    127. D(H  40,C   1,C   0,H  11)      1.1108         0.008449   
    128. D(C   2,C   1,C   0,H  11)    179.9972         0.008119   
    129. D(H  12,C   2,C   1,C   0)   -176.5382         0.010097   
    130. D(H  12,C   2,C   1,H  40)      2.3698         0.009262   
    131. D(N   3,C   2,C   1,H  40)   -177.9207         0.008956   
    132. D(N   3,C   2,C   1,C   0)      3.1712         0.010028   
    133. D(C   4,N   3,C   2,H  12)    175.4764         0.007373   
    134. D(C   6,N   3,C   2,H  12)     11.9906         0.012756   
    135. D(C   4,N   3,C   2,C   1)     -4.2546         0.009132   
    136. D(C   6,N   3,C   2,C   1)   -167.7403         0.017302   
    137. D(C   5,C   4,N   3,C   6)    169.0292         0.014442   
    138. D(C   5,C   4,N   3,C   2)      4.1633         0.008454   
    139. D(H  13,C   4,N   3,C   2)    152.8889         0.019889   
    140. D(H  13,C   4,N   3,C   6)    -42.2453         0.016850   
    141. D(H  14,C   5,C   4,H  13)     28.2696         0.013675   
    142. D(C   0,C   5,C   4,H  13)   -150.5676         0.015383   
    143. D(H  14,C   5,C   0,H  11)      1.3008         0.009819   
    144. D(C   0,C   5,C   4,N   3)     -3.2491         0.009764   
    145. D(H  14,C   5,C   0,C   1)   -176.3582         0.010516   
    146. D(H  14,C   5,C   4,N   3)    175.5882         0.007923   
    147. D(C   4,C   5,C   0,H  11)   -179.9027         0.009290   
    148. D(C   4,C   5,C   0,C   1)      2.4383         0.009424   
    149. D(C  19,C   6,N   3,C   4)    -38.0303         0.059153   
    150. D(C  19,C   6,N   3,C   2)    126.8256         0.048162   
    151. D(H  15,C   6,N   3,C   4)   -153.3628         0.026863   
    152. D(C   7,C   6,N   3,C   2)   -102.5012         0.024819   
    153. D(H  15,C   6,N   3,C   2)     11.4932         0.015681   
    154. D(C   7,C   6,N   3,C   4)     92.6429         0.033598   
    155. D(O   8,C   7,C   6,N   3)      0.4418         0.034899   
    156. D(O   9,C   7,C   6,C  19)    -59.9905         0.040151   
    157. D(O   9,C   7,C   6,H  15)     59.4191         0.018749   
    158. D(O   9,C   7,C   6,N   3)    175.2503         0.039878   
    159. D(O   8,C   7,C   6,C  19)    125.2011         0.036039   
    160. D(O   8,C   7,C   6,H  15)   -115.3893         0.016055   
    161. D(C  10,O   9,C   7,O   8)     -4.7069         0.018259   
    162. D(C  10,O   9,C   7,C   6)   -179.5110         0.023163   
    163. D(H  39,C  10,O   9,C   7)    -59.8826         0.022843   
    164. D(H  17,C  10,O   9,C   7)     61.4029         0.023235   
    165. D(H  16,C  10,O   9,C   7)   -179.0852         0.023087   
    166. D(H  30,C  19,C  18,C  41)   -119.7985         0.022525   
    167. D(C  20,C  19,C  18,C  41)     -4.3567         0.029944   
    168. D(C  20,C  19,C  18,N  28)    145.1596         0.034075   
    169. D(C   6,C  19,C  18,C  41)    129.9343         0.041660   
    170. D(C   6,C  19,C  18,N  28)    -80.5494         0.054736   
    171. D(H  30,C  19,C   6,H  15)      6.9390         0.014528   
    172. D(H  30,C  19,C   6,C   7)    125.1753         0.017965   
    173. D(H  30,C  19,C   6,N   3)   -108.8277         0.034576   
    174. D(C  20,C  19,C   6,H  15)   -107.7985         0.024637   
    175. D(C  20,C  19,C   6,C   7)     10.4378         0.022080   
    176. D(C  20,C  19,C   6,N   3)    136.4348         0.041882   
    177. D(C  18,C  19,C   6,H  15)    118.7490         0.031108   
    178. D(H  30,C  19,C  18,N  28)     29.7178         0.022620   
    179. D(C  18,C  19,C   6,N   3)      2.9823         0.050150   
    180. D(C  18,C  19,C   6,C   7)   -123.0147         0.030229   
    181. D(C  25,C  20,C  19,H  30)   -173.0068         0.022461   
    182. D(C  25,C  20,C  19,C  18)     71.4400         0.036514   
    183. D(C  25,C  20,C  19,C   6)    -59.4751         0.037981   
    184. D(C  21,C  20,C  19,H  30)      7.3171         0.015304   
    185. D(C  21,C  20,C  19,C  18)   -108.2361         0.030715   
    186. D(C  21,C  20,C  19,C   6)    120.8488         0.031069   
    187. D(C  22,C  21,C  20,C  19)    179.7160         0.006700   
    188. D(H  31,C  21,C  20,C  25)    179.7600         0.007323   
    189. D(H  31,C  21,C  20,C  19)     -0.5445         0.007502   
    190. D(C  22,C  21,C  20,C  25)      0.0205         0.007989   
    191. D(H  32,C  22,C  21,H  31)      0.2186         0.008712   
    192. D(H  32,C  22,C  21,C  20)    179.9549         0.008316   
    193. D(C  23,C  22,C  21,H  31)   -179.5403         0.008152   
    194. D(C  23,C  22,C  21,C  20)      0.1960         0.009318   
    195. D(H  33,C  23,C  22,H  32)      0.0325         0.008752   
    196. D(H  33,C  23,C  22,C  21)    179.7901         0.008378   
    197. D(C  24,C  23,C  22,H  32)   -179.9640         0.008457   
    198. D(C  24,C  23,C  22,C  21)     -0.2063         0.009304   
    199. D(H  34,C  24,C  23,H  33)      0.0522         0.008630   
    200. D(H  34,C  24,C  23,C  22)   -179.9513         0.008633   
    201. D(C  25,C  24,C  23,H  33)   -179.9947         0.008126   
    202. D(C  25,C  24,C  23,C  22)      0.0017         0.009111   
    203. D(O  26,C  25,C  24,H  34)      0.0790         0.011250   
    204. D(O  26,C  25,C  24,C  23)   -179.8737         0.012690   
    205. D(C  20,C  25,C  24,H  34)   -179.8262         0.007527   
    206. D(C  20,C  25,C  24,C  23)      0.2211         0.007672   
    207. D(O  26,C  25,C  20,C  21)    179.8577         0.012607   
    208. D(O  26,C  25,C  20,C  19)      0.1800         0.009438   
    209. D(C  24,C  25,C  20,C  21)     -0.2299         0.006621   
    210. D(C  24,C  25,C  20,C  19)   -179.9076         0.006018   
    211. D(C  27,O  26,C  25,C  24)     -2.8576         0.010583   
    212. D(C  27,O  26,C  25,C  20)    177.0523         0.016484   
    213. D(H  37,C  27,O  26,C  25)    -58.8359         0.027314   
    214. D(H  36,C  27,O  26,C  25)     63.3860         0.027552   
    215. D(H  35,C  27,O  26,C  25)   -177.6888         0.024230   
    216. D(O  38,N  28,C  18,C  41)    -23.2068         0.040908   
    217. D(O  38,N  28,C  18,C  19)   -173.3770         0.043972   
    218. D(O  29,N  28,C  18,C  41)    162.4983         0.047869   
    219. D(O  29,N  28,C  18,C  19)     12.3281         0.045623   
    220. D(C  43,C  41,C  18,N  28)     22.4387         0.013590   
    221. D(C  43,C  41,C  18,C  19)    169.9805         0.012133   
    222. D(H  42,C  41,C  18,N  28)   -160.5048         0.014029   
    223. D(H  42,C  41,C  18,C  19)    -12.9629         0.011902   
    224. D(H  45,C  43,C  41,H  42)      1.3862         0.020413   
    225. D(H  45,C  43,C  41,C  18)    178.3528         0.021978   
    226. D(H  44,C  43,C  41,H  42)   -179.0525         0.021467   
    227. D(H  44,C  43,C  41,C  18)     -2.0859         0.017331   
    -----------------------------------------------------------------

Number of atoms                         .... 46
Number of degrees of freedom            .... 227

         *************************************************************
         *                GEOMETRY OPTIMIZATION CYCLE   1            *
         *************************************************************
---------------------------------
CARTESIAN COORDINATES (ANGSTROEM)
---------------------------------
  C      3.898606   -1.223850    0.997536
  C      4.212658   -0.226291    0.046802
  C      3.200372    0.526784   -0.457732
  N      1.931559    0.376302   -0.019193
  C      1.576049   -0.592180    0.888130
  C      2.616518   -1.390054    1.430698
  C      0.804067    0.961237   -0.698651
  C      0.332431    2.204419    0.036686
  O      0.837120    2.640153    1.039179
  O     -0.635767    2.799183   -0.639539
  C     -1.168348    3.995568   -0.063181
  H      4.691401   -1.835672    1.412426
  H      3.342215    1.273851   -1.227845
  H      0.712750   -0.357529    1.495972
  H      2.364657   -2.107757    2.199533
  H      1.149894    1.323143   -1.668317
  H     -1.950775    4.324248   -0.741776
  H     -0.390072    4.753915    0.020196
  C      0.249062   -1.509985   -0.376077
  C     -0.253920   -0.204691   -0.980547
  C     -1.702985    0.110979   -0.711627
  C     -2.605806    0.008930   -1.760246
  C     -3.958280    0.276818   -1.593276
  C     -4.422087    0.660811   -0.347257
  C     -3.545087    0.772418    0.723850
  C     -2.196498    0.496922    0.541510
  O     -1.278431    0.578574    1.529429
  C     -1.687896    1.023053    2.809249
  N      1.195592   -2.144050   -1.188316
  O      1.685121   -1.508173   -2.138124
  H     -0.187264   -0.341193   -2.058043
  H     -2.233191   -0.285442   -2.735928
  H     -4.637777    0.188711   -2.432356
  H     -5.473320    0.877938   -0.195771
  H     -3.916611    1.072423    1.694322
  H     -0.787295    1.047447    3.419140
  H     -2.411512    0.332473    3.250003
  H     -2.121010    2.025160    2.755957
  O      1.605486   -3.271640   -0.892938
  H     -1.583658    3.782912    0.921960
  H      5.224803   -0.065240   -0.294957
  C     -0.607027   -2.320482    0.478295
  H     -1.497188   -1.789766    0.793666
  C     -0.452535   -3.556364    0.964696
  H      0.397347   -4.181272    0.738534
  H     -1.222936   -3.956306    1.614735

----------------------------
CARTESIAN COORDINATES (A.U.)
----------------------------
  NO LB      ZA    FRAG     MASS         X           Y           Z
   0 C     6.0000    0    12.011    7.367298   -2.312741    1.885070
   1 C     6.0000    0    12.011    7.960770   -0.427628    0.088443
   2 C     6.0000    0    12.011    6.047827    0.995477   -0.864988
   3 N     7.0000    0    14.007    3.650118    0.711108   -0.036270
   4 C     6.0000    0    12.011    2.978301   -1.119058    1.678322
   5 C     6.0000    0    12.011    4.944502   -2.626821    2.703627
   6 C     6.0000    0    12.011    1.519466    1.816475   -1.320259
   7 C     6.0000    0    12.011    0.628204    4.165748    0.069326
   8 O     8.0000    0    15.999    1.581928    4.989166    1.963764
   9 O     8.0000    0    15.999   -1.201426    5.289689   -1.208554
  10 C     6.0000    0    12.011   -2.207858    7.550529   -0.119395
  11 H     1.0000    0     1.008    8.865463   -3.468917    2.669098
  12 H     1.0000    0     1.008    6.315871    2.407230   -2.320291
  13 H     1.0000    0     1.008    1.346902   -0.675632    2.826977
  14 H     1.0000    0     1.008    4.468554   -3.983083    4.156515
  15 H     1.0000    0     1.008    2.172985    2.500378   -3.152662
  16 H     1.0000    0     1.008   -3.686430    8.171644   -1.401753
  17 H     1.0000    0     1.008   -0.737129    8.983597    0.038165
  18 C     6.0000    0    12.011    0.470659   -2.853458   -0.710683
  19 C     6.0000    0    12.011   -0.479839   -0.386810   -1.852965
  20 C     6.0000    0    12.011   -3.218175    0.209720   -1.344780
  21 C     6.0000    0    12.011   -4.924260    0.016875   -3.326383
  22 C     6.0000    0    12.011   -7.480065    0.523110   -3.010855
  23 C     6.0000    0    12.011   -8.356533    1.248752   -0.656221
  24 C     6.0000    0    12.011   -6.699244    1.459658    1.367878
  25 C     6.0000    0    12.011   -4.150780    0.939046    1.023306
  26 O     8.0000    0    15.999   -2.415884    1.093346    2.890202
  27 C     6.0000    0    12.011   -3.189661    1.933290    5.308711
  28 N     7.0000    0    14.007    2.259341   -4.051667   -2.245592
  29 O     8.0000    0    15.999    3.184417   -2.850034   -4.040469
  30 H     1.0000    0     1.008   -0.353878   -0.644761   -3.889138
  31 H     1.0000    0     1.008   -4.220119   -0.539407   -5.170155
  32 H     1.0000    0     1.008   -8.764128    0.356612   -4.596487
  33 H     1.0000    0     1.008  -10.343076    1.659062   -0.369954
  34 H     1.0000    0     1.008   -7.401322    2.026586    3.201805
  35 H     1.0000    0     1.008   -1.487772    1.979388    6.461238
  36 H     1.0000    0     1.008   -4.557097    0.628283    6.141616
  37 H     1.0000    0     1.008   -4.008128    3.826998    5.208004
  38 O     8.0000    0    15.999    3.033929   -6.182504   -1.687408
  39 H     1.0000    0     1.008   -2.992680    7.148668    1.742252
  40 H     1.0000    0     1.008    9.873447   -0.123286   -0.557388
  41 C     6.0000    0    12.011   -1.147115   -4.385075    0.903847
  42 H     1.0000    0     1.008   -2.829275   -3.382168    1.499811
  43 C     6.0000    0    12.011   -0.855167   -6.720554    1.823011
  44 H     1.0000    0     1.008    0.750877   -7.901459    1.395627
  45 H     1.0000    0     1.008   -2.311014   -7.476335    3.051407

--------------------------------
INTERNAL COORDINATES (ANGSTROEM)
--------------------------------
 C      0   0   0     0.000000000000     0.00000000     0.00000000
 C      1   0   0     1.413381673838     0.00000000     0.00000000
 C      2   1   0     1.358822820892   118.38476849     0.00000000
 N      3   2   1     1.350869244529   121.16108425     3.17124587
 C      4   3   2     1.373892197646   122.40893240   355.74542581
 C      1   2   3     1.363452502878   120.57580712   357.66229517
 C      4   3   2     1.440503501576   122.46638850   192.25965544
 C      7   4   3     1.519428348159   110.29897541   257.49881317
 O      8   7   4     1.203979784102   124.67789197     0.44179186
 O      8   7   4     1.322282811476   110.35323265   175.25025587
 C     10   8   7     1.430792834043   116.27334460   180.48904580
 H      1   2   3     1.083966689437   119.55922537   179.99715559
 H      3   2   1     1.082267329225   123.30754222   183.46176612
 H      5   4   3     1.081581320182   115.13470484   152.88887371
 H      6   1   2     1.081498412738   121.71724385   183.64177862
 H      7   4   3     1.091249017558   107.80323476    11.49315964
 H     11  10   8     1.086606518825   105.62785327   180.91475728
 H     11  10   8     1.089841928315   110.29392823    61.40294478
 C      5   4   3     2.049751169055    94.34979107   240.30088307
 C     19   5   4     1.523865906063    94.28934800   322.23412834
 C     20  19   5     1.507234185362   115.21108669   244.61858343
 C     21  20  19     1.387480293050   118.38084926   251.76390779
 C     22  21  20     1.388822840437   121.91171583   179.71596834
 C     23  22  21     1.383882547639   119.21882960     0.19602198
 C     24  23  22     1.388832361337   120.33539010   359.79368423
 C     25  24  23     1.388466136619   119.74254519     0.00000000
 O     26  25  24     1.351109920086   123.50167297   180.12627148
 C     27  26  25     1.415331198012   118.91948722   357.14242528
 N     19   5   4     1.399174634649    97.06515599    75.46771714
 O     29  19   5     1.243428099181   118.55583923   274.70690474
 H     20  19   5     1.088151390366   105.37375582   129.17687630
 H     22  21  20     1.085104685149   118.42911860   359.45546021
 H     23  22  21     1.083297864328   120.13393111   179.95492771
 H     24  23  22     1.084058560510   120.42400846   179.79011671
 H     25  24  23     1.081595573856   119.82653347   180.04870356
 H     28  27  26     1.087954162784   105.93026110   182.31116465
 H     28  27  26     1.093062185043   110.96118954    63.38597971
 H     28  27  26     1.092998725392   111.00703068   301.16412731
 O     29  19   5     1.235605301955   119.94685908    89.00175852
 H     11  10   8     1.090049430217   110.04438249   300.11740179
 H      2   1   3     1.080358338565   121.74730925   181.11366384
 C     19   5   4     1.455934503099   105.54530544   198.35292978
 H     42  19   5     1.083284333044   112.41322980    91.98635793
 C     42  19   5     1.337108084184   131.30526218   274.92981416
 H     44  42  19     1.078869163816   123.37635946   357.91413756
 H     44  42  19     1.084445483040   118.47976027   178.35282103

---------------------------
INTERNAL COORDINATES (A.U.)
---------------------------
 C      0   0   0     0.000000000000     0.00000000     0.00000000
 C      1   0   0     2.670904286257     0.00000000     0.00000000
 C      2   1   0     2.567802996008   118.38476849     0.00000000
 N      3   2   1     2.552772914897   121.16108425     3.17124587
 C      4   3   2     2.596279991082   122.40893240   355.74542581
 C      1   2   3     2.576551827049   120.57580712   357.66229517
 C      4   3   2     2.722157112933   122.46638850   192.25965544
 C      7   4   3     2.871303458137   110.29897541   257.49881317
 O      8   7   4     2.275192062730   124.67789197     0.44179186
 O      8   7   4     2.498752385281   110.35323265   175.25025587
 C     10   8   7     2.703806610719   116.27334460   180.48904580
 H      1   2   3     2.048400181329   119.55922537   179.99715559
 H      3   2   1     2.045188855925   123.30754222   183.46176612
 H      5   4   3     2.043892486708   115.13470484   152.88887371
 H      6   1   2     2.043735814346   121.71724385   183.64177862
 H      7   4   3     2.062161787095   107.80323476    11.49315964
 H     11  10   8     2.053388735914   105.62785327   180.91475728
 H     11  10   8     2.059502773781   110.29392823    61.40294478
 C      5   4   3     3.873468352199    94.34979107   240.30088307
 C     19   5   4     2.879689227278    94.28934800   322.23412834
 C     20  19   5     2.848259830019   115.21108669   244.61858343
 C     21  20  19     2.621957770078   118.38084926   251.76390779
 C     22  21  20     2.624494816961   121.91171583   179.71596834
 C     23  22  21     2.615159016550   119.21882960     0.19602198
 C     24  23  22     2.624512808855   120.33539010   359.79368423
 C     25  24  23     2.623820744433   119.74254519     0.00000000
 O     26  25  24     2.553227725786   123.50167297   180.12627148
 C     27  26  25     2.674588353037   118.91948722   357.14242528
 N     19   5   4     2.644056873016    97.06515599    75.46771714
 O     29  19   5     2.349738574675   118.55583923   274.70690474
 H     20  19   5     2.056308120038   105.37375582   129.17687630
 H     22  21  20     2.050550681567   118.42911860   359.45546021
 H     23  22  21     2.047136285042   120.13393111   179.95492771
 H     24  23  22     2.048573792496   120.42400846   179.79011671
 H     25  24  23     2.043919422249   119.82653347   180.04870356
 H     28  27  26     2.055935413920   105.93026110   182.31116465
 H     28  27  26     2.065588177078   110.96118954    63.38597971
 H     28  27  26     2.065468255716   111.00703068   301.16412731
 O     29  19   5     2.334955630317   119.94685908    89.00175852
 H     11  10   8     2.059894895548   110.04438249   300.11740179
 H      2   1   3     2.041581386386   121.74730925   181.11366384
 C     19   5   4     2.751317479784   105.54530544   198.35292978
 H     42  19   5     2.047110714620   112.41322980    91.98635793
 C     42  19   5     2.526768090559   131.30526218   274.92981416
 H     44  42  19     2.038767253944   123.37635946   357.91413756
 H     44  42  19     2.049304970114   118.47976027   178.35282103

---------------------
BASIS SET INFORMATION
---------------------
There are 4 groups of distinct atoms

 Group   1 Type C   : 11s6p2d1f contracted to 5s3p2d1f pattern {62111/411/11/1}
 Group   2 Type N   : 11s6p2d1f contracted to 5s3p2d1f pattern {62111/411/11/1}
 Group   3 Type O   : 11s6p2d1f contracted to 5s3p2d1f pattern {62111/411/11/1}
 Group   4 Type H   : 5s1p contracted to 3s1p pattern {311/1}

Atom   0C    basis set group =>   1
Atom   1C    basis set group =>   1
Atom   2C    basis set group =>   1
Atom   3N    basis set group =>   2
Atom   4C    basis set group =>   1
Atom   5C    basis set group =>   1
Atom   6C    basis set group =>   1
Atom   7C    basis set group =>   1
Atom   8O    basis set group =>   3
Atom   9O    basis set group =>   3
Atom  10C    basis set group =>   1
Atom  11H    basis set group =>   4
Atom  12H    basis set group =>   4
Atom  13H    basis set group =>   4
Atom  14H    basis set group =>   4
Atom  15H    basis set group =>   4
Atom  16H    basis set group =>   4
Atom  17H    basis set group =>   4
Atom  18C    basis set group =>   1
Atom  19C    basis set group =>   1
Atom  20C    basis set group =>   1
Atom  21C    basis set group =>   1
Atom  22C    basis set group =>   1
Atom  23C    basis set group =>   1
Atom  24C    basis set group =>   1
Atom  25C    basis set group =>   1
Atom  26O    basis set group =>   3
Atom  27C    basis set group =>   1
Atom  28N    basis set group =>   2
Atom  29O    basis set group =>   3
Atom  30H    basis set group =>   4
Atom  31H    basis set group =>   4
Atom  32H    basis set group =>   4
Atom  33H    basis set group =>   4
Atom  34H    basis set group =>   4
Atom  35H    basis set group =>   4
Atom  36H    basis set group =>   4
Atom  37H    basis set group =>   4
Atom  38O    basis set group =>   3
Atom  39H    basis set group =>   4
Atom  40H    basis set group =>   4
Atom  41C    basis set group =>   1
Atom  42H    basis set group =>   4
Atom  43C    basis set group =>   1
Atom  44H    basis set group =>   4
Atom  45H    basis set group =>   4
---------------------------------
AUXILIARY/J BASIS SET INFORMATION
---------------------------------
There are 4 groups of distinct atoms

 Group   1 Type C   : 12s5p4d2f1g contracted to 6s4p3d1f1g pattern {711111/2111/211/2/1}
 Group   2 Type N   : 12s5p4d2f1g contracted to 6s4p3d1f1g pattern {711111/2111/211/2/1}
 Group   3 Type O   : 12s5p4d2f1g contracted to 6s4p3d1f1g pattern {711111/2111/211/2/1}
 Group   4 Type H   : 5s2p1d contracted to 3s1p1d pattern {311/2/1}

Atom   0C    basis set group =>   1
Atom   1C    basis set group =>   1
Atom   2C    basis set group =>   1
Atom   3N    basis set group =>   2
Atom   4C    basis set group =>   1
Atom   5C    basis set group =>   1
Atom   6C    basis set group =>   1
Atom   7C    basis set group =>   1
Atom   8O    basis set group =>   3
Atom   9O    basis set group =>   3
Atom  10C    basis set group =>   1
Atom  11H    basis set group =>   4
Atom  12H    basis set group =>   4
Atom  13H    basis set group =>   4
Atom  14H    basis set group =>   4
Atom  15H    basis set group =>   4
Atom  16H    basis set group =>   4
Atom  17H    basis set group =>   4
Atom  18C    basis set group =>   1
Atom  19C    basis set group =>   1
Atom  20C    basis set group =>   1
Atom  21C    basis set group =>   1
Atom  22C    basis set group =>   1
Atom  23C    basis set group =>   1
Atom  24C    basis set group =>   1
Atom  25C    basis set group =>   1
Atom  26O    basis set group =>   3
Atom  27C    basis set group =>   1
Atom  28N    basis set group =>   2
Atom  29O    basis set group =>   3
Atom  30H    basis set group =>   4
Atom  31H    basis set group =>   4
Atom  32H    basis set group =>   4
Atom  33H    basis set group =>   4
Atom  34H    basis set group =>   4
Atom  35H    basis set group =>   4
Atom  36H    basis set group =>   4
Atom  37H    basis set group =>   4
Atom  38O    basis set group =>   3
Atom  39H    basis set group =>   4
Atom  40H    basis set group =>   4
Atom  41C    basis set group =>   1
Atom  42H    basis set group =>   4
Atom  43C    basis set group =>   1
Atom  44H    basis set group =>   4
Atom  45H    basis set group =>   4


           ************************************************************
           *        Program running with 24 parallel MPI-processes    *
           *              working on a common directory               *
           ************************************************************
------------------------------------------------------------------------------
                           ORCA GTO INTEGRAL CALCULATION
                           -- RI-GTO INTEGRALS CHOSEN --
------------------------------------------------------------------------------
------------------------------------------------------------------------------
                   ___                                                        
                  /   \      - P O W E R E D   B Y -                         
                 /     \                                                     
                 |  |  |   _    _      __       _____    __    __             
                 |  |  |  | |  | |    /  \     |  _  \  |  |  /  |          
                  \  \/   | |  | |   /    \    | | | |  |  | /  /          
                 / \  \   | |__| |  /  /\  \   | |_| |  |  |/  /          
                |  |  |   |  __  | /  /__\  \  |    /   |      \           
                |  |  |   | |  | | |   __   |  |    \   |  |\   \          
                \     /   | |  | | |  |  |  |  | |\  \  |  | \   \       
                 \___/    |_|  |_| |__|  |__|  |_| \__\ |__|  \__/        
                                                                              
                      - O R C A' S   B I G   F R I E N D -                    
                                      &                                       
                       - I N T E G R A L  F E E D E R -                       
                                                                              
 v1 FN, 2020, v2 2021                                                         
------------------------------------------------------------------------------


Reading SHARK input file TS1_CHCH2/TS1_CHCH2.SHARKINP.tmp ... ok
----------------------
SHARK INTEGRAL PACKAGE
----------------------

Number of atoms                             ...     46
Number of basis functions                   ...    926
Number of shells                            ...    366
Maximum angular momentum                    ...      3
Integral batch strategy                     ... SHARK/LIBINT Hybrid
RI-J (if used) integral strategy            ... SPLIT-RIJ (Revised 2003 algorithm where possible)
Printlevel                                  ...      1
Contraction scheme used                     ... SEGMENTED contraction
Coulomb Range Separation                    ... NOT USED
Exchange Range Separation                   ... NOT USED
Finite Nucleus Model                        ... NOT USED
Auxiliary Coulomb fitting basis             ... AVAILABLE
   # of basis functions in Aux-J            ...   1494
   # of shells in Aux-J                     ...    490
   Maximum angular momentum in Aux-J        ...      4
Auxiliary J/K fitting basis                 ... NOT available
Auxiliary Correlation fitting basis         ... NOT available
Auxiliary 'external' fitting basis          ... NOT available
Integral threshold                          ...     2.500000e-11
Primitive cut-off                           ...     2.500000e-12
Primitive pair pre-selection threshold      ...     2.500000e-12

Calculating pre-screening integrals         ... done (  0.1 sec) Dimension = 366
Organizing shell pair data                  ... done (  0.6 sec)
Shell pair information
Total number of shell pairs                 ...     67161
Shell pairs after pre-screening             ...     50037
Total number of primitive shell pairs       ...    205752
Primitive shell pairs kept                  ...    100440
          la=0 lb=0:  12903 shell pairs
          la=1 lb=0:  14356 shell pairs
          la=1 lb=1:   4000 shell pairs
          la=2 lb=0:   7178 shell pairs
          la=2 lb=1:   4046 shell pairs
          la=2 lb=2:   1049 shell pairs
          la=3 lb=0:   3345 shell pairs
          la=3 lb=1:   1934 shell pairs
          la=3 lb=2:    971 shell pairs
          la=3 lb=3:    255 shell pairs

Calculating one electron integrals          ... done (  0.1 sec)
Calculating RI/J V-Matrix + Cholesky decomp.... done (  0.2 sec)
Calculating Nuclear repulsion               ... done (  0.0 sec) ENN=   2585.943495940356 Eh

SHARK setup successfully completed in   1.8 seconds

Maximum memory used throughout the entire GTOINT-calculation: 74.4 MB


           ************************************************************
           *        Program running with 24 parallel MPI-processes    *
           *              working on a common directory               *
           ************************************************************
-------------------------------------------------------------------------------
                                 ORCA SCF
-------------------------------------------------------------------------------

------------
SCF SETTINGS
------------
Hamiltonian:
 Density Functional     Method          .... DFT(GTOs)
 Exchange Functional    Exchange        .... PBE
   PBE kappa parameter   XKappa         ....  0.804000
   PBE mue parameter    XMuePBE         ....  0.219520
 Correlation Functional Correlation     .... PBE
   PBE beta parameter  CBetaPBE         ....  0.066725
 LDA part of GGA corr.  LDAOpt          .... PW91-LDA
 Gradients option       PostSCFGGA      .... off
 Hybrid DFT is turned on
   Fraction HF Exchange ScalHFX         ....  0.250000
   Scaling of DF-GGA-X  ScalDFX         ....  0.750000
   Scaling of DF-GGA-C  ScalDFC         ....  1.000000
   Scaling of DF-LDA-C  ScalLDAC        ....  1.000000
   Perturbative correction              ....  0.000000
   Density functional embedding theory  .... OFF
   NL short-range parameter             ....  6.900000
 RI-approximation to the Coulomb term is turned on
   Number of AuxJ basis functions       .... 1494
   RIJ-COSX (HFX calculated with COS-X)).... on


General Settings:
 Integral files         IntName         .... TS1_CHCH2/TS1_CHCH2
 Hartree-Fock type      HFTyp           .... RHF
 Total Charge           Charge          ....    0
 Multiplicity           Mult            ....    1
 Number of Electrons    NEL             ....  188
 Basis Dimension        Dim             ....  926
 Nuclear Repulsion      ENuc            ....   2585.9434959404 Eh

Convergence Acceleration:
 DIIS                   CNVDIIS         .... on
   Start iteration      DIISMaxIt       ....    12
   Startup error        DIISStart       ....  0.200000
   # of expansion vecs  DIISMaxEq       ....     5
   Bias factor          DIISBfac        ....   1.050
   Max. coefficient     DIISMaxC        ....  10.000
 Trust-Rad. Augm. Hess. CNVTRAH         .... auto
   Auto Start mean grad. ratio tolernc. ....  1.125000
   Auto Start start iteration           ....    20
   Auto Start num. interpolation iter.  ....    10
   Max. Number of Micro iterations      ....    16
   Max. Number of Macro iterations      .... Maxiter - #DIIS iter
   Number of Davidson start vectors     ....     2
   Converg. threshold I  (grad. norm)   ....   1.000e-05
   Converg. threshold II (energy diff.) ....   1.000e-08
   Grad. Scal. Fac. for Micro threshold ....   0.100
   Minimum threshold for Micro iter.    ....   0.010
   NR start threshold (gradient norm)   ....   0.001
   Initial trust radius                 ....   0.400
   Minimum AH scaling param. (alpha)    ....   1.000
   Maximum AH scaling param. (alpha)    .... 1000.000
   Orbital update algorithm             .... Taylor
   White noise on init. David. guess    .... on
   Maximum white noise                  ....   0.010
   Quad. conv. algorithm                .... NR
 SOSCF                  CNVSOSCF        .... on
   Start iteration      SOSCFMaxIt      ....   150
   Startup grad/error   SOSCFStart      ....  0.003300
 Level Shifting         CNVShift        .... on
   Level shift para.    LevelShift      ....    0.2500
   Turn off err/grad.   ShiftErr        ....    0.0010
 Zerner damping         CNVZerner       .... off
 Static damping         CNVDamp         .... on
   Fraction old density DampFac         ....    0.7000
   Max. Damping (<1)    DampMax         ....    0.9800
   Min. Damping (>=0)   DampMin         ....    0.0000
   Turn off err/grad.   DampErr         ....    0.1000
 Fernandez-Rico         CNVRico         .... off

SCF Procedure:
 Maximum # iterations   MaxIter         ....   800
 SCF integral mode      SCFMode         .... Direct
   Integral package                     .... SHARK and LIBINT hybrid scheme
 Reset frequency        DirectResetFreq ....    20
 Integral Threshold     Thresh          ....  2.500e-11 Eh
 Primitive CutOff       TCut            ....  2.500e-12 Eh

Convergence Tolerance:
 Convergence Check Mode ConvCheckMode   .... Total+1el-Energy
 Convergence forced     ConvForced      .... 0
 Energy Change          TolE            ....  1.000e-08 Eh
 1-El. energy change                    ....  1.000e-05 Eh
 Orbital Gradient       TolG            ....  1.000e-05
 Orbital Rotation angle TolX            ....  1.000e-05
 DIIS Error             TolErr          ....  5.000e-07


Diagonalization of the overlap matrix:
Smallest eigenvalue                        ... 5.217e-06
Time for diagonalization                   ...    0.280 sec
Threshold for overlap eigenvalues          ... 1.000e-08
Number of eigenvalues below threshold      ... 0
Time for construction of square roots      ...    0.158 sec
Total time needed                          ...    0.447 sec

Time for model grid setup =    0.338 sec

------------------------------
INITIAL GUESS: MODEL POTENTIAL
------------------------------
Loading Hartree-Fock densities                     ... done
Calculating cut-offs                               ... done
Initializing the effective Hamiltonian             ... done
Setting up the integral package (SHARK)            ... done
Starting the Coulomb interaction                   ... done (   0.6 sec)
Reading the grid                                   ... done
Mapping shells                                     ... done
Starting the XC term evaluation                    ... done (   0.3 sec)
  promolecular density results
     # of electrons  =    188.006273990
     EX              =   -157.040469229
     EC              =     -6.374480124
     EX+EC           =   -163.414949353
Transforming the Hamiltonian                       ... done (   0.2 sec)
Diagonalizing the Hamiltonian                      ... done (   0.3 sec)
Back transforming the eigenvectors                 ... done (   0.1 sec)
Now organizing SCF variables                       ... done
                      ------------------
                      INITIAL GUESS DONE (   1.9 sec)
                      ------------------
-------------------
DFT GRID GENERATION
-------------------

General Integration Accuracy     IntAcc      ... 4.388
Radial Grid Type                 RadialGrid  ... OptM3 with GC (2021)
Angular Grid (max. ang.)         AngularGrid ... 4 (Lebedev-302)
Angular grid pruning method      GridPruning ... 4 (adaptive)
Weight generation scheme         WeightScheme... Becke
Basis function cutoff            BFCut       ... 1.0000e-11
Integration weight cutoff        WCut        ... 1.0000e-14
Angular grids for H and He will be reduced by one unit
Partially contracted basis set               ... off
Rotationally invariant grid construction     ... off

Total number of grid points                  ...   217889
Total number of batches                      ...     3427
Average number of points per batch           ...       63
Average number of grid points per atom       ...     4737
Time for grid setup =    1.329 sec

--------------------
COSX GRID GENERATION
--------------------

GRIDX 1
-------
General Integration Accuracy     IntAcc      ... 3.816
Radial Grid Type                 RadialGrid  ... OptM3 with GC (2021)
Angular Grid (max. ang.)         AngularGrid ... 1 (Lebedev-50)
Angular grid pruning method      GridPruning ... 4 (adaptive)
Weight generation scheme         WeightScheme... Becke
Basis function cutoff            BFCut       ... 1.0000e-11
Integration weight cutoff        WCut        ... 1.0000e-14
Angular grids for H and He will be reduced by one unit
Partially contracted basis set               ... on
Rotationally invariant grid construction     ... off

Total number of grid points                  ...    27604
Total number of batches                      ...      455
Average number of points per batch           ...       60
Average number of grid points per atom       ...      600
UseSFitting                                  ... on

GRIDX 2
-------
General Integration Accuracy     IntAcc      ... 4.020
Radial Grid Type                 RadialGrid  ... OptM3 with GC (2021)
Angular Grid (max. ang.)         AngularGrid ... 2 (Lebedev-110)
Angular grid pruning method      GridPruning ... 4 (adaptive)
Weight generation scheme         WeightScheme... Becke
Basis function cutoff            BFCut       ... 1.0000e-11
Integration weight cutoff        WCut        ... 1.0000e-14
Angular grids for H and He will be reduced by one unit
Partially contracted basis set               ... on
Rotationally invariant grid construction     ... off

Total number of grid points                  ...    59569
Total number of batches                      ...      951
Average number of points per batch           ...       62
Average number of grid points per atom       ...     1295
UseSFitting                                  ... on

GRIDX 3
-------
General Integration Accuracy     IntAcc      ... 4.338
Radial Grid Type                 RadialGrid  ... OptM3 with GC (2021)
Angular Grid (max. ang.)         AngularGrid ... 3 (Lebedev-194)
Angular grid pruning method      GridPruning ... 4 (adaptive)
Weight generation scheme         WeightScheme... Becke
Basis function cutoff            BFCut       ... 1.0000e-11
Integration weight cutoff        WCut        ... 1.0000e-14
Angular grids for H and He will be reduced by one unit
Partially contracted basis set               ... on
Rotationally invariant grid construction     ... off

Total number of grid points                  ...   129927
Total number of batches                      ...     2058
Average number of points per batch           ...       63
Average number of grid points per atom       ...     2824
UseSFitting                                  ... on

Time for X-Grid setup             =    2.687 sec


--------------------
CPCM SOLVATION MODEL
--------------------
CPCM parameters:
  Epsilon                                         ...      47.2000
  Refrac                                          ...       1.4790
  Rsolv                                           ...       1.3000
  Surface type                                    ... GAUSSIAN VDW
  Epsilon function type                           ...         CPCM
Radii:
 Radius for C  used is    3.8550 Bohr (=   2.0400 Ang.)
 Radius for N  used is    3.5149 Bohr (=   1.8600 Ang.)
 Radius for O  used is    3.4469 Bohr (=   1.8240 Ang.)
 Radius for H  used is    2.4944 Bohr (=   1.3200 Ang.)
Calculating surface                               ...        done! (  0.0s)
GEPOL surface points                              ...         2268
GEPOL Volume                                      ...    2707.4263
GEPOL Surface-area                                ...    1297.6445
Calculating surface distance matrix               ...        done! (  0.1s)
Performing Cholesky decomposition & store         ...        done! (  0.3s)
Overall time for CPCM initialization              ...                 0.4s
--------------
SCF ITERATIONS
--------------
ITER       Energy         Delta-E        Max-DP      RMS-DP      [F,P]     Damp
               ***  Starting incremental Fock matrix formation  ***
  0  -1220.0256639475   0.000000000000 0.15504377  0.00069901  0.2652447 0.7000
  1  -1220.2889153522  -0.263251404734 0.12663941  0.00059347  0.1053446 0.7000
                               ***Turning on DIIS***
  2  -1220.3954930573  -0.106577705026 0.15297656  0.00115367  0.0373416 0.0000
  3  -1220.5705991360  -0.175106078732 0.11986848  0.00042861  0.0505263 0.0000
  4  -1220.6021520756  -0.031552939603 0.02835751  0.00018477  0.0153986 0.0000
  5  -1220.6044076561  -0.002255580463 0.01651976  0.00006490  0.0060705 0.0000
                      *** Initiating the SOSCF procedure ***
                           *** Shutting down DIIS ***
                      *** Re-Reading the Fockian *** 
                      *** Removing any level shift *** 
ITER      Energy       Delta-E        Grad      Rot      Max-DP    RMS-DP
  6  -1220.60458043  -0.0001727757  0.000289  0.000289  0.003698  0.000023
               *** Restarting incremental Fock matrix formation ***
  7  -1220.60454668   0.0000337553  0.000145  0.000818  0.006359  0.000046
  8  -1220.60454670  -0.0000000238  0.000212  0.000350  0.001409  0.000011
  9  -1220.60455059  -0.0000038882  0.000057  0.000168  0.001425  0.000010
 10  -1220.60455045   0.0000001432  0.000094  0.000126  0.000367  0.000002
 11  -1220.60455074  -0.0000002948  0.000015  0.000044  0.000258  0.000002
 12  -1220.60455075  -0.0000000065  0.000017  0.000035  0.000085  0.000001
                  ***Gradient check signals convergence***
              ***Rediagonalizing the Fockian in SOSCF/NRSCF***

               *****************************************************
               *                     SUCCESS                       *
               *           SCF CONVERGED AFTER  13 CYCLES          *
               *****************************************************

Old exchange energy                            =    -40.008438853 Eh
New exchange energy                            =    -40.008435388 Eh
Exchange energy change after final integration =      0.000003465 Eh
Total energy after final integration           =  -1220.604547258 Eh
Final COS-X integration done in                =    18.354 sec

----------------
TOTAL SCF ENERGY
----------------

Total Energy       :        -1220.60454726 Eh          -33214.33832 eV

Components:
Nuclear Repulsion  :         2585.94349594 Eh           70367.09992 eV
Electronic Energy  :        -3806.54804320 Eh         -103581.43823 eV
One Electron Energy:        -6807.34385417 Eh         -185237.24355 eV
Two Electron Energy:         3000.79581098 Eh           81655.80532 eV
Max COSX asymmetry :            0.00000299 Eh               0.00008 eV
CPCM Dielectric    :           -0.03765216 Eh              -1.02457 eV

Virial components:
Potential Energy   :        -2435.87806981 Eh          -66283.61207 eV
Kinetic Energy     :         1215.27352255 Eh           33069.27376 eV
Virial Ratio       :            2.00438669


DFT components:
N(Alpha)           :       93.999980698286 electrons
N(Beta)            :       93.999980698286 electrons
N(Total)           :      187.999961396573 electrons
E(X)               :     -119.821934670459 Eh       
E(C)               :       -6.361807904843 Eh       
E(XC)              :     -126.183742575301 Eh       
DFET-embed. en.    :        0.000000000000 Eh       
CPCM Solvation Model Properties:
Surface-charge          :           -0.03115023
Charge-correction       :           -0.00020639 Eh              -0.00562 eV
Free-energy (cav+disp)  :  This term is not implemented in the current solvation scheme

---------------
SCF CONVERGENCE
---------------

  Last Energy change         ...    2.4244e-08  Tolerance :   1.0000e-08
  Last MAX-Density change    ...    2.2204e-15  Tolerance :   1.0000e-07
  Last RMS-Density change    ...    1.4070e-17  Tolerance :   5.0000e-09
  Last Orbital Gradient      ...    1.8495e-06  Tolerance :   1.0000e-05
  Last Orbital Rotation      ...    9.9661e-06  Tolerance :   1.0000e-05

             **** THE GBW FILE WAS UPDATED (TS1_CHCH2/TS1_CHCH2.gbw) ****
             **** DENSITY TS1_CHCH2/TS1_CHCH2.scfp WAS UPDATED ****
             **** ENERGY FILE WAS UPDATED (TS1_CHCH2/TS1_CHCH2.en.tmp) ****
             **** THE GBW FILE WAS UPDATED (TS1_CHCH2/TS1_CHCH2.gbw) ****
             **** DENSITY TS1_CHCH2/TS1_CHCH2.scfp WAS UPDATED ****
----------------
ORBITAL ENERGIES
----------------

  NO   OCC          E(Eh)            E(eV) 
   0   2.0000     -19.266191      -524.2597 
   1   2.0000     -19.250851      -523.8423 
   2   2.0000     -19.209146      -522.7074 
   3   2.0000     -19.207659      -522.6670 
   4   2.0000     -19.204993      -522.5944 
   5   2.0000     -14.586868      -396.9289 
   6   2.0000     -14.466640      -393.6573 
   7   2.0000     -10.364617      -282.0356 
   8   2.0000     -10.297531      -280.2101 
   9   2.0000     -10.296626      -280.1854 
  10   2.0000     -10.291764      -280.0531 
  11   2.0000     -10.285559      -279.8843 
  12   2.0000     -10.276885      -279.6482 
  13   2.0000     -10.271953      -279.5141 
  14   2.0000     -10.268803      -279.4283 
  15   2.0000     -10.262588      -279.2592 
  16   2.0000     -10.251851      -278.9671 
  17   2.0000     -10.241252      -278.6786 
  18   2.0000     -10.238398      -278.6010 
  19   2.0000     -10.231742      -278.4199 
  20   2.0000     -10.230373      -278.3826 
  21   2.0000     -10.229880      -278.3692 
  22   2.0000     -10.229721      -278.3649 
  23   2.0000     -10.227045      -278.2920 
  24   2.0000     -10.221950      -278.1534 
  25   2.0000     -10.209152      -277.8051 
  26   2.0000      -1.233766       -33.5725 
  27   2.0000      -1.157753       -31.5041 
  28   2.0000      -1.114023       -30.3141 
  29   2.0000      -1.067079       -29.0367 
  30   2.0000      -1.053236       -28.6600 
  31   2.0000      -1.044810       -28.4307 
  32   2.0000      -0.902193       -24.5499 
  33   2.0000      -0.878607       -23.9081 
  34   2.0000      -0.866141       -23.5689 
  35   2.0000      -0.818117       -22.2621 
  36   2.0000      -0.813980       -22.1495 
  37   2.0000      -0.789575       -21.4854 
  38   2.0000      -0.781635       -21.2694 
  39   2.0000      -0.773413       -21.0456 
  40   2.0000      -0.749049       -20.3827 
  41   2.0000      -0.725986       -19.7551 
  42   2.0000      -0.705968       -19.2104 
  43   2.0000      -0.683021       -18.5860 
  44   2.0000      -0.661185       -17.9918 
  45   2.0000      -0.638101       -17.3636 
  46   2.0000      -0.631246       -17.1771 
  47   2.0000      -0.614256       -16.7147 
  48   2.0000      -0.603170       -16.4131 
  49   2.0000      -0.578628       -15.7453 
  50   2.0000      -0.566841       -15.4245 
  51   2.0000      -0.557379       -15.1671 
  52   2.0000      -0.551639       -15.0109 
  53   2.0000      -0.542192       -14.7538 
  54   2.0000      -0.532957       -14.5025 
  55   2.0000      -0.527991       -14.3674 
  56   2.0000      -0.518661       -14.1135 
  57   2.0000      -0.515335       -14.0230 
  58   2.0000      -0.509847       -13.8736 
  59   2.0000      -0.499770       -13.5994 
  60   2.0000      -0.496679       -13.5153 
  61   2.0000      -0.489815       -13.3285 
  62   2.0000      -0.486277       -13.2323 
  63   2.0000      -0.475718       -12.9449 
  64   2.0000      -0.471188       -12.8217 
  65   2.0000      -0.463680       -12.6174 
  66   2.0000      -0.460031       -12.5181 
  67   2.0000      -0.455988       -12.4081 
  68   2.0000      -0.443421       -12.0661 
  69   2.0000      -0.434222       -11.8158 
  70   2.0000      -0.424288       -11.5455 
  71   2.0000      -0.418594       -11.3905 
  72   2.0000      -0.407412       -11.0862 
  73   2.0000      -0.400722       -10.9042 
  74   2.0000      -0.397088       -10.8053 
  75   2.0000      -0.389818       -10.6075 
  76   2.0000      -0.383958       -10.4480 
  77   2.0000      -0.380440       -10.3523 
  78   2.0000      -0.377407       -10.2698 
  79   2.0000      -0.374783       -10.1984 
  80   2.0000      -0.365958        -9.9582 
  81   2.0000      -0.348584        -9.4854 
  82   2.0000      -0.345740        -9.4081 
  83   2.0000      -0.339247        -9.2314 
  84   2.0000      -0.332290        -9.0421 
  85   2.0000      -0.327801        -8.9199 
  86   2.0000      -0.312191        -8.4952 
  87   2.0000      -0.306606        -8.3432 
  88   2.0000      -0.303025        -8.2457 
  89   2.0000      -0.287860        -7.8331 
  90   2.0000      -0.279925        -7.6172 
  91   2.0000      -0.271409        -7.3854 
  92   2.0000      -0.242353        -6.5948 
  93   2.0000      -0.205619        -5.5952 
  94   0.0000      -0.066152        -1.8001 
  95   0.0000      -0.034875        -0.9490 
  96   0.0000      -0.015955        -0.4342 
  97   0.0000      -0.014147        -0.3850 
  98   0.0000      -0.001420        -0.0386 
  99   0.0000       0.003297         0.0897 
 100   0.0000       0.044168         1.2019 
 101   0.0000       0.052737         1.4350 
 102   0.0000       0.061289         1.6678 
 103   0.0000       0.062753         1.7076 
 104   0.0000       0.070003         1.9049 
 105   0.0000       0.078194         2.1278 
 106   0.0000       0.087562         2.3827 
 107   0.0000       0.089425         2.4334 
 108   0.0000       0.092857         2.5268 
 109   0.0000       0.098202         2.6722 
 110   0.0000       0.105236         2.8636 
 111   0.0000       0.110556         3.0084 
 112   0.0000       0.113131         3.0784 
 113   0.0000       0.114894         3.1264 
 114   0.0000       0.121454         3.3049 
 115   0.0000       0.125910         3.4262 
 116   0.0000       0.130618         3.5543 
 117   0.0000       0.132695         3.6108 
 118   0.0000       0.135670         3.6918 
 119   0.0000       0.144136         3.9221 
 120   0.0000       0.145856         3.9689 
 121   0.0000       0.149851         4.0776 
 122   0.0000       0.153491         4.1767 
 123   0.0000       0.154802         4.2124 
 124   0.0000       0.163224         4.4415 
 125   0.0000       0.167796         4.5660 
 126   0.0000       0.173645         4.7251 
 127   0.0000       0.174299         4.7429 
 128   0.0000       0.180809         4.9201 
 129   0.0000       0.192287         5.2324 
 130   0.0000       0.195491         5.3196 
 131   0.0000       0.203342         5.5332 
 132   0.0000       0.206559         5.6208 
 133   0.0000       0.207561         5.6480 
 134   0.0000       0.212475         5.7817 
 135   0.0000       0.217822         5.9272 
 136   0.0000       0.220568         6.0020 
 137   0.0000       0.226466         6.1625 
 138   0.0000       0.228805         6.2261 
 139   0.0000       0.234880         6.3914 
 140   0.0000       0.235100         6.3974 
 141   0.0000       0.238465         6.4890 
 142   0.0000       0.249713         6.7950 
 143   0.0000       0.252950         6.8831 
 144   0.0000       0.255656         6.9568 
 145   0.0000       0.258231         7.0268 
 146   0.0000       0.262038         7.1304 
 147   0.0000       0.267388         7.2760 
 148   0.0000       0.271953         7.4002 
 149   0.0000       0.274067         7.4578 
 150   0.0000       0.275876         7.5070 
 151   0.0000       0.283689         7.7196 
 152   0.0000       0.290010         7.8916 
 153   0.0000       0.290877         7.9152 
 154   0.0000       0.297867         8.1054 
 155   0.0000       0.301397         8.2014 
 156   0.0000       0.304003         8.2724 
 157   0.0000       0.309092         8.4108 
 158   0.0000       0.315952         8.5975 
 159   0.0000       0.319358         8.6902 
 160   0.0000       0.319951         8.7063 
 161   0.0000       0.323571         8.8048 
 162   0.0000       0.325785         8.8651 
 163   0.0000       0.327170         8.9027 
 164   0.0000       0.339010         9.2249 
 165   0.0000       0.342972         9.3327 
 166   0.0000       0.345554         9.4030 
 167   0.0000       0.350400         9.5349 
 168   0.0000       0.354411         9.6440 
 169   0.0000       0.356761         9.7079 
 170   0.0000       0.360602         9.8125 
 171   0.0000       0.362134         9.8542 
 172   0.0000       0.368211        10.0195 
 173   0.0000       0.374313        10.1856 
 174   0.0000       0.377558        10.2739 
 175   0.0000       0.380535        10.3549 
 176   0.0000       0.386080        10.5058 
 177   0.0000       0.387781        10.5521 
 178   0.0000       0.391197        10.6450 
 179   0.0000       0.394947        10.7470 
 180   0.0000       0.401404        10.9228 
 181   0.0000       0.405684        11.0392 
 182   0.0000       0.409498        11.1430 
 183   0.0000       0.414131        11.2691 
 184   0.0000       0.417608        11.3637 
 185   0.0000       0.420888        11.4529 
 186   0.0000       0.424121        11.5409 
 187   0.0000       0.430161        11.7053 
 188   0.0000       0.434123        11.8131 
 189   0.0000       0.435730        11.8568 
 190   0.0000       0.439040        11.9469 
 191   0.0000       0.439815        11.9680 
 192   0.0000       0.443345        12.0640 
 193   0.0000       0.445397        12.1199 
 194   0.0000       0.455023        12.3818 
 195   0.0000       0.457064        12.4373 
 196   0.0000       0.462834        12.5944 
 197   0.0000       0.468853        12.7581 
 198   0.0000       0.472260        12.8508 
 199   0.0000       0.472932        12.8691 
 200   0.0000       0.477273        12.9873 
 201   0.0000       0.477389        12.9904 
 202   0.0000       0.481595        13.1049 
 203   0.0000       0.485365        13.2074 
 204   0.0000       0.488435        13.2910 
 205   0.0000       0.496748        13.5172 
 206   0.0000       0.497457        13.5365 
 207   0.0000       0.501803        13.6548 
 208   0.0000       0.506698        13.7879 
 209   0.0000       0.511270        13.9124 
 210   0.0000       0.515003        14.0139 
 211   0.0000       0.520099        14.1526 
 212   0.0000       0.522448        14.2165 
 213   0.0000       0.524727        14.2786 
 214   0.0000       0.527791        14.3619 
 215   0.0000       0.535633        14.5753 
 216   0.0000       0.539869        14.6906 
 217   0.0000       0.542979        14.7752 
 218   0.0000       0.547779        14.9058 
 219   0.0000       0.553784        15.0692 
 220   0.0000       0.558731        15.2039 
 221   0.0000       0.562641        15.3102 
 222   0.0000       0.566903        15.4262 
 223   0.0000       0.569176        15.4881 
 224   0.0000       0.575358        15.6563 
 225   0.0000       0.580181        15.7875 
 226   0.0000       0.590335        16.0638 
 227   0.0000       0.594857        16.1869 
 228   0.0000       0.602788        16.4027 
 229   0.0000       0.607660        16.5353 
 230   0.0000       0.610456        16.6113 
 231   0.0000       0.617933        16.8148 
 232   0.0000       0.629825        17.1384 
 233   0.0000       0.636610        17.3230 
 234   0.0000       0.646931        17.6039 
 235   0.0000       0.651284        17.7223 
 236   0.0000       0.653644        17.7866 
 237   0.0000       0.657868        17.9015 
 238   0.0000       0.663688        18.0599 
 239   0.0000       0.668696        18.1961 
 240   0.0000       0.673893        18.3376 
 241   0.0000       0.676854        18.4181 
 242   0.0000       0.679008        18.4767 
 243   0.0000       0.689979        18.7753 
 244   0.0000       0.694076        18.8868 
 245   0.0000       0.700551        19.0630 
 246   0.0000       0.708814        19.2878 
 247   0.0000       0.716602        19.4997 
 248   0.0000       0.716807        19.5053 
 249   0.0000       0.720030        19.5930 
 250   0.0000       0.726668        19.7736 
 251   0.0000       0.733667        19.9641 
 252   0.0000       0.738382        20.0924 
 253   0.0000       0.740383        20.1468 
 254   0.0000       0.748595        20.3703 
 255   0.0000       0.751217        20.4417 
 256   0.0000       0.763367        20.7723 
 257   0.0000       0.767208        20.8768 
 258   0.0000       0.771271        20.9873 
 259   0.0000       0.774213        21.0674 
 260   0.0000       0.777045        21.1445 
 261   0.0000       0.781738        21.2722 
 262   0.0000       0.787961        21.4415 
 263   0.0000       0.790297        21.5051 
 264   0.0000       0.795349        21.6425 
 265   0.0000       0.798420        21.7261 
 266   0.0000       0.804218        21.8839 
 267   0.0000       0.822115        22.3709 
 268   0.0000       0.828410        22.5422 
 269   0.0000       0.837341        22.7852 
 270   0.0000       0.839372        22.8405 
 271   0.0000       0.846464        23.0335 
 272   0.0000       0.852174        23.1888 
 273   0.0000       0.861241        23.4356 
 274   0.0000       0.867025        23.5930 
 275   0.0000       0.873678        23.7740 
 276   0.0000       0.877122        23.8677 
 277   0.0000       0.888025        24.1644 
 278   0.0000       0.893733        24.3197 
 279   0.0000       0.895727        24.3740 
 280   0.0000       0.905589        24.6423 
 281   0.0000       0.912960        24.8429 
 282   0.0000       0.916610        24.9422 
 283   0.0000       0.922664        25.1070 
 284   0.0000       0.929490        25.2927 
 285   0.0000       0.943987        25.6872 
 286   0.0000       0.945494        25.7282 
[...]
 33:    430.27   0.000217    1.10  0.000157  (-0.008347  0.008603  0.003678)
 34:    441.70   0.000296    1.49  0.000209  (-0.008579  0.002119  0.011436)
 35:    477.87   0.001560    7.88  0.001019  ( 0.002816 -0.031152 -0.006359)
 36:    487.04   0.000619    3.13  0.000397  (-0.007281 -0.018351 -0.002648)
 37:    510.14   0.000057    0.29  0.000035  (-0.005754  0.000762  0.001145)
 38:    552.55   0.004549   22.99  0.002569  ( 0.027572  0.036327 -0.022119)
 39:    569.29   0.008960   45.28  0.004912  ( 0.067739  0.013032  0.012383)
 40:    585.92   0.006837   34.55  0.003641  (-0.021351 -0.054220 -0.015675)
 41:    587.62   0.004767   24.09  0.002532  (-0.009885 -0.029288  0.039700)
 42:    620.14   0.002231   11.28  0.001123  (-0.023827  0.017630 -0.015627)
 43:    632.66   0.009757   49.31  0.004813  ( 0.041672  0.039205  0.039231)
 44:    645.68   0.004466   22.57  0.002158  (-0.013012 -0.042710 -0.012837)
 45:    666.91   0.001659    8.38  0.000776  (-0.001318  0.027326  0.005269)
 46:    680.80   0.007264   36.71  0.003330  (-0.007731  0.055655  0.013140)
 47:    700.92   0.025746  130.11  0.011463  ( 0.017243  0.087871  0.058685)
 48:    715.62   0.027488  138.92  0.011987  (-0.052546 -0.082420 -0.049324)
 49:    749.90   0.006951   35.13  0.002893  ( 0.015131  0.012330  0.050117)
 50:    767.56   0.020448  103.34  0.008314  ( 0.021574  0.086771 -0.017858)
 51:    777.33   0.005388   27.23  0.002163  (-0.004654 -0.046068  0.004377)
 52:    790.45   0.001754    8.87  0.000693  ( 0.009401  0.021908  0.011145)
 53:    796.28   0.001688    8.53  0.000662  ( 0.019270  0.009291  0.014278)
 54:    820.24   0.002869   14.50  0.001091  ( 0.011778  0.023399  0.020130)
 55:    827.80   0.001288    6.51  0.000486  (-0.003745 -0.020193  0.007988)
 56:    834.46   0.004841   24.47  0.001811  ( 0.034609  0.000743  0.024742)
 57:    870.88   0.003269   16.52  0.001171  (-0.020175 -0.017217 -0.021629)
 58:    881.20   0.005891   29.77  0.002086  ( 0.031891 -0.000242  0.032697)
 59:    903.91   0.002223   11.23  0.000767  (-0.016454  0.016316  0.015182)
 60:    933.88   0.018150   91.72  0.006065  ( 0.028643  0.026205  0.067512)
 61:    943.42   0.006363   32.16  0.002105  ( 0.027729  0.036197  0.005075)
 62:    956.65   0.002893   14.62  0.000944  (-0.003456 -0.029024 -0.009452)
 63:    966.50   0.000191    0.96  0.000062  ( 0.000713 -0.004301 -0.006523)
 64:    988.98   0.011831   59.79  0.003733  (-0.003277 -0.051409 -0.032854)
 65:    992.57   0.011963   60.46  0.003761  (-0.003768 -0.052486 -0.031501)
 66:   1000.41   0.008515   43.03  0.002656  ( 0.018319  0.046216  0.013583)
 67:   1010.50   0.000403    2.04  0.000125  (-0.008928  0.006156  0.002632)
 68:   1021.29   0.006471   32.70  0.001977  (-0.026011 -0.013591 -0.033408)
 69:   1029.98   0.002255   11.39  0.000683  (-0.017907  0.018603  0.004042)
 70:   1049.12   0.004399   22.23  0.001308  ( 0.029906 -0.004887 -0.019754)
 71:   1051.86   0.006647   33.59  0.001972  ( 0.013136 -0.041648 -0.008059)
 72:   1070.06   0.013536   68.41  0.003948  ( 0.029934 -0.021412 -0.050922)
 73:   1085.01   0.004941   24.97  0.001421  ( 0.010380  0.008334  0.035269)
 74:   1094.10   0.008451   42.71  0.002410  ( 0.023792  0.005080  0.042645)
 75:   1138.80   0.034620  174.95  0.009487  (-0.007129  0.050282  0.083112)
 76:   1147.20   0.003704   18.72  0.001008  ( 0.009810  0.023988 -0.018328)
 77:   1168.53   0.006177   31.22  0.001650  (-0.011874 -0.037491  0.010154)
 78:   1170.71   0.000245    1.24  0.000065  ( 0.001672  0.005869 -0.005296)
 79:   1171.96   0.000107    0.54  0.000028  (-0.002249  0.003104  0.003711)
 80:   1173.76   0.000687    3.47  0.000183  (-0.002656  0.004659  0.012407)
 81:   1176.95   0.005138   25.97  0.001362  ( 0.013771  0.027241  0.020752)
 82:   1198.48   0.013673   69.10  0.003560  ( 0.048655 -0.034318  0.003886)
 83:   1206.50   0.004415   22.31  0.001142  ( 0.009718 -0.020696 -0.024882)
 84:   1207.10   0.004380   22.14  0.001132  (-0.012216  0.031353  0.000386)
 85:   1217.88   0.017039   86.11  0.004366  (-0.003369  0.063816  0.016800)
 86:   1235.65   0.022251  112.45  0.005619  ( 0.050691 -0.053617  0.013229)
 87:   1245.15   0.002406   12.16  0.000603  ( 0.015490 -0.018941 -0.002081)
 88:   1253.29   0.000578    2.92  0.000144  ( 0.007447  0.007220 -0.006038)
 89:   1263.54   0.089301  451.29  0.022055  ( 0.085398 -0.121079  0.010115)
 90:   1291.15   0.026299  132.90  0.006356  ( 0.019939  0.000908  0.077188)
 91:   1305.99   0.043078  217.70  0.010293  (-0.054780 -0.015964 -0.083890)
 92:   1329.36   0.005323   26.90  0.001250  ( 0.003555 -0.034651 -0.006023)
 93:   1340.78   0.014777   74.68  0.003439  ( 0.040370 -0.039287  0.016315)
 94:   1349.84   0.073887  373.40  0.017082  ( 0.035161 -0.072188 -0.103122)
 95:   1358.14   0.017254   87.20  0.003965  ( 0.017749  0.000772  0.060406)
 96:   1370.47   0.030721  155.25  0.006995  ( 0.054140 -0.053666 -0.034412)
 97:   1374.15   0.021158  106.92  0.004805  (-0.010476  0.002893 -0.068460)
 98:   1388.79   0.004385   22.16  0.000985  ( 0.018248 -0.012793 -0.022104)
 99:   1419.52   0.005463   27.61  0.001201  (-0.015919 -0.004281  0.030483)
100:   1439.09   0.020634  104.27  0.004474  ( 0.019684 -0.043403  0.046937)
101:   1465.05   0.004322   21.84  0.000921  (-0.006628 -0.007599 -0.028618)
102:   1465.28   0.003363   17.00  0.000716  ( 0.007942  0.025473  0.002096)
103:   1469.07   0.011491   58.07  0.002441  ( 0.043883 -0.021760 -0.006466)
104:   1471.53   0.004603   23.26  0.000976  ( 0.001860 -0.024206  0.019667)
105:   1474.73   0.002399   12.13  0.000508  ( 0.000493 -0.006520 -0.021563)
106:   1481.82   0.025096  126.83  0.005285  (-0.060405 -0.032756  0.023737)
107:   1482.75   0.003563   18.01  0.000750  ( 0.015581 -0.005135  0.021926)
108:   1498.13   0.012232   61.81  0.002548  (-0.024965 -0.012774 -0.041970)
109:   1512.90   0.008345   42.17  0.001721  ( 0.024453  0.028545 -0.017563)
110:   1528.11   0.060932  307.92  0.012443  (-0.002360 -0.104556  0.038804)
111:   1540.69   0.040632  205.34  0.008230  (-0.051947  0.013151 -0.073202)
112:   1595.21   0.051813  261.84  0.010136  (-0.059127 -0.073810  0.034526)
113:   1650.50   0.008218   41.53  0.001554  (-0.007824 -0.005902 -0.038180)
114:   1664.18   0.009998   50.53  0.001875  (-0.035091 -0.004072 -0.025036)
115:   1679.73   0.037406  189.04  0.006949  ( 0.081051  0.019480  0.000861)
116:   1687.73   0.024876  125.71  0.004600  ( 0.044663 -0.043928  0.025984)
117:   1793.34   0.103464  522.87  0.018004  (-0.080986 -0.033684 -0.101542)
118:   3041.73   0.011843   59.85  0.001215  ( 0.009778 -0.010166 -0.031875)
119:   3073.61   0.006221   31.44  0.000632  (-0.009718  0.021874  0.007662)
120:   3109.30   0.001345    6.80  0.000135  ( 0.003753 -0.010392 -0.003587)
121:   3115.39   0.006963   35.19  0.000697  ( 0.004077  0.025293 -0.006413)
122:   3132.82   0.000598    3.02  0.000060  ( 0.007415 -0.001943  0.000891)
123:   3157.83   0.003771   19.06  0.000373  (-0.012320 -0.010858  0.010150)
124:   3168.13   0.003035   15.34  0.000299  ( 0.012194 -0.004608  0.011359)
125:   3168.17   0.001905    9.63  0.000188  ( 0.011704  0.006623 -0.002606)
126:   3184.34   0.000786    3.97  0.000077  (-0.004601  0.001852  0.007240)
127:   3185.94   0.003320   16.78  0.000325  (-0.014253  0.008081  0.007530)
128:   3190.78   0.002039   10.31  0.000199  (-0.009452  0.002809 -0.010110)
129:   3196.95   0.001515    7.65  0.000148  ( 0.009843 -0.002981 -0.006488)
130:   3202.44   0.001395    7.05  0.000136  (-0.007180  0.006696 -0.006290)
131:   3209.08   0.002150   10.86  0.000209  (-0.007773 -0.009834  0.007205)
132:   3214.06   0.003238   16.36  0.000314  (-0.013241 -0.000518 -0.011779)
133:   3228.10   0.000336    1.70  0.000032  (-0.003809  0.000569 -0.004203)
134:   3230.71   0.000284    1.43  0.000027  ( 0.002978 -0.001780 -0.003922)
135:   3232.28   0.000250    1.26  0.000024  ( 0.004007 -0.000281  0.002830)
136:   3248.19   0.000037    0.19  0.000004  ( 0.000735  0.000931 -0.001453)
137:   3282.72   0.000523    2.65  0.000050  (-0.006411 -0.002391  0.001717)

* The epsilon (eps) is given for a Dirac delta lineshape.
** The dipole moment derivative (T) already includes vibrational overlap.

The first frequency considered to be a vibration is 7
The total number of vibrations considered is 131


--------------------------
THERMOCHEMISTRY AT 298.15K
--------------------------

Temperature         ... 298.15 K
Pressure            ... 1.00 atm
Total Mass          ... 356.38 AMU

Throughout the following assumptions are being made:
  (1) The electronic state is orbitally nondegenerate
  (2) There are no thermally accessible electronically excited states
  (3) Hindered rotations indicated by low frequency modes are not
      treated as such but are treated as vibrations and this may
      cause some error
  (4) All equations used are the standard statistical mechanics
      equations for an ideal gas
  (5) All vibrations are strictly harmonic

freq.      22.00  E(vib)   ...       0.56 
freq.      39.78  E(vib)   ...       0.54 
freq.      58.70  E(vib)   ...       0.51 
freq.      76.59  E(vib)   ...       0.49 
freq.      83.45  E(vib)   ...       0.48 
freq.      88.17  E(vib)   ...       0.48 
freq.      88.86  E(vib)   ...       0.47 
freq.     101.88  E(vib)   ...       0.46 
freq.     112.85  E(vib)   ...       0.45 
freq.     121.33  E(vib)   ...       0.44 
freq.     136.56  E(vib)   ...       0.42 
freq.     139.11  E(vib)   ...       0.42 
freq.     148.67  E(vib)   ...       0.41 
freq.     170.42  E(vib)   ...       0.38 
freq.     194.91  E(vib)   ...       0.36 
freq.     199.67  E(vib)   ...       0.35 
freq.     208.44  E(vib)   ...       0.34 
freq.     240.23  E(vib)   ...       0.31 
freq.     247.37  E(vib)   ...       0.31 
freq.     272.71  E(vib)   ...       0.29 
freq.     279.74  E(vib)   ...       0.28 
freq.     295.32  E(vib)   ...       0.27 
freq.     305.12  E(vib)   ...       0.26 
freq.     317.74  E(vib)   ...       0.25 
freq.     341.62  E(vib)   ...       0.23 
freq.     372.85  E(vib)   ...       0.21 
freq.     430.27  E(vib)   ...       0.18 
freq.     441.70  E(vib)   ...       0.17 
freq.     477.87  E(vib)   ...       0.15 
freq.     487.04  E(vib)   ...       0.15 
freq.     510.14  E(vib)   ...       0.14 
freq.     552.55  E(vib)   ...       0.12 
freq.     569.29  E(vib)   ...       0.11 
freq.     585.92  E(vib)   ...       0.11 
freq.     587.62  E(vib)   ...       0.10 
freq.     620.14  E(vib)   ...       0.09 
freq.     632.66  E(vib)   ...       0.09 
freq.     645.68  E(vib)   ...       0.09 
freq.     666.91  E(vib)   ...       0.08 
freq.     680.80  E(vib)   ...       0.08 
freq.     700.92  E(vib)   ...       0.07 
freq.     715.62  E(vib)   ...       0.07 
freq.     749.90  E(vib)   ...       0.06 
freq.     767.56  E(vib)   ...       0.06 
freq.     777.33  E(vib)   ...       0.05 
freq.     790.45  E(vib)   ...       0.05 
freq.     796.28  E(vib)   ...       0.05 
freq.     820.24  E(vib)   ...       0.05 
freq.     827.80  E(vib)   ...       0.04 
freq.     834.46  E(vib)   ...       0.04 
freq.     870.88  E(vib)   ...       0.04 
freq.     881.20  E(vib)   ...       0.04 
freq.     903.91  E(vib)   ...       0.03 
freq.     933.88  E(vib)   ...       0.03 
freq.     943.42  E(vib)   ...       0.03 
freq.     956.65  E(vib)   ...       0.03 
freq.     966.50  E(vib)   ...       0.03 
freq.     988.98  E(vib)   ...       0.02 
freq.     992.57  E(vib)   ...       0.02 
freq.    1000.41  E(vib)   ...       0.02 
freq.    1010.50  E(vib)   ...       0.02 
freq.    1021.29  E(vib)   ...       0.02 
freq.    1029.98  E(vib)   ...       0.02 
freq.    1049.12  E(vib)   ...       0.02 
freq.    1051.86  E(vib)   ...       0.02 
freq.    1070.06  E(vib)   ...       0.02 
freq.    1085.01  E(vib)   ...       0.02 
freq.    1094.10  E(vib)   ...       0.02 
freq.    1138.80  E(vib)   ...       0.01 
freq.    1147.20  E(vib)   ...       0.01 
freq.    1168.53  E(vib)   ...       0.01 
freq.    1170.71  E(vib)   ...       0.01 
freq.    1171.96  E(vib)   ...       0.01 
freq.    1173.76  E(vib)   ...       0.01 
freq.    1176.95  E(vib)   ...       0.01 
freq.    1198.48  E(vib)   ...       0.01 
freq.    1206.50  E(vib)   ...       0.01 
freq.    1207.10  E(vib)   ...       0.01 
freq.    1217.88  E(vib)   ...       0.01 
freq.    1235.65  E(vib)   ...       0.01 
freq.    1245.15  E(vib)   ...       0.01 
freq.    1253.29  E(vib)   ...       0.01 
freq.    1263.54  E(vib)   ...       0.01 
freq.    1291.15  E(vib)   ...       0.01 
freq.    1305.99  E(vib)   ...       0.01 
freq.    1329.36  E(vib)   ...       0.01 
freq.    1340.78  E(vib)   ...       0.01 
freq.    1349.84  E(vib)   ...       0.01 
freq.    1358.14  E(vib)   ...       0.01 
freq.    1370.47  E(vib)   ...       0.01 
freq.    1374.15  E(vib)   ...       0.01 
freq.    1388.79  E(vib)   ...       0.00 
freq.    1419.52  E(vib)   ...       0.00 
freq.    1439.09  E(vib)   ...       0.00 
freq.    1465.05  E(vib)   ...       0.00 
freq.    1465.28  E(vib)   ...       0.00 
freq.    1469.07  E(vib)   ...       0.00 
freq.    1471.53  E(vib)   ...       0.00 
freq.    1474.73  E(vib)   ...       0.00 
freq.    1481.82  E(vib)   ...       0.00 
freq.    1482.75  E(vib)   ...       0.00 
freq.    1498.13  E(vib)   ...       0.00 
freq.    1512.90  E(vib)   ...       0.00 
freq.    1528.11  E(vib)   ...       0.00 
freq.    1540.69  E(vib)   ...       0.00 
freq.    1595.21  E(vib)   ...       0.00 
freq.    1650.50  E(vib)   ...       0.00 
freq.    1664.18  E(vib)   ...       0.00 
freq.    1679.73  E(vib)   ...       0.00 
freq.    1687.73  E(vib)   ...       0.00 
freq.    1793.34  E(vib)   ...       0.00 
freq.    3041.73  E(vib)   ...       0.00 
freq.    3073.61  E(vib)   ...       0.00 
freq.    3109.30  E(vib)   ...       0.00 
freq.    3115.39  E(vib)   ...       0.00 
freq.    3132.82  E(vib)   ...       0.00 
freq.    3157.83  E(vib)   ...       0.00 
freq.    3168.13  E(vib)   ...       0.00 
freq.    3168.17  E(vib)   ...       0.00 
freq.    3184.34  E(vib)   ...       0.00 
freq.    3185.94  E(vib)   ...       0.00 
freq.    3190.78  E(vib)   ...       0.00 
freq.    3196.95  E(vib)   ...       0.00 
freq.    3202.44  E(vib)   ...       0.00 
freq.    3209.08  E(vib)   ...       0.00 
freq.    3214.06  E(vib)   ...       0.00 
freq.    3228.10  E(vib)   ...       0.00 
freq.    3230.71  E(vib)   ...       0.00 
freq.    3232.28  E(vib)   ...       0.00 
freq.    3248.19  E(vib)   ...       0.00 
freq.    3282.72  E(vib)   ...       0.00 

------------
INNER ENERGY
------------

The inner energy is: U= E(el) + E(ZPE) + E(vib) + E(rot) + E(trans)
    E(el)   - is the total energy from the electronic structure calculation
              = E(kin-el) + E(nuc-el) + E(el-el) + E(nuc-nuc)
    E(ZPE)  - the the zero temperature vibrational energy from the frequency calculation
    E(vib)  - the the finite temperature correction to E(ZPE) due to population
              of excited vibrational states
    E(rot)  - is the rotational thermal energy
    E(trans)- is the translational thermal energy

Summary of contributions to the inner energy U:
Electronic energy                ...  -1220.66727678 Eh
Zero point energy                ...      0.36714874 Eh     230.39 kcal/mol
Thermal vibrational correction   ...      0.02047488 Eh      12.85 kcal/mol
Thermal rotational correction    ...      0.00141627 Eh       0.89 kcal/mol
Thermal translational correction ...      0.00141627 Eh       0.89 kcal/mol
-----------------------------------------------------------------------
Total thermal energy                  -1220.27682063 Eh


Summary of corrections to the electronic energy:
(perhaps to be used in another calculation)
Total thermal correction                  0.02330742 Eh      14.63 kcal/mol
Non-thermal (ZPE) correction              0.36714874 Eh     230.39 kcal/mol
-----------------------------------------------------------------------
Total correction                          0.39045616 Eh     245.01 kcal/mol


--------
ENTHALPY
--------

The enthalpy is H = U + kB*T
                kB is Boltzmann's constant
Total free energy                 ...  -1220.27682063 Eh 
Thermal Enthalpy correction       ...      0.00094421 Eh       0.59 kcal/mol
-----------------------------------------------------------------------
Total Enthalpy                    ...  -1220.27587642 Eh


Note: Only C1 symmetry has been detected, increase convergence thresholds 
      if your molecule has a higher symmetry. Symmetry factor of 1.0 is   
      used for the rotational entropy correction. 
 

Note: Rotational entropy computed according to Herzberg 
Infrared and Raman Spectra, Chapter V,1, Van Nostrand Reinhold, 1945 
Point Group:  C1, Symmetry Number:   1  
Rotational constants in cm-1:     0.011275     0.006714     0.005543 

Vibrational entropy computed according to the QRRHO of S. Grimme
Chem.Eur.J. 2012 18 9955


-------
ENTROPY
-------

The entropy contributions are T*S = T*(S(el)+S(vib)+S(rot)+S(trans))
     S(el)   - electronic entropy
     S(vib)  - vibrational entropy
     S(rot)  - rotational entropy
     S(trans)- translational entropy
The entropies will be listed as multiplied by the temperature to get
units of energy

Electronic entropy                ...      0.00000000 Eh      0.00 kcal/mol
Vibrational entropy               ...      0.03647191 Eh     22.89 kcal/mol
Rotational entropy                ...      0.01644289 Eh     10.32 kcal/mol
Translational entropy             ...      0.02067107 Eh     12.97 kcal/mol
-----------------------------------------------------------------------
Final entropy term                ...      0.07358587 Eh     46.18 kcal/mol

In case the symmetry of your molecule has not been determined correctly
or in case you have a reason to use a different symmetry number we print 
out the resulting rotational entropy values for sn=1,12 :
 --------------------------------------------------------
|  sn= 1 | S(rot)=       0.01644289 Eh     10.32 kcal/mol|
|  sn= 2 | S(rot)=       0.01578844 Eh      9.91 kcal/mol|
|  sn= 3 | S(rot)=       0.01540560 Eh      9.67 kcal/mol|
|  sn= 4 | S(rot)=       0.01513398 Eh      9.50 kcal/mol|
|  sn= 5 | S(rot)=       0.01492329 Eh      9.36 kcal/mol|
|  sn= 6 | S(rot)=       0.01475115 Eh      9.26 kcal/mol|
|  sn= 7 | S(rot)=       0.01460560 Eh      9.17 kcal/mol|
|  sn= 8 | S(rot)=       0.01447952 Eh      9.09 kcal/mol|
|  sn= 9 | S(rot)=       0.01436832 Eh      9.02 kcal/mol|
|  sn=10 | S(rot)=       0.01426884 Eh      8.95 kcal/mol|
|  sn=11 | S(rot)=       0.01417885 Eh      8.90 kcal/mol|
|  sn=12 | S(rot)=       0.01409669 Eh      8.85 kcal/mol|
 --------------------------------------------------------


-------------------
GIBBS FREE ENERGY
-------------------

The Gibbs free energy is G = H - T*S

Total enthalpy                    ...  -1220.27587642 Eh 
Total entropy correction          ...     -0.07358587 Eh    -46.18 kcal/mol
-----------------------------------------------------------------------
Final Gibbs free energy         ...  -1220.34946229 Eh

For completeness - the Gibbs free energy minus the electronic energy
G-E(el)                           ...      0.31781449 Eh    199.43 kcal/mol


Timings for individual modules:

Sum of individual times         ...     4124.824 sec (=  68.747 min)
GTO integral calculation        ...       15.979 sec (=   0.266 min)   0.4 %
SCF iterations                  ...      700.630 sec (=  11.677 min)  17.0 %
SCF Gradient evaluation         ...      163.111 sec (=   2.719 min)   4.0 %
Geometry relaxation             ...        1.579 sec (=   0.026 min)   0.0 %
Analytical frequency calculation...     3243.525 sec (=  54.059 min)  78.6 %
                             ****ORCA TERMINATED NORMALLY****
TOTAL RUN TIME: 0 days 1 hours 9 minutes 3 seconds 258 msec
