
                                 *****************
                                 * O   R   C   A *
                                 *****************

                                            #,                                       
                                            ###                                      
                                            ####                                     
                                            #####                                    
                                            ######                                   
                                           ########,                                 
                                     ,,################,,,,,                         
                               ,,#################################,,                 
                          ,,##########################################,,             
                       ,#########################################, ''#####,          
                    ,#############################################,,   '####,        
                  ,##################################################,,,,####,       
                ,###########''''           ''''###############################       
              ,#####''   ,,,,##########,,,,          '''####'''          '####       
            ,##' ,,,,###########################,,,                        '##       
           ' ,,###''''                  '''############,,,                           
         ,,##''                                '''############,,,,        ,,,,,,###''
      ,#''                                            '''#######################'''  
     '                                                          ''''####''''         
             ,#######,   #######,   ,#######,      ##                                
            ,#'     '#,  ##    ##  ,#'     '#,    #''#        ######   ,####,        
            ##       ##  ##   ,#'  ##            #'  '#       #        #'  '#        
            ##       ##  #######   ##           ,######,      #####,   #    #        
            '#,     ,#'  ##    ##  '#,     ,#' ,#      #,         ##   #,  ,#        
             '#######'   ##     ##  '#######'  #'      '#     #####' # '####'        



                  #######################################################
                  #                        -***-                        #
                  #          Department of theory and spectroscopy      #
                  #    Directorship and core code : Frank Neese         #
                  #        Max Planck Institute fuer Kohlenforschung    #
                  #                Kaiser Wilhelm Platz 1               #
                  #                 D-45470 Muelheim/Ruhr               #
                  #                      Germany                        #
                  #                                                     #
                  #                  All rights reserved                #
                  #                        -***-                        #
                  #######################################################


                         Program Version 5.0.4 -  RELEASE  -


 With contributions from (in alphabetic order):
   Daniel Aravena         : Magnetic Suceptibility
   Michael Atanasov       : Ab Initio Ligand Field Theory (pilot matlab implementation)
   Alexander A. Auer      : GIAO ZORA, VPT2 properties, NMR spectrum
   Ute Becker             : Parallelization
   Giovanni Bistoni       : ED, misc. LED, open-shell LED, HFLD
   Martin Brehm           : Molecular dynamics
   Dmytro Bykov           : SCF Hessian
   Vijay G. Chilkuri      : MRCI spin determinant printing, contributions to CSF-ICE
   Dipayan Datta          : RHF DLPNO-CCSD density
   Achintya Kumar Dutta   : EOM-CC, STEOM-CC
   Dmitry Ganyushin       : Spin-Orbit,Spin-Spin,Magnetic field MRCI
   Miquel Garcia          : C-PCM and meta-GGA Hessian, CC/C-PCM, Gaussian charge scheme
   Yang Guo               : DLPNO-NEVPT2, F12-NEVPT2, CIM, IAO-localization
   Andreas Hansen         : Spin unrestricted coupled pair/coupled cluster methods
   Benjamin Helmich-Paris : MC-RPA, TRAH-SCF, COSX integrals
   Lee Huntington         : MR-EOM, pCC
   Robert Izsak           : Overlap fitted RIJCOSX, COSX-SCS-MP3, EOM
   Marcus Kettner         : VPT2
   Christian Kollmar      : KDIIS, OOCD, Brueckner-CCSD(T), CCSD density, CASPT2, CASPT2-K
   Simone Kossmann        : Meta GGA functionals, TD-DFT gradient, OOMP2, MP2 Hessian
   Martin Krupicka        : Initial AUTO-CI
   Lucas Lang             : DCDCAS
   Marvin Lechner         : AUTO-CI (C++ implementation), FIC-MRCC
   Dagmar Lenk            : GEPOL surface, SMD
   Dimitrios Liakos       : Extrapolation schemes; Compound Job, initial MDCI parallelization
   Dimitrios Manganas     : Further ROCIS development; embedding schemes
   Dimitrios Pantazis     : SARC Basis sets
   Anastasios Papadopoulos: AUTO-CI, single reference methods and gradients
   Taras Petrenko         : DFT Hessian,TD-DFT gradient, ASA, ECA, R-Raman, ABS, FL, XAS/XES, NRVS
   Peter Pinski           : DLPNO-MP2, DLPNO-MP2 Gradient
   Christoph Reimann      : Effective Core Potentials
   Marius Retegan         : Local ZFS, SOC
   Christoph Riplinger    : Optimizer, TS searches, QM/MM, DLPNO-CCSD(T), (RO)-DLPNO pert. Triples
   Tobias Risthaus        : Range-separated hybrids, TD-DFT gradient, RPA, STAB
   Michael Roemelt        : Original ROCIS implementation
   Masaaki Saitow         : Open-shell DLPNO-CCSD energy and density
   Barbara Sandhoefer     : DKH picture change effects
   Avijit Sen             : IP-ROCIS
   Kantharuban Sivalingam : CASSCF convergence, NEVPT2, FIC-MRCI
   Bernardo de Souza      : ESD, SOC TD-DFT
   Georgi Stoychev        : AutoAux, RI-MP2 NMR, DLPNO-MP2 response
   Willem Van den Heuvel  : Paramagnetic NMR
   Boris Wezisla          : Elementary symmetry handling
   Frank Wennmohs         : Technical directorship


 We gratefully acknowledge several colleagues who have allowed us to
 interface, adapt or use parts of their codes:
   Stefan Grimme, W. Hujo, H. Kruse, P. Pracht,  : VdW corrections, initial TS optimization,
                  C. Bannwarth, S. Ehlert          DFT functionals, gCP, sTDA/sTD-DF
   Ed Valeev, F. Pavosevic, A. Kumar             : LibInt (2-el integral package), F12 methods
   Garnet Chan, S. Sharma, J. Yang, R. Olivares  : DMRG
   Ulf Ekstrom                                   : XCFun DFT Library
   Mihaly Kallay                                 : mrcc  (arbitrary order and MRCC methods)
   Jiri Pittner, Ondrej Demel                    : Mk-CCSD
   Frank Weinhold                                : gennbo (NPA and NBO analysis)
   Christopher J. Cramer and Donald G. Truhlar   : smd solvation model
   Lars Goerigk                                  : TD-DFT with DH, B97 family of functionals
   V. Asgeirsson, H. Jonsson                     : NEB implementation
   FAccTs GmbH                                   : IRC, NEB, NEB-TS, DLPNO-Multilevel, CI-OPT
                                                   MM, QMMM, 2- and 3-layer-ONIOM, Crystal-QMMM,
                                                   LR-CPCM, SF, NACMEs, symmetry and pop. for TD-DFT,
                                                   nearIR, NL-DFT gradient (VV10), updates on ESD,
                                                   ML-optimized integration grids
   S Lehtola, MJT Oliveira, MAL Marques          : LibXC Library
   Liviu Ungur et al                             : ANISO software


 Your calculation uses the libint2 library for the computation of 2-el integrals
 For citations please refer to: http://libint.valeyev.net

 Your ORCA version has been built with support for libXC version: 5.1.0
 For citations please refer to: https://tddft.org/programs/libxc/

 This ORCA versions uses:
   CBLAS   interface :  Fast vector & matrix operations
   LAPACKE interface :  Fast linear algebra routines
   SCALAPACK package :  Parallel linear algebra routines
   Shared memory     :  Shared parallel matrices
   BLAS/LAPACK       :  OpenBLAS 0.3.15  USE64BITINT DYNAMIC_ARCH NO_AFFINITY Haswell SINGLE_THREADED
        Core in use  :  Haswell
   Copyright (c) 2011-2014, The OpenBLAS Project


Your calculation utilizes the atom-pairwise dispersion correction
with the Becke-Johnson damping scheme (D3BJ)
Cite in your paper:
S.Grimme, S.Ehrlich, L.Goerigk, J Comput Chem, (2011), 32, 1456–1465 
S.Grimme, J.Antony, S.Ehrlich and H.Krieg, J.Chem.Phys., 132, (2010), 154104 
   

================================================================================

----- Orbital basis set information -----
Your calculation utilizes the basis: def2-TZVP
   F. Weigend and R. Ahlrichs, Phys. Chem. Chem. Phys. 7, 3297 (2005).

----- AuxJ basis set information -----
Your calculation utilizes the auxiliary basis: def2/J
   F. Weigend, Phys. Chem. Chem. Phys. 8, 1057 (2006).

================================================================================
                                        WARNINGS
                       Please study these warnings very carefully!
================================================================================


WARNING: Geometry Optimization
  ===> : Switching off AutoStart
         For restart on a previous wavefunction, please use MOREAD

INFO   : the flag for use of the SHARK integral package has been found!

================================================================================
                                       INPUT FILE
================================================================================
NAME = 3_4-OMePh/3_4-OMePh.inp
|  1> %pal nprocs 24 end
|  2> %maxcore 3500
|  3> ! PBE0 D3BJ def2-TZVP TightSCF OPT FREQ TightOpt
|  4> ! CPCM(dmso)
|  5> %scf
|  6> MaxIter 800
|  7> end
|  8> %geom
|  9> MaxIter 800
| 10> MaxStep 0.2
| 11> end
| 12> *xyz 0 1
| 13> 
| 14> C       2.98586900      3.10575800     -1.02534600
| 15> C       4.08434000      2.39627500     -0.42075200
| 16> C       3.83366000      1.17684700      0.09948600
| 17> N       2.61560200      0.59053000      0.01045300
| 18> C       1.46017600      1.20493500     -0.60159800
| 19> C       1.75725100      2.57456500     -1.11022700
| 20> C       2.23494100     -0.57189800      0.75367900
| 21> C       2.45293000     -1.89025000      0.02862600
| 22> O       2.24054800     -2.95722100      0.55045400
| 23> O       2.97634700     -1.74162700     -1.17779200
| 24> C       3.22753700     -2.94972600     -1.89850500
| 25> H       3.15860100      4.09998100     -1.42411300
| 26> H       4.58449400      0.59271200      0.61924400
| 27> H       1.08413700      0.55868600     -1.40378800
| 28> H       0.94090300      3.11959000     -1.56713500
| 29> H       2.86183700     -0.65606600      1.64540600
| 30> H       3.94520300     -3.57009000     -1.36130400
| 31> H       3.63447400     -2.64137200     -2.85792700
| 32> H       5.07116200      2.82953100     -0.35210300
| 33> C      -3.75906100      1.18590300     -0.74417400
| 34> C      -2.74240500      1.29987200     -1.68916000
| 35> C      -1.41773700      1.27378200     -1.29636600
| 36> C      -1.06942700      1.12861000      0.04224900
| 37> C      -2.09471500      1.02791000      0.97556700
| 38> C      -3.42773000      1.05646800      0.60292800
| 39> C       0.35412600      1.03758500      0.50900200
| 40> C       0.75965900     -0.29338800      1.21755800
| 41> C      -0.24432800     -1.40616300      1.11180900
| 42> C      -0.84614800     -1.87715800      2.26893100
| 43> C      -1.82748100     -2.85914500      2.23606800
| 44> C      -2.21894900     -3.38060400      1.01522400
| 45> C      -1.62624700     -2.93874900     -0.16092000
| 46> C      -0.63757700     -1.96503700     -0.11099300
| 47> O      -5.02240900      1.21336600     -1.21634000
| 48> C      -6.07986800      1.08988300     -0.28281000
| 49> O       0.00608900     -1.49716600     -1.19915000
| 50> C      -0.39931100     -1.94810400     -2.47617800
| 51> N       0.62238000      2.19368300      1.46250800
| 52> O       0.05516400      3.24123500      1.24263000
| 53> H      -3.00589800      1.40758200     -2.73477500
| 54> H      -0.65937600      1.35662500     -2.06387800
| 55> H      -1.85554000      0.92094000      2.02784300
| 56> H      -4.19305000      0.97161500      1.36223300
| 57> H       0.83007500     -0.06276200      2.27733600
| 58> H      -0.54586200     -1.44835100      3.21945000
| 59> H      -2.28410600     -3.20405400      3.15588700
| 60> H      -2.98979600     -4.14133500      0.96585100
| 61> H      -1.93506000     -3.35830800     -1.10883500
| 62> H      -6.99997700      1.13153300     -0.86195000
| 63> H      -6.06632500      1.91044600      0.44017900
| 64> H      -6.02637400      0.13595100      0.24972700
| 65> H      -1.44864600     -1.70199400     -2.66021100
| 66> H      -0.25008500     -3.02622900     -2.57952500
| 67> H       0.22939600     -1.42349500     -3.19290100
| 68> O       1.47393700      2.05162900      2.31564600
| 69> H       2.29902300     -3.50374500     -2.03855600
| 70> *
| 71> 
| 72>                          ****END OF INPUT****
================================================================================

                       *****************************
                       * Geometry Optimization Run *
                       *****************************

Geometry optimization settings:
Update method            Update   .... BFGS
Choice of coordinates    CoordSys .... Z-matrix Internals
Initial Hessian          InHess   .... Almoef's Model

Convergence Tolerances:
Energy Change            TolE     ....  1.0000e-06 Eh
Max. Gradient            TolMAXG  ....  1.0000e-04 Eh/bohr
RMS Gradient             TolRMSG  ....  3.0000e-05 Eh/bohr
Max. Displacement        TolMAXD  ....  1.0000e-03 bohr
RMS Displacement         TolRMSD  ....  6.0000e-04 bohr
Strict Convergence                ....  False
------------------------------------------------------------------------------
                        ORCA OPTIMIZATION COORDINATE SETUP
------------------------------------------------------------------------------

The optimization will be done in new redundant internal coordinates
Making redundant internal coordinates   ...  (new redundants) done
Evaluating the initial hessian          ...  (Almloef) done
Evaluating the coordinates              ...  done
Calculating the B-matrix                .... done
Calculating the G-matrix                .... done
Diagonalizing the G-matrix              .... done
Small eigenvalue found = 2.597e-03
Small eigenvalue found = 4.390e-03
Small eigenvalue found = 7.751e-03
Small eigenvalue found = 8.526e-03
Small eigenvalue found = 1.359e-02
Small eigenvalue found = 1.780e-02
Small eigenvalue found = 2.129e-02
Small eigenvalue found = 2.868e-02
The first mode is                       ....  148
The number of degrees of freedom        ....  162

    -----------------------------------------------------------------
                    Redundant Internal Coordinates


    -----------------------------------------------------------------
         Definition                    Initial Value    Approx d2E/dq
    -----------------------------------------------------------------
      1. B(C   1,C   0)                  1.4407         0.518672   
      2. B(C   2,C   1)                  1.3493         0.725675   
      3. B(N   3,C   2)                  1.3548         0.636953   
      4. B(C   4,N   3)                  1.4447         0.457754   
      5. B(C   5,C   4)                  1.4909         0.431248   
      6. B(C   5,C   0)                  1.3412         0.747417   
      7. B(C   6,N   3)                  1.4313         0.480879   
      8. B(C   7,C   6)                  1.5203         0.387145   
      9. B(O   8,C   7)                  1.2066         1.097764   
     10. B(O   9,C   7)                  1.3234         0.714603   
     11. B(C  10,O   9)                  1.4290         0.484910   
     12. B(H  11,C   0)                  1.0850         0.366710   
     13. B(H  12,C   2)                  1.0840         0.368089   
     14. B(H  13,C   4)                  1.0966         0.351462   
     15. B(H  14,C   5)                  1.0827         0.369886   
     16. B(H  15,C   6)                  1.0933         0.355788   
     17. B(H  16,C  10)                  1.0902         0.359869   
     18. B(H  17,C  10)                  1.0868         0.364336   
     19. B(H  18,C   1)                  1.0799         0.373676   
     20. B(C  20,C  19)                  1.3927         0.618660   
     21. B(C  21,C  20)                  1.3819         0.643611   
     22. B(C  22,C  21)                  1.3908         0.622996   
     23. B(C  23,C  22)                  1.3901         0.624517   
     24. B(C  24,C  23)                  1.3844         0.637748   
     25. B(C  24,C  19)                  1.3933         0.617323   
     26. B(C  25,C  22)                  1.5009         0.415751   
     27. B(C  25,C   4)                  1.5763         0.315121   
     28. B(C  26,C  25)                  1.5614         0.332864   
     29. B(C  26,C   6)                  1.5714         0.320902   
     30. B(C  27,C  26)                  1.5025         0.413320   
     31. B(C  28,C  27)                  1.3867         0.632402   
     32. B(C  29,C  28)                  1.3887         0.627866   
     33. B(C  30,C  29)                  1.3841         0.638576   
     34. B(C  31,C  30)                  1.3892         0.626661   
     35. B(C  32,C  31)                  1.3886         0.628129   
     36. B(C  32,C  27)                  1.4008         0.600501   
     37. B(O  33,C  19)                  1.3490         0.650613   
     38. B(C  34,O  33)                  1.4160         0.508693   
     39. B(O  35,C  32)                  1.3481         0.652786   
     40. B(C  36,O  35)                  1.4137         0.512972   
     41. B(N  37,C  25)                  1.5224         0.344067   
     42. B(O  38,N  37)                  1.2114         0.966021   
     43. B(H  39,C  20)                  1.0837         0.368572   
     44. B(H  40,C  21)                  1.0822         0.370635   
     45. B(H  41,C  23)                  1.0844         0.367579   
     46. B(H  42,C  24)                  1.0814         0.371638   
     47. B(H  43,C  26)                  1.0869         0.364271   
     48. B(H  44,C  28)                  1.0851         0.366584   
     49. B(H  45,C  29)                  1.0833         0.369075   
     50. B(H  46,C  30)                  1.0841         0.367939   
     51. B(H  47,C  31)                  1.0816         0.371335   
     52. B(H  48,C  34)                  1.0880         0.362759   
     53. B(H  49,C  34)                  1.0937         0.355214   
     54. B(H  50,C  34)                  1.0938         0.355081   
     55. B(H  51,O  33)                  4.8328         0.000000   
     56. B(H  51,C  36)                  1.0934         0.355619   
     57. B(H  52,C  36)                  1.0933         0.355762   
     58. B(H  53,C  36)                  1.0882         0.362489   
     59. B(O  54,N  37)                  1.2137         0.957676   
     60. B(H  55,C  10)                  1.0903         0.359742   
     61. A(C   1,C   0,H  11)          118.9531         0.343508   
     62. A(C   5,C   0,H  11)          119.0432         0.365448   
     63. A(C   1,C   0,C   5)          122.0037         0.434727   
     64. A(C   2,C   1,H  18)          120.5207         0.364780   
     65. A(C   0,C   1,H  18)          121.7248         0.344594   
     66. A(C   0,C   1,C   2)          117.7251         0.432425   
     67. A(C   1,C   2,N   3)          122.1980         0.445809   
     68. A(N   3,C   2,H  12)          114.9008         0.353652   
     69. A(C   1,C   2,H  12)          122.9012         0.363841   
     70. A(C   4,N   3,C   6)          110.6520         0.388175   
     71. A(C   2,N   3,C   4)          124.2541         0.407827   
     72. A(C   2,N   3,C   6)          123.8135         0.411403   
     73. A(C   5,C   4,H  13)          111.1089         0.330759   
     74. A(N   3,C   4,C   5)          112.0774         0.383311   
     75. A(H  13,C   4,C  25)          102.2525         0.314187   
     76. A(C   5,C   4,C  25)          118.5352         0.361705   
     77. A(N   3,C   4,H  13)          109.4836         0.332028   
     78. A(N   3,C   4,C  25)          102.5644         0.363137   
     79. A(C   4,C   5,H  14)          117.1404         0.333571   
     80. A(C   0,C   5,C   4)          121.6527         0.420580   
     81. A(C   0,C   5,H  14)          121.2000         0.365989   
     82. A(H  15,C   6,C  26)          108.1320         0.315742   
     83. A(N   3,C   6,H  15)          109.4855         0.335436   
     84. A(C   7,C   6,C  26)          115.4108         0.356224   
     85. A(N   3,C   6,C   7)          114.7400         0.379433   
     86. A(N   3,C   6,C  26)          105.0133         0.367355   
     87. A(C   7,C   6,H  15)          103.8875         0.325581   
     88. A(C   6,C   7,O   9)          113.2081         0.406675   
     89. A(C   6,C   7,O   8)          122.3667         0.439092   
     90. A(O   8,C   7,O   9)          124.2749         0.487880   
     91. A(C   7,O   9,C  10)          115.7429         0.420533   
     92. A(H  16,C  10,H  17)          110.4854         0.291345   
     93. A(H  16,C  10,H  55)          109.5587         0.290765   
     94. A(H  17,C  10,H  55)          110.4661         0.291329   
     95. A(O   9,C  10,H  55)          110.1624         0.336520   
     96. A(O   9,C  10,H  16)          110.3819         0.336540   
     97. A(O   9,C  10,H  17)          105.7347         0.337232   
     98. A(C  24,C  19,O  33)          124.2650         0.434641   
     99. A(C  20,C  19,O  33)          116.3909         0.434811   
    100. A(C  20,C  19,C  24)          119.3440         0.433559   
    101. A(C  19,C  20,C  21)          120.3540         0.436827   
    102. A(C  21,C  20,H  39)          120.6110         0.356555   
    103. A(C  19,C  20,H  39)          119.0349         0.354172   
    104. A(C  20,C  21,C  22)          121.0383         0.437377   
    105. A(C  22,C  21,H  40)          121.0059         0.354927   
    106. A(C  20,C  21,H  40)          117.9510         0.356894   
    107. A(C  21,C  22,C  23)          117.9730         0.435011   
    108. A(C  21,C  22,C  25)          122.9010         0.404568   
    109. A(C  23,C  22,C  25)          119.1020         0.404742   
    110. A(C  24,C  23,H  41)          118.3983         0.355839   
    111. A(C  22,C  23,H  41)          119.7340         0.354576   
    112. A(C  22,C  23,C  24)          121.8676         0.436848   
    113. A(C  23,C  24,H  42)          119.3942         0.356503   
    114. A(C  19,C  24,H  42)          121.1891         0.354539   
    115. A(C  19,C  24,C  23)          119.4156         0.435937   
    116. A(C   4,C  25,N  37)          103.7105         0.345983   
    117. A(C  22,C  25,C  26)          116.0504         0.362829   
    118. A(C   4,C  25,C  26)          103.1781         0.346181   
    119. A(C   4,C  25,C  22)          116.1020         0.359455   
    120. A(C  26,C  25,N  37)          108.5019         0.349189   
    121. A(C  22,C  25,N  37)          108.4120         0.362618   
    122. A(C  25,C  26,C  27)          115.2033         0.362466   
    123. A(C   6,C  26,C  27)          118.3797         0.360210   
    124. A(C   6,C  26,C  25)          105.1271         0.347241   
    125. A(C  27,C  26,H  43)          105.6094         0.330394   
    126. A(C  25,C  26,H  43)          106.1667         0.318851   
    127. A(C   6,C  26,H  43)          105.3451         0.316955   
    128. A(C  28,C  27,C  32)          118.1034         0.433118   
    129. A(C  26,C  27,C  32)          122.9917         0.401537   
    130. A(C  26,C  27,C  28)          118.8701         0.405220   
    131. A(C  27,C  28,C  29)          121.8114         0.436607   
    132. A(C  29,C  28,H  44)          119.7172         0.354734   
    133. A(C  27,C  28,H  44)          118.4639         0.355168   
    134. A(C  28,C  29,C  30)          119.1550         0.437372   
    135. A(C  30,C  29,H  45)          120.6494         0.356163   
    136. A(C  28,C  29,H  45)          120.1937         0.355142   
    137. A(C  29,C  30,C  31)          120.4170         0.437221   
    138. A(C  31,C  30,H  46)          119.2084         0.354841   
    139. A(C  29,C  30,H  46)          120.3742         0.355976   
    140. A(C  30,C  31,C  32)          119.7610         0.435923   
    141. A(C  32,C  31,H  47)          120.4510         0.355535   
    142. A(C  30,C  31,H  47)          119.7874         0.355394   
    143. A(C  31,C  32,O  35)          123.6640         0.436264   
    144. A(C  27,C  32,O  35)          115.6020         0.432746   
    145. A(C  27,C  32,C  31)          120.7336         0.432591   
    146. A(C  19,O  33,C  34)          117.8312         0.417105   
    147. A(H  49,C  34,H  50)          109.3819         0.289578   
    148. A(H  48,C  34,H  50)          109.5056         0.290535   
    149. A(O  33,C  34,H  50)          111.1317         0.338480   
    150. A(H  48,C  34,H  49)          109.4887         0.290552   
    151. A(O  33,C  34,H  49)          111.1703         0.338501   
    152. A(O  33,C  34,H  48)          106.0988         0.339691   
    153. A(C  32,O  35,C  36)          118.7858         0.417975   
    154. A(H  52,C  36,H  53)          109.5288         0.290588   
    155. A(H  51,C  36,H  53)          109.5783         0.290570   
    156. A(O  35,C  36,H  53)          105.9922         0.340124   
    157. A(H  51,C  36,H  52)          109.6967         0.289717   
    158. A(O  35,C  36,H  52)          111.1495         0.339062   
    159. A(O  35,C  36,H  51)          110.8212         0.339039   
    160. A(O  38,N  37,O  54)          123.8698         0.496131   
    161. A(C  25,N  37,O  54)          118.3584         0.414026   
    162. A(C  25,N  37,O  38)          117.4195         0.414665   
    163. D(H  18,C   1,C   0,C   5)   -179.8105         0.018345   
    164. D(H  18,C   1,C   0,H  11)      0.2017         0.018345   
    165. D(C   2,C   1,C   0,H  11)    178.2397         0.018345   
    166. D(C   2,C   1,C   0,C   5)     -1.7725         0.018345   
    167. D(H  12,C   2,C   1,H  18)      1.3532         0.037324   
    168. D(N   3,C   2,C   1,H  18)   -178.7237         0.037324   
    169. D(N   3,C   2,C   1,C   0)      3.2136         0.037324   
    170. D(H  12,C   2,C   1,C   0)   -176.7096         0.037324   
    171. D(C   4,N   3,C   2,C   1)     -1.9169         0.032996   
    172. D(C   6,N   3,C   2,C   1)   -167.7721         0.032996   
    173. D(C   6,N   3,C   2,H  12)     12.1567         0.032996   
    174. D(C   4,N   3,C   2,H  12)    178.0119         0.032996   
    175. D(C   5,C   4,N   3,C   2)     -0.8231         0.017884   
    176. D(C  25,C   4,N   3,C   2)   -129.0329         0.017884   
    177. D(H  13,C   4,N   3,C   2)    122.9389         0.017884   
    178. D(C   5,C   4,N   3,C   6)    166.6451         0.017884   
    179. D(C  25,C   4,N   3,C   6)     38.4353         0.017884   
    180. D(H  13,C   4,N   3,C   6)    -69.5929         0.017884   
    181. D(H  14,C   5,C   4,C  25)    -59.5506         0.013733   
    182. D(H  14,C   5,C   4,H  13)     58.4092         0.013733   
    183. D(C   0,C   5,C   4,C  25)    121.3913         0.013733   
    184. D(H  14,C   5,C   4,N   3)   -178.7437         0.013733   
    185. D(H  14,C   5,C   0,H  11)     -0.0306         0.039813   
    186. D(H  14,C   5,C   0,C   1)    179.9816         0.039813   
    187. D(C   4,C   5,C   0,H  11)    178.9895         0.039813   
    188. D(C   0,C   5,C   4,H  13)   -120.6489         0.013733   
    189. D(C   4,C   5,C   0,C   1)     -0.9983         0.039813   
    190. D(C   0,C   5,C   4,N   3)      2.1982         0.013733   
    191. D(H  15,C   6,N   3,C   2)     22.9132         0.019781   
    192. D(C   7,C   6,N   3,C   4)     99.0599         0.019781   
    193. D(C   7,C   6,N   3,C   2)    -93.4060         0.019781   
    194. D(H  15,C   6,N   3,C   4)   -144.6209         0.019781   
    195. D(C  26,C   6,N   3,C   4)    -28.7289         0.019781   
    196. D(C  26,C   6,N   3,C   2)    138.8053         0.019781   
    197. D(O   9,C   7,C   6,C  26)    122.9402         0.011160   
    198. D(O   9,C   7,C   6,N   3)      0.6181         0.011160   
    199. D(O   9,C   7,C   6,H  15)   -118.8715         0.011160   
    200. D(O   8,C   7,C   6,C  26)    -61.3395         0.011160   
    201. D(O   8,C   7,C   6,H  15)     56.8487         0.011160   
    202. D(O   8,C   7,C   6,N   3)    176.3383         0.011160   
    203. D(C  10,O   9,C   7,O   8)      3.2512         0.038396   
    204. D(C  10,O   9,C   7,C   6)    178.8765         0.038396   
    205. D(H  55,C  10,O   9,C   7)     59.7086         0.018558   
    206. D(H  17,C  10,O   9,C   7)    179.0776         0.018558   
    207. D(H  16,C  10,O   9,C   7)    -61.4138         0.018558   
    208. D(H  39,C  20,C  19,O  33)      0.2835         0.026478   
    209. D(H  39,C  20,C  19,C  24)   -179.5572         0.026478   
    210. D(C  21,C  20,C  19,O  33)   -179.6273         0.026478   
    211. D(C  21,C  20,C  19,C  24)      0.5320         0.026478   
    212. D(H  40,C  21,C  20,H  39)     -0.4398         0.028803   
    213. D(H  40,C  21,C  20,C  19)    179.4696         0.028803   
    214. D(C  22,C  21,C  20,C  19)      0.2636         0.028803   
    215. D(C  22,C  21,C  20,H  39)   -179.6458         0.028803   
    216. D(C  25,C  22,C  21,H  40)     -1.8026         0.026873   
    217. D(C  25,C  22,C  21,C  20)    177.3791         0.026873   
    218. D(C  23,C  22,C  21,H  40)   -179.9999         0.026873   
    219. D(C  23,C  22,C  21,C  20)     -0.8182         0.026873   
    220. D(H  41,C  23,C  22,C  25)      2.1638         0.027012   
    221. D(H  41,C  23,C  22,C  21)   -179.5684         0.027012   
    222. D(C  24,C  23,C  22,C  25)   -177.6690         0.027012   
    223. D(C  24,C  23,C  22,C  21)      0.5988         0.027012   
    224. D(C  23,C  24,C  19,O  33)    179.4267         0.026356   
    225. D(C  23,C  24,C  19,C  20)     -0.7459         0.026356   
    226. D(H  42,C  24,C  23,H  41)     -0.0400         0.028245   
    227. D(H  42,C  24,C  23,C  22)    179.7950         0.028245   
    228. D(C  19,C  24,C  23,H  41)   -179.6564         0.028245   
    229. D(C  19,C  24,C  23,C  22)      0.1786         0.028245   
    230. D(H  42,C  24,C  19,O  33)     -0.1826         0.026356   
    231. D(H  42,C  24,C  19,C  20)    179.6448         0.026356   
    232. D(N  37,C  25,C  22,C  23)    -62.0041         0.012789   
    233. D(N  37,C  25,C  22,C  21)    119.8180         0.012789   
    234. D(C  26,C  25,C  22,C  23)     60.3398         0.012789   
    235. D(C  26,C  25,C  22,C  21)   -117.8380         0.012789   
    236. D(C   4,C  25,C  22,C  23)   -178.1890         0.012789   
    237. D(C   4,C  25,C  22,C  21)      3.6332         0.012789   
    238. D(N  37,C  25,C   4,H  13)   -164.7183         0.008169   
    239. D(N  37,C  25,C   4,C   5)    -42.1993         0.008169   
    240. D(N  37,C  25,C   4,N   3)     81.8230         0.008169   
    241. D(C  26,C  25,C   4,H  13)     82.1651         0.008169   
    242. D(C  26,C  25,C   4,C   5)   -155.3159         0.008169   
    243. D(C  26,C  25,C   4,N   3)    -31.2935         0.008169   
    244. D(C  22,C  25,C   4,H  13)    -45.9308         0.008169   
    245. D(C  22,C  25,C   4,C   5)     76.5882         0.008169   
    246. D(C  22,C  25,C   4,N   3)   -159.3895         0.008169   
    247. D(H  43,C  26,C  25,N  37)     16.8692         0.009007   
    248. D(H  43,C  26,C  25,C  22)   -105.4273         0.009007   
    249. D(H  43,C  26,C  25,C   4)    126.4446         0.009007   
    250. D(C  27,C  26,C  25,N  37)    133.3609         0.009007   
    251. D(C  27,C  26,C  25,C  22)     11.0644         0.009007   
    252. D(C  27,C  26,C  25,C   4)   -117.0637         0.009007   
    253. D(C   6,C  26,C  25,N  37)    -94.4636         0.009007   
    254. D(C   6,C  26,C  25,C  22)    143.2399         0.009007   
    255. D(C   6,C  26,C  25,C   4)     15.1118         0.009007   
    256. D(H  43,C  26,C   6,H  15)     11.3670         0.008436   
    257. D(H  43,C  26,C   6,C   7)    127.1636         0.008436   
    258. D(H  43,C  26,C   6,N   3)   -105.4555         0.008436   
    259. D(C  27,C  26,C   6,H  15)   -106.3685         0.008436   
    260. D(C  27,C  26,C   6,C   7)      9.4281         0.008436   
    261. D(C  27,C  26,C   6,N   3)    136.8090         0.008436   
    262. D(C  25,C  26,C   6,H  15)    123.2845         0.008436   
    263. D(C  25,C  26,C   6,C   7)   -120.9190         0.008436   
    264. D(C  25,C  26,C   6,N   3)      6.4620         0.008436   
    265. D(C  32,C  27,C  26,H  43)    178.4184         0.012645   
    266. D(C  32,C  27,C  26,C  25)     61.6106         0.012645   
    267. D(C  32,C  27,C  26,C   6)    -63.9857         0.012645   
    268. D(C  28,C  27,C  26,H  43)      0.6046         0.012645   
    269. D(C  28,C  27,C  26,C  25)   -116.2031         0.012645   
    270. D(C  28,C  27,C  26,C   6)    118.2005         0.012645   
    271. D(H  44,C  28,C  27,C  32)    179.9966         0.027743   
    272. D(H  44,C  28,C  27,C  26)     -2.0821         0.027743   
    273. D(C  29,C  28,C  27,C  32)     -0.9995         0.027743   
    274. D(C  29,C  28,C  27,C  26)    176.9217         0.027743   
    275. D(H  45,C  29,C  28,H  44)     -0.6719         0.027321   
    276. D(H  45,C  29,C  28,C  27)   -179.6636         0.027321   
    277. D(C  30,C  29,C  28,H  44)    178.8280         0.027321   
    278. D(C  30,C  29,C  28,C  27)     -0.1637         0.027321   
    279. D(H  46,C  30,C  29,H  45)      0.0668         0.028324   
    280. D(H  46,C  30,C  29,C  28)   -179.4308         0.028324   
    281. D(C  31,C  30,C  29,H  45)   -179.7334         0.028324   
    282. D(C  31,C  30,C  29,C  28)      0.7691         0.028324   
    283. D(H  47,C  31,C  30,H  46)     -0.2359         0.027210   
    284. D(H  47,C  31,C  30,C  29)    179.5666         0.027210   
    285. D(C  32,C  31,C  30,H  46)   -179.9863         0.027210   
    286. D(C  32,C  31,C  30,C  29)     -0.1838         0.027210   
    287. D(O  35,C  32,C  27,C  26)      3.9669         0.024861   
    288. D(C  31,C  32,C  27,C  28)      1.5880         0.024861   
    289. D(C  31,C  32,C  27,C  26)   -176.2415         0.024861   
    290. D(O  35,C  32,C  31,H  47)     -0.9934         0.027346   
    291. D(O  35,C  32,C  31,C  30)    178.7554         0.027346   
    292. D(C  27,C  32,C  31,H  47)    179.2325         0.027346   
    293. D(C  27,C  32,C  31,C  30)     -1.0187         0.027346   
    294. D(O  35,C  32,C  27,C  28)   -178.2035         0.024861   
    295. D(C  34,O  33,C  19,C  24)     -0.6236         0.034551   
    296. D(C  34,O  33,C  19,C  20)    179.5444         0.034551   
    297. D(H  50,C  34,O  33,C  19)    -60.8110         0.022225   
    298. D(H  49,C  34,O  33,C  19)     61.2771         0.022225   
    299. D(H  48,C  34,O  33,C  19)   -179.7666         0.022225   
    300. D(C  36,O  35,C  32,C  31)      4.4284         0.031515   
    301. D(C  36,O  35,C  32,C  27)   -175.7868         0.031515   
    302. D(H  53,C  36,O  35,C  32)    178.3409         0.020840   
    303. D(H  52,C  36,O  35,C  32)    -62.7300         0.020840   
    304. D(H  51,C  36,O  35,C  32)     59.5293         0.020840   
    305. D(O  54,N  37,C  25,C  26)     25.7430         0.010242   
    306. D(O  54,N  37,C  25,C  22)    152.5755         0.010242   
    307. D(O  54,N  37,C  25,C   4)    -83.4709         0.010242   
    308. D(O  38,N  37,C  25,C  26)   -160.8053         0.010242   
    309. D(O  38,N  37,C  25,C  22)    -33.9728         0.010242   
    310. D(O  38,N  37,C  25,C   4)     89.9808         0.010242   
    -----------------------------------------------------------------

Number of atoms                         .... 56
Number of degrees of freedom            .... 310

         *************************************************************
         *                GEOMETRY OPTIMIZATION CYCLE   1            *
         *************************************************************
---------------------------------
CARTESIAN COORDINATES (ANGSTROEM)
---------------------------------
  C      2.985869    3.105758   -1.025346
  C      4.084340    2.396275   -0.420752
  C      3.833660    1.176847    0.099486
  N      2.615602    0.590530    0.010453
  C      1.460176    1.204935   -0.601598
  C      1.757251    2.574565   -1.110227
  C      2.234941   -0.571898    0.753679
  C      2.452930   -1.890250    0.028626
  O      2.240548   -2.957221    0.550454
  O      2.976347   -1.741627   -1.177792
  C      3.227537   -2.949726   -1.898505
  H      3.158601    4.099981   -1.424113
  H      4.584494    0.592712    0.619244
  H      1.084137    0.558686   -1.403788
  H      0.940903    3.119590   -1.567135
  H      2.861837   -0.656066    1.645406
  H      3.945203   -3.570090   -1.361304
  H      3.634474   -2.641372   -2.857927
  H      5.071162    2.829531   -0.352103
  C     -3.759061    1.185903   -0.744174
  C     -2.742405    1.299872   -1.689160
  C     -1.417737    1.273782   -1.296366
  C     -1.069427    1.128610    0.042249
  C     -2.094715    1.027910    0.975567
  C     -3.427730    1.056468    0.602928
  C      0.354126    1.037585    0.509002
  C      0.759659   -0.293388    1.217558
  C     -0.244328   -1.406163    1.111809
  C     -0.846148   -1.877158    2.268931
  C     -1.827481   -2.859145    2.236068
  C     -2.218949   -3.380604    1.015224
  C     -1.626247   -2.938749   -0.160920
  C     -0.637577   -1.965037   -0.110993
  O     -5.022409    1.213366   -1.216340
  C     -6.079868    1.089883   -0.282810
  O      0.006089   -1.497166   -1.199150
  C     -0.399311   -1.948104   -2.476178
  N      0.622380    2.193683    1.462508
  O      0.055164    3.241235    1.242630
  H     -3.005898    1.407582   -2.734775
  H     -0.659376    1.356625   -2.063878
  H     -1.855540    0.920940    2.027843
  H     -4.193050    0.971615    1.362233
  H      0.830075   -0.062762    2.277336
  H     -0.545862   -1.448351    3.219450
  H     -2.284106   -3.204054    3.155887
  H     -2.989796   -4.141335    0.965851
  H     -1.935060   -3.358308   -1.108835
  H     -6.999977    1.131533   -0.861950
  H     -6.066325    1.910446    0.440179
  H     -6.026374    0.135951    0.249727
  H     -1.448646   -1.701994   -2.660211
  H     -0.250085   -3.026229   -2.579525
  H      0.229396   -1.423495   -3.192901
  O      1.473937    2.051629    2.315646
  H      2.299023   -3.503745   -2.038556

----------------------------
CARTESIAN COORDINATES (A.U.)
----------------------------
  NO LB      ZA    FRAG     MASS         X           Y           Z
   0 C     6.0000    0    12.011    5.642475    5.869032   -1.937623
   1 C     6.0000    0    12.011    7.718284    4.528303   -0.795106
   2 C     6.0000    0    12.011    7.244567    2.223919    0.188001
   3 N     7.0000    0    14.007    4.942771    1.115940    0.019753
   4 C     6.0000    0    12.011    2.759333    2.276997   -1.136855
   5 C     6.0000    0    12.011    3.320723    4.865223   -2.098025
   6 C     6.0000    0    12.011    4.223426   -1.080731    1.424247
   7 C     6.0000    0    12.011    4.635366   -3.572055    0.054095
   8 O     8.0000    0    15.999    4.234022   -5.588338    1.040207
   9 O     8.0000    0    15.999    5.624481   -3.291198   -2.225704
  10 C     6.0000    0    12.011    6.099161   -5.574174   -3.587655
  11 H     1.0000    0     1.008    5.968891    7.747841   -2.691184
  12 H     1.0000    0     1.008    8.663438    1.120063    1.170202
  13 H     1.0000    0     1.008    2.048722    1.055764   -2.652775
  14 H     1.0000    0     1.008    1.778049    5.895171   -2.961456
  15 H     1.0000    0     1.008    5.408088   -1.239785    3.109367
  16 H     1.0000    0     1.008    7.455353   -6.746492   -2.572492
  17 H     1.0000    0     1.008    6.868161   -4.991470   -5.400699
  18 H     1.0000    0     1.008    9.583107    5.347039   -0.665378
  19 C     6.0000    0    12.011   -7.103596    2.241032   -1.406285
  20 C     6.0000    0    12.011   -5.182394    2.456402   -3.192050
  21 C     6.0000    0    12.011   -2.679135    2.407099   -2.449777
  22 C     6.0000    0    12.011   -2.020924    2.132764    0.079839
  23 C     6.0000    0    12.011   -3.958438    1.942468    1.843554
  24 C     6.0000    0    12.011   -6.477471    1.996435    1.139369
  25 C     6.0000    0    12.011    0.669201    1.960751    0.961874
  26 C     6.0000    0    12.011    1.435547   -0.554423    2.300851
  27 C     6.0000    0    12.011   -0.461713   -2.657263    2.101015
  28 C     6.0000    0    12.011   -1.598988   -3.547315    4.287658
  29 C     6.0000    0    12.011   -3.453439   -5.403001    4.225556
  30 C     6.0000    0    12.011   -4.193206   -6.388416    1.918495
  31 C     6.0000    0    12.011   -3.073161   -5.553431   -0.304095
  32 C     6.0000    0    12.011   -1.204846   -3.713382   -0.209746
  33 O     8.0000    0    15.999   -9.490978    2.292929   -2.298549
  34 C     6.0000    0    12.011  -11.489285    2.059580   -0.534433
  35 O     8.0000    0    15.999    0.011507   -2.829234   -2.266065
  36 C     6.0000    0    12.011   -0.754588   -3.681383   -4.679298
  37 N     7.0000    0    14.007    1.176128    4.145460    2.763740
  38 O     8.0000    0    15.999    0.104245    6.125046    2.348230
  39 H     1.0000    0     1.008   -5.680324    2.659944   -5.167976
  40 H     1.0000    0     1.008   -1.246040    2.563650   -3.900164
  41 H     1.0000    0     1.008   -3.506462    1.740324    3.832068
  42 H     1.0000    0     1.008   -7.923716    1.836086    2.574247
  43 H     1.0000    0     1.008    1.568614   -0.118603    4.303541
  44 H     1.0000    0     1.008   -1.031530   -2.736987    6.083879
  45 H     1.0000    0     1.008   -4.316335   -6.054785    5.963762
  46 H     1.0000    0     1.008   -5.649896   -7.825989    1.825194
  47 H     1.0000    0     1.008   -3.656733   -6.346282   -2.095394
  48 H     1.0000    0     1.008  -13.228039    2.138287   -1.628849
  49 H     1.0000    0     1.008  -11.463693    3.610220    0.831818
  50 H     1.0000    0     1.008  -11.388196    0.256910    0.471916
  51 H     1.0000    0     1.008   -2.737544   -3.216303   -5.027070
  52 H     1.0000    0     1.008   -0.472592   -5.718744   -4.874596
  53 H     1.0000    0     1.008    0.433496   -2.690016   -6.033708
  54 O     8.0000    0    15.999    2.785337    3.877017    4.375937
  55 H     1.0000    0     1.008    4.344524   -6.621118   -3.852313

--------------------------------
INTERNAL COORDINATES (ANGSTROEM)
--------------------------------
 C      0   0   0     0.000000000000     0.00000000     0.00000000
 C      1   0   0     1.440672957324     0.00000000     0.00000000
 C      2   1   0     1.349256345632   117.72511330     0.00000000
 N      3   2   1     1.354754513165   122.19797469     3.21355460
 C      4   3   2     1.444683069778   124.25410251   358.08308844
 C      1   2   3     1.341220704185   122.00368452   358.22745539
 C      4   3   2     1.431267458996   123.81353858   192.22788765
 C      7   4   3     1.520287161307   114.73995908   266.59403075
 O      8   7   4     1.206580992039   122.36670402   176.33832119
 O      8   7   4     1.323441930249   113.20814698     0.61809546
 C     10   8   7     1.428995044872   115.74285508   178.87645878
 H      1   2   3     1.085048772103   118.95310624   178.23969058
 H      3   2   1     1.084026647433   122.90122309   183.29043979
 H      5   4   3     1.096609272085   109.48363157   122.93888806
 H      6   1   2     1.082700895074   121.20004635   179.98161622
 H      7   4   3     1.093279419713   109.48548693    22.91321001
 H     11  10   8     1.090174708225   110.38192957   298.58623246
 H     11  10   8     1.086816675143   105.73474970   179.07758414
 H      2   1   3     1.079926435652   121.72478897   181.96202340
 C     14   5   4     4.927987282988    99.44439951   141.59079034
 C     20  14   5     1.392686933770    37.07541268   123.55730198
 C     21  20  14     1.381923704392   120.35401289   345.32327532
 C     22  21  20     1.390785707400   121.03826928     0.26358443
 C     23  22  21     1.390121743614   117.97301817   359.18178742
 C     24  23  22     1.384414812804   121.86758604     0.59878796
 C     23  22  21     1.500882093118   122.90095896   177.37906736
 C     26  23  22     1.561408897744   116.05037482   242.16195906
 C     27  26  23     1.502478268660   115.20333565    11.06441280
 C     28  27  26     1.386706502945   118.87014196   243.79688439
 C     29  28  27     1.388665871197   121.81142319   176.92173820
 C     30  29  28     1.384061687946   119.15497025   359.83631561
 C     31  30  29     1.389189047814   120.41700958     0.76908809
 C     32  31  30     1.388551811483   119.76103720   359.81616717
 O     20  14   5     1.348978545800   151.18131895   152.40719897
 C     34  20  14     1.415961104293   117.83122598   160.59479096
 O     33  32  31     1.348070787773   123.66402401   178.75538701
 C     36  33  32     1.413681276890   118.78578108     4.42843676
 N     26  23  22     1.522398267917   108.41195962   119.81800605
 O     38  26  23     1.211381656723   117.41949046   326.02715497
 H     21  20  14     1.083670029748   119.03492074   165.23407625
 H     22  21  20     1.082150192494   117.95098988   179.46955184
 H     24  23  22     1.084404002990   119.73395243   180.43159900
 H     25  24  23     1.081415191790   119.39419224   179.79500805
 H     27  26  23     1.086865297181   106.16666257   254.57271027
 H     29  28  27     1.085142154008   118.46389049   357.91787907
 H     30  29  28     1.083298482260   120.19367566   180.33642778
 H     31  30  29     1.084137650347   120.37424906   180.56924577
 H     32  31  30     1.081636755420   119.78744082   179.56659367
 H     35  34  20     1.087997442084   106.09881852   180.23337528
 H     35  34  20     1.093718493918   111.17026640    61.27711876
 H     35  34  20     1.093820609163   111.13173313   299.18903229
 H     37  36  33     1.093408532715   110.82123285    59.52928484
 H     37  36  33     1.093298914803   111.14951091   297.27003763
 H     37  36  33     1.088199868342   105.99224181   178.34090395
 O     38  26  23     1.213743428493   118.35836354   152.57548537
 H     11  10   8     1.090270417446   110.16244315    59.70863671

---------------------------
INTERNAL COORDINATES (A.U.)
---------------------------
 C      0   0   0     0.000000000000     0.00000000     0.00000000
 C      1   0   0     2.722477337890     0.00000000     0.00000000
 C      2   1   0     2.549724977700   117.72511330     0.00000000
 N      3   2   1     2.560115008576   122.19797469     3.21355460
 C      4   3   2     2.730055352192   124.25410251   358.08308844
 C      1   2   3     2.534539816054   122.00368452   358.22745539
 C      4   3   2     2.704703521896   123.81353858   192.22788765
 C      7   4   3     2.872926379786   114.73995908   266.59403075
 O      8   7   4     2.280107633348   122.36670402   176.33832119
 O      8   7   4     2.500942802319   113.20814698     0.61809546
 C     10   8   7     2.700409281539   115.74285508   178.87645878
 H      1   2   3     2.050445021222   118.95310624   178.23969058
 H      3   2   1     2.048513485521   122.90122309   183.29043979
 H      5   4   3     2.072291200159   109.48363157   122.93888806
 H      6   1   2     2.046008176640   121.20004635   179.98161622
 H      7   4   3     2.065998691111   109.48548693    22.91321001
 H     11  10   8     2.060131636672   110.38192957   298.58623246
 H     11  10   8     2.053785873799   105.73474970   179.07758414
 H      2   1   3     2.040765208165   121.72478897   181.96202340
 C     14   5   4     9.312546356294    99.44439951   141.59079034
 C     20  14   5     2.631796895115    37.07541268   123.55730198
 C     21  20  14     2.611457339274   120.35401289   345.32327532
 C     22  21  20     2.628204097959   121.03826928     0.26358443
 C     23  22  21     2.626949388239   117.97301817   359.18178742
 C     24  23  22     2.616164851943   121.86758604     0.59878796
 C     23  22  21     2.836256115300   122.90095896   177.37906736
 C     26  23  22     2.950635199804   116.05037482   242.16195906
 C     27  26  23     2.839272449935   115.20333565    11.06441280
 C     28  27  26     2.620495518693   118.87014196   243.79688439
 C     29  28  27     2.624198188085   121.81142319   176.92173820
 C     30  29  28     2.615497542671   119.15497025   359.83631561
 C     31  30  29     2.625186848610   120.41700958     0.76908809
 C     32  31  30     2.623982646463   119.76103720   359.81616717
 O     20  14   5     2.549200012098   151.18131895   152.40719897
 C     34  20  14     2.675778703398   117.83122598   160.59479096
 O     33  32  31     2.547484598030   123.66402401   178.75538701
 C     36  33  32     2.671470453973   118.78578108     4.42843676
 N     26  23  22     2.876915793119   108.41195962   119.81800605
 O     38  26  23     2.289179574862   117.41949046   326.02715497
 H     21  20  14     2.047839575762   119.03492074   165.23407625
 H     22  21  20     2.044967499583   117.95098988   179.46955184
 H     24  23  22     2.049226584179   119.73395243   180.43159900
 H     25  24  23     2.043578549545   119.39419224   179.79500805
 H     27  26  23     2.053877756135   106.16666257   254.57271027
 H     29  28  27     2.050621487449   118.46389049   357.91787907
 H     30  29  28     2.047137452764   120.19367566   180.33642778
 H     31  30  29     2.048723250628   120.37424906   180.56924577
 H     32  31  30     2.043997244127   119.78744082   179.56659367
 H     35  34  20     2.056017199945   106.09881852   180.23337528
 H     35  34  20     2.066828421110   111.17026640    61.27711876
 H     35  34  20     2.067021390956   111.13173313   299.18903229
 H     37  36  33     2.066242679324   110.82123285    59.52928484
 H     37  36  33     2.066035531491   111.14951091   297.27003763
 H     37  36  33     2.056399730135   105.99224181   178.34090395
 O     38  26  23     2.293642676698   118.35836354   152.57548537
 H     11  10   8     2.060312500889   110.16244315    59.70863671

---------------------
BASIS SET INFORMATION
---------------------
There are 4 groups of distinct atoms

 Group   1 Type C   : 11s6p2d1f contracted to 5s3p2d1f pattern {62111/411/11/1}
 Group   2 Type N   : 11s6p2d1f contracted to 5s3p2d1f pattern {62111/411/11/1}
 Group   3 Type O   : 11s6p2d1f contracted to 5s3p2d1f pattern {62111/411/11/1}
 Group   4 Type H   : 5s1p contracted to 3s1p pattern {311/1}

Atom   0C    basis set group =>   1
Atom   1C    basis set group =>   1
Atom   2C    basis set group =>   1
Atom   3N    basis set group =>   2
Atom   4C    basis set group =>   1
Atom   5C    basis set group =>   1
Atom   6C    basis set group =>   1
Atom   7C    basis set group =>   1
Atom   8O    basis set group =>   3
Atom   9O    basis set group =>   3
Atom  10C    basis set group =>   1
Atom  11H    basis set group =>   4
Atom  12H    basis set group =>   4
Atom  13H    basis set group =>   4
Atom  14H    basis set group =>   4
Atom  15H    basis set group =>   4
Atom  16H    basis set group =>   4
Atom  17H    basis set group =>   4
Atom  18H    basis set group =>   4
Atom  19C    basis set group =>   1
Atom  20C    basis set group =>   1
Atom  21C    basis set group =>   1
Atom  22C    basis set group =>   1
Atom  23C    basis set group =>   1
Atom  24C    basis set group =>   1
Atom  25C    basis set group =>   1
Atom  26C    basis set group =>   1
Atom  27C    basis set group =>   1
Atom  28C    basis set group =>   1
Atom  29C    basis set group =>   1
Atom  30C    basis set group =>   1
Atom  31C    basis set group =>   1
Atom  32C    basis set group =>   1
Atom  33O    basis set group =>   3
Atom  34C    basis set group =>   1
Atom  35O    basis set group =>   3
Atom  36C    basis set group =>   1
Atom  37N    basis set group =>   2
Atom  38O    basis set group =>   3
Atom  39H    basis set group =>   4
Atom  40H    basis set group =>   4
Atom  41H    basis set group =>   4
Atom  42H    basis set group =>   4
Atom  43H    basis set group =>   4
Atom  44H    basis set group =>   4
Atom  45H    basis set group =>   4
Atom  46H    basis set group =>   4
Atom  47H    basis set group =>   4
Atom  48H    basis set group =>   4
Atom  49H    basis set group =>   4
Atom  50H    basis set group =>   4
Atom  51H    basis set group =>   4
Atom  52H    basis set group =>   4
Atom  53H    basis set group =>   4
Atom  54O    basis set group =>   3
Atom  55H    basis set group =>   4
---------------------------------
AUXILIARY/J BASIS SET INFORMATION
---------------------------------
There are 4 groups of distinct atoms

 Group   1 Type C   : 12s5p4d2f1g contracted to 6s4p3d1f1g pattern {711111/2111/211/2/1}
 Group   2 Type N   : 12s5p4d2f1g contracted to 6s4p3d1f1g pattern {711111/2111/211/2/1}
 Group   3 Type O   : 12s5p4d2f1g contracted to 6s4p3d1f1g pattern {711111/2111/211/2/1}
 Group   4 Type H   : 5s2p1d contracted to 3s1p1d pattern {311/2/1}

Atom   0C    basis set group =>   1
Atom   1C    basis set group =>   1
Atom   2C    basis set group =>   1
Atom   3N    basis set group =>   2
Atom   4C    basis set group =>   1
Atom   5C    basis set group =>   1
Atom   6C    basis set group =>   1
Atom   7C    basis set group =>   1
Atom   8O    basis set group =>   3
Atom   9O    basis set group =>   3
Atom  10C    basis set group =>   1
Atom  11H    basis set group =>   4
Atom  12H    basis set group =>   4
Atom  13H    basis set group =>   4
Atom  14H    basis set group =>   4
Atom  15H    basis set group =>   4
Atom  16H    basis set group =>   4
Atom  17H    basis set group =>   4
Atom  18H    basis set group =>   4
Atom  19C    basis set group =>   1
Atom  20C    basis set group =>   1
Atom  21C    basis set group =>   1
Atom  22C    basis set group =>   1
Atom  23C    basis set group =>   1
Atom  24C    basis set group =>   1
Atom  25C    basis set group =>   1
Atom  26C    basis set group =>   1
Atom  27C    basis set group =>   1
Atom  28C    basis set group =>   1
Atom  29C    basis set group =>   1
Atom  30C    basis set group =>   1
Atom  31C    basis set group =>   1
Atom  32C    basis set group =>   1
Atom  33O    basis set group =>   3
Atom  34C    basis set group =>   1
Atom  35O    basis set group =>   3
Atom  36C    basis set group =>   1
Atom  37N    basis set group =>   2
Atom  38O    basis set group =>   3
Atom  39H    basis set group =>   4
Atom  40H    basis set group =>   4
Atom  41H    basis set group =>   4
Atom  42H    basis set group =>   4
Atom  43H    basis set group =>   4
Atom  44H    basis set group =>   4
Atom  45H    basis set group =>   4
Atom  46H    basis set group =>   4
Atom  47H    basis set group =>   4
Atom  48H    basis set group =>   4
Atom  49H    basis set group =>   4
Atom  50H    basis set group =>   4
Atom  51H    basis set group =>   4
Atom  52H    basis set group =>   4
Atom  53H    basis set group =>   4
Atom  54O    basis set group =>   3
Atom  55H    basis set group =>   4


           ************************************************************
           *        Program running with 24 parallel MPI-processes    *
           *              working on a common directory               *
           ************************************************************
------------------------------------------------------------------------------
                           ORCA GTO INTEGRAL CALCULATION
                           -- RI-GTO INTEGRALS CHOSEN --
------------------------------------------------------------------------------
------------------------------------------------------------------------------
                   ___                                                        
                  /   \      - P O W E R E D   B Y -                         
                 /     \                                                     
                 |  |  |   _    _      __       _____    __    __             
                 |  |  |  | |  | |    /  \     |  _  \  |  |  /  |          
                  \  \/   | |  | |   /    \    | | | |  |  | /  /          
                 / \  \   | |__| |  /  /\  \   | |_| |  |  |/  /          
                |  |  |   |  __  | /  /__\  \  |    /   |      \           
                |  |  |   | |  | | |   __   |  |    \   |  |\   \          
                \     /   | |  | | |  |  |  |  | |\  \  |  | \   \       
                 \___/    |_|  |_| |__|  |__|  |_| \__\ |__|  \__/        
                                                                              
                      - O R C A' S   B I G   F R I E N D -                    
                                      &                                       
                       - I N T E G R A L  F E E D E R -                       
                                                                              
 v1 FN, 2020, v2 2021                                                         
------------------------------------------------------------------------------


Reading SHARK input file 3_4-OMePh/3_4-OMePh.SHARKINP.tmp ... ok
----------------------
SHARK INTEGRAL PACKAGE
----------------------

Number of atoms                             ...     56
Number of basis functions                   ...   1136
Number of shells                            ...    448
Maximum angular momentum                    ...      3
Integral batch strategy                     ... SHARK/LIBINT Hybrid
RI-J (if used) integral strategy            ... SPLIT-RIJ (Revised 2003 algorithm where possible)
Printlevel                                  ...      1
Contraction scheme used                     ... SEGMENTED contraction
Coulomb Range Separation                    ... NOT USED
Exchange Range Separation                   ... NOT USED
Finite Nucleus Model                        ... NOT USED
Auxiliary Coulomb fitting basis             ... AVAILABLE
   # of basis functions in Aux-J            ...   1832
   # of shells in Aux-J                     ...    600
   Maximum angular momentum in Aux-J        ...      4
Auxiliary J/K fitting basis                 ... NOT available
Auxiliary Correlation fitting basis         ... NOT available
Auxiliary 'external' fitting basis          ... NOT available
Integral threshold                          ...     2.500000e-11
Primitive cut-off                           ...     2.500000e-12
Primitive pair pre-selection threshold      ...     2.500000e-12

Calculating pre-screening integrals         ... done (  0.1 sec) Dimension = 448
Organizing shell pair data                  ... done (  2.2 sec)
Shell pair information
Total number of shell pairs                 ...    100576
Shell pairs after pre-screening             ...     69344
Total number of primitive shell pairs       ...    308496
Primitive shell pairs kept                  ...    136764
          la=0 lb=0:  17831 shell pairs
          la=1 lb=0:  20049 shell pairs
          la=1 lb=1:   5623 shell pairs
          la=2 lb=0:   9869 shell pairs
          la=2 lb=1:   5645 shell pairs
          la=2 lb=2:   1442 shell pairs
          la=3 lb=0:   4545 shell pairs
          la=3 lb=1:   2693 shell pairs
          la=3 lb=2:   1318 shell pairs
          la=3 lb=3:    329 shell pairs

Calculating one electron integrals          ... done (  0.1 sec)
Calculating RI/J V-Matrix + Cholesky decomp.... done (  0.3 sec)
Calculating Nuclear repulsion               ... done (  0.0 sec) ENN=   3566.308837567884 Eh

SHARK setup successfully completed in   4.9 seconds

Maximum memory used throughout the entire GTOINT-calculation: 102.5 MB


           ************************************************************
           *        Program running with 24 parallel MPI-processes    *
           *              working on a common directory               *
           ************************************************************
-------------------------------------------------------------------------------
                                 ORCA SCF
-------------------------------------------------------------------------------

------------
SCF SETTINGS
------------
Hamiltonian:
 Density Functional     Method          .... DFT(GTOs)
 Exchange Functional    Exchange        .... PBE
   PBE kappa parameter   XKappa         ....  0.804000
   PBE mue parameter    XMuePBE         ....  0.219520
 Correlation Functional Correlation     .... PBE
   PBE beta parameter  CBetaPBE         ....  0.066725
 LDA part of GGA corr.  LDAOpt          .... PW91-LDA
 Gradients option       PostSCFGGA      .... off
 Hybrid DFT is turned on
   Fraction HF Exchange ScalHFX         ....  0.250000
   Scaling of DF-GGA-X  ScalDFX         ....  0.750000
   Scaling of DF-GGA-C  ScalDFC         ....  1.000000
   Scaling of DF-LDA-C  ScalLDAC        ....  1.000000
   Perturbative correction              ....  0.000000
   Density functional embedding theory  .... OFF
   NL short-range parameter             ....  6.900000
 RI-approximation to the Coulomb term is turned on
   Number of AuxJ basis functions       .... 1832
   RIJ-COSX (HFX calculated with COS-X)).... on


General Settings:
 Integral files         IntName         .... 3_4-OMePh/3_4-OMePh
 Hartree-Fock type      HFTyp           .... RHF
 Total Charge           Charge          ....    0
 Multiplicity           Mult            ....    1
 Number of Electrons    NEL             ....  230
 Basis Dimension        Dim             .... 1136
 Nuclear Repulsion      ENuc            ....   3566.3088375679 Eh

Convergence Acceleration:
 DIIS                   CNVDIIS         .... on
   Start iteration      DIISMaxIt       ....    12
   Startup error        DIISStart       ....  0.200000
   # of expansion vecs  DIISMaxEq       ....     5
   Bias factor          DIISBfac        ....   1.050
   Max. coefficient     DIISMaxC        ....  10.000
 Trust-Rad. Augm. Hess. CNVTRAH         .... auto
   Auto Start mean grad. ratio tolernc. ....  1.125000
   Auto Start start iteration           ....    20
   Auto Start num. interpolation iter.  ....    10
   Max. Number of Micro iterations      ....    16
   Max. Number of Macro iterations      .... Maxiter - #DIIS iter
   Number of Davidson start vectors     ....     2
   Converg. threshold I  (grad. norm)   ....   1.000e-05
   Converg. threshold II (energy diff.) ....   1.000e-08
   Grad. Scal. Fac. for Micro threshold ....   0.100
   Minimum threshold for Micro iter.    ....   0.010
   NR start threshold (gradient norm)   ....   0.001
   Initial trust radius                 ....   0.400
   Minimum AH scaling param. (alpha)    ....   1.000
   Maximum AH scaling param. (alpha)    .... 1000.000
   Orbital update algorithm             .... Taylor
   White noise on init. David. guess    .... on
   Maximum white noise                  ....   0.010
   Quad. conv. algorithm                .... NR
 SOSCF                  CNVSOSCF        .... on
   Start iteration      SOSCFMaxIt      ....   150
   Startup grad/error   SOSCFStart      ....  0.003300
 Level Shifting         CNVShift        .... on
   Level shift para.    LevelShift      ....    0.2500
   Turn off err/grad.   ShiftErr        ....    0.0010
 Zerner damping         CNVZerner       .... off
 Static damping         CNVDamp         .... on
   Fraction old density DampFac         ....    0.7000
   Max. Damping (<1)    DampMax         ....    0.9800
   Min. Damping (>=0)   DampMin         ....    0.0000
   Turn off err/grad.   DampErr         ....    0.1000
 Fernandez-Rico         CNVRico         .... off

SCF Procedure:
 Maximum # iterations   MaxIter         ....   800
 SCF integral mode      SCFMode         .... Direct
   Integral package                     .... SHARK and LIBINT hybrid scheme
 Reset frequency        DirectResetFreq ....    20
 Integral Threshold     Thresh          ....  2.500e-11 Eh
 Primitive CutOff       TCut            ....  2.500e-12 Eh

Convergence Tolerance:
 Convergence Check Mode ConvCheckMode   .... Total+1el-Energy
 Convergence forced     ConvForced      .... 0
 Energy Change          TolE            ....  1.000e-08 Eh
 1-El. energy change                    ....  1.000e-05 Eh
 Orbital Gradient       TolG            ....  1.000e-05
 Orbital Rotation angle TolX            ....  1.000e-05
 DIIS Error             TolErr          ....  5.000e-07


Diagonalization of the overlap matrix:
Smallest eigenvalue                        ... 4.585e-06
Time for diagonalization                   ...    0.419 sec
Threshold for overlap eigenvalues          ... 1.000e-08
Number of eigenvalues below threshold      ... 0
Time for construction of square roots      ...    0.212 sec
Total time needed                          ...    0.639 sec

Time for model grid setup =    0.556 sec

------------------------------
INITIAL GUESS: MODEL POTENTIAL
------------------------------
Loading Hartree-Fock densities                     ... done
Calculating cut-offs                               ... done
Initializing the effective Hamiltonian             ... done
Setting up the integral package (SHARK)            ... done
Starting the Coulomb interaction                   ... done (   0.8 sec)
Reading the grid                                   ... done
Mapping shells                                     ... done
Starting the XC term evaluation                    ... done (   0.4 sec)
  promolecular density results
     # of electrons  =    229.984769404
     EX              =   -192.018792532
     EC              =     -7.815907312
     EX+EC           =   -199.834699844
Transforming the Hamiltonian                       ... done (   0.1 sec)
Diagonalizing the Hamiltonian                      ... done (   0.2 sec)
Back transforming the eigenvectors                 ... done (   0.1 sec)
Now organizing SCF variables                       ... done
                      ------------------
                      INITIAL GUESS DONE (   2.5 sec)
                      ------------------
-------------------
DFT GRID GENERATION
-------------------

General Integration Accuracy     IntAcc      ... 4.388
Radial Grid Type                 RadialGrid  ... OptM3 with GC (2021)
Angular Grid (max. ang.)         AngularGrid ... 4 (Lebedev-302)
Angular grid pruning method      GridPruning ... 4 (adaptive)
Weight generation scheme         WeightScheme... Becke
Basis function cutoff            BFCut       ... 1.0000e-11
Integration weight cutoff        WCut        ... 1.0000e-14
Angular grids for H and He will be reduced by one unit
Partially contracted basis set               ... off
Rotationally invariant grid construction     ... off

Total number of grid points                  ...   265549
Total number of batches                      ...     4179
Average number of points per batch           ...       63
Average number of grid points per atom       ...     4742
Time for grid setup =    2.522 sec

--------------------
COSX GRID GENERATION
--------------------

GRIDX 1
-------
General Integration Accuracy     IntAcc      ... 3.816
Radial Grid Type                 RadialGrid  ... OptM3 with GC (2021)
Angular Grid (max. ang.)         AngularGrid ... 1 (Lebedev-50)
Angular grid pruning method      GridPruning ... 4 (adaptive)
Weight generation scheme         WeightScheme... Becke
Basis function cutoff            BFCut       ... 1.0000e-11
Integration weight cutoff        WCut        ... 1.0000e-14
Angular grids for H and He will be reduced by one unit
Partially contracted basis set               ... on
Rotationally invariant grid construction     ... off

Total number of grid points                  ...    33619
Total number of batches                      ...      555
Average number of points per batch           ...       60
Average number of grid points per atom       ...      600
UseSFitting                                  ... on

GRIDX 2
-------
General Integration Accuracy     IntAcc      ... 4.020
Radial Grid Type                 RadialGrid  ... OptM3 with GC (2021)
Angular Grid (max. ang.)         AngularGrid ... 2 (Lebedev-110)
Angular grid pruning method      GridPruning ... 4 (adaptive)
Weight generation scheme         WeightScheme... Becke
Basis function cutoff            BFCut       ... 1.0000e-11
Integration weight cutoff        WCut        ... 1.0000e-14
Angular grids for H and He will be reduced by one unit
Partially contracted basis set               ... on
Rotationally invariant grid construction     ... off

Total number of grid points                  ...    72424
Total number of batches                      ...     1160
Average number of points per batch           ...       62
Average number of grid points per atom       ...     1293
UseSFitting                                  ... on

GRIDX 3
-------
General Integration Accuracy     IntAcc      ... 4.338
Radial Grid Type                 RadialGrid  ... OptM3 with GC (2021)
Angular Grid (max. ang.)         AngularGrid ... 3 (Lebedev-194)
Angular grid pruning method      GridPruning ... 4 (adaptive)
Weight generation scheme         WeightScheme... Becke
Basis function cutoff            BFCut       ... 1.0000e-11
Integration weight cutoff        WCut        ... 1.0000e-14
Angular grids for H and He will be reduced by one unit
Partially contracted basis set               ... on
Rotationally invariant grid construction     ... off

Total number of grid points                  ...   157809
Total number of batches                      ...     2494
Average number of points per batch           ...       63
Average number of grid points per atom       ...     2818
UseSFitting                                  ... on

Time for X-Grid setup             =    4.052 sec


--------------------
CPCM SOLVATION MODEL
--------------------
CPCM parameters:
  Epsilon                                         ...      47.2000
  Refrac                                          ...       1.4790
  Rsolv                                           ...       1.3000
  Surface type                                    ... GAUSSIAN VDW
  Epsilon function type                           ...         CPCM
Radii:
 Radius for C  used is    3.8550 Bohr (=   2.0400 Ang.)
 Radius for N  used is    3.5149 Bohr (=   1.8600 Ang.)
 Radius for O  used is    3.4469 Bohr (=   1.8240 Ang.)
 Radius for H  used is    2.4944 Bohr (=   1.3200 Ang.)
Calculating surface                               ...        done! (  0.0s)
GEPOL surface points                              ...         2744
GEPOL Volume                                      ...    3282.4896
GEPOL Surface-area                                ...    1544.0431
Calculating surface distance matrix               ...        done! (  0.1s)
Performing Cholesky decomposition & store         ...        done! (  1.1s)
Overall time for CPCM initialization              ...                 1.2s
--------------
SCF ITERATIONS
--------------
ITER       Energy         Delta-E        Max-DP      RMS-DP      [F,P]     Damp
               ***  Starting incremental Fock matrix formation  ***
  0  -1487.9015349494   0.000000000000 0.11702660  0.00068475  0.2751082 0.7000
  1  -1488.2140314175  -0.312496468061 0.11261534  0.00059722  0.1128223 0.7000
                               ***Turning on DIIS***
  2  -1488.3429271277  -0.128895710176 0.20135703  0.00118735  0.0365710 0.0000
  3  -1488.5526901829  -0.209763055175 0.10840943  0.00045294  0.0527155 0.0000
  4  -1488.5910671106  -0.038376927714 0.02837238  0.00018075  0.0166692 0.0000
  5  -1488.5935073454  -0.002440234793 0.01413359  0.00006173  0.0067131 0.0000
                      *** Initiating the SOSCF procedure ***
                           *** Shutting down DIIS ***
                      *** Re-Reading the Fockian *** 
                      *** Removing any level shift *** 
ITER      Energy       Delta-E        Grad      Rot      Max-DP    RMS-DP
  6  -1488.59374340  -0.0002360500  0.000217  0.000217  0.006186  0.000030
               *** Restarting incremental Fock matrix formation ***
  7  -1488.59378822  -0.0000448200  0.000176  0.000634  0.004730  0.000035
  8  -1488.59378021   0.0000080090  0.000291  0.000413  0.000806  0.000007
  9  -1488.59379442  -0.0000142149  0.000051  0.000176  0.000277  0.000003
 10  -1488.59379408   0.0000003453  0.000117  0.000142  0.000248  0.000002
 11  -1488.59379453  -0.0000004559  0.000017  0.000043  0.000911  0.000004
 12  -1488.59379449   0.0000000439  0.000022  0.000030  0.000366  0.000001
 13  -1488.59379449  -0.0000000009  0.000003  0.000005  0.000496  0.000003
 14  -1488.59379449  -0.0000000000  0.000004  0.000005  0.000274  0.000001
                  ***Gradient check signals convergence***
              ***Rediagonalizing the Fockian in SOSCF/NRSCF***

               *****************************************************
               *                     SUCCESS                       *
               *           SCF CONVERGED AFTER  15 CYCLES          *
               *****************************************************

Old exchange energy                            =    -48.934180802 Eh
New exchange energy                            =    -48.934175943 Eh
Exchange energy change after final integration =      0.000004859 Eh
Total energy after final integration           =  -1488.593789648 Eh
Final COS-X integration done in                =    36.686 sec

----------------
TOTAL SCF ENERGY
----------------

Total Energy       :        -1488.59378965 Eh          -40506.69634 eV

Components:
Nuclear Repulsion  :         3566.30883757 Eh           97044.19710 eV
Electronic Energy  :        -5054.90262722 Eh         -137550.89344 eV
One Electron Energy:        -9126.86748160 Eh         -248354.69028 eV
Two Electron Energy:         4071.96485438 Eh          110803.79684 eV
Max COSX asymmetry :            0.00000203 Eh               0.00006 eV
CPCM Dielectric    :           -0.03755848 Eh              -1.02202 eV

Virial components:
Potential Energy   :        -2970.65522487 Eh          -80835.63827 eV
Kinetic Energy     :         1482.06143522 Eh           40328.94194 eV
Virial Ratio       :            2.00440761


DFT components:
N(Alpha)           :      115.000066824640 electrons
N(Beta)            :      115.000066824640 electrons
N(Total)           :      230.000133649280 electrons
E(X)               :     -146.509612752952 Eh       
E(C)               :       -7.797254145294 Eh       
E(XC)              :     -154.306866898246 Eh       
DFET-embed. en.    :        0.000000000000 Eh       
CPCM Solvation Model Properties:
Surface-charge          :           -0.03431344
Charge-correction       :           -0.00017356 Eh              -0.00472 eV
Free-energy (cav+disp)  :  This term is not implemented in the current solvation scheme

---------------
SCF CONVERGENCE
---------------

  Last Energy change         ...   -1.7726e-08  Tolerance :   1.0000e-08
  Last MAX-Density change    ...    2.4425e-15  Tolerance :   1.0000e-07
  Last RMS-Density change    ...    1.3039e-17  Tolerance :   5.0000e-09
  Last Orbital Gradient      ...    3.6959e-07  Tolerance :   1.0000e-05
  Last Orbital Rotation      ...    1.3598e-06  Tolerance :   1.0000e-05

             **** THE GBW FILE WAS UPDATED (3_4-OMePh/3_4-OMePh.gbw) ****
             **** DENSITY 3_4-OMePh/3_4-OMePh.scfp WAS UPDATED ****
             **** ENERGY FILE WAS UPDATED (3_4-OMePh/3_4-OMePh.en.tmp) ****
             **** THE GBW FILE WAS UPDATED (3_4-OMePh/3_4-OMePh.gbw) ****
             **** DENSITY 3_4-OMePh/3_4-OMePh.scfp WAS UPDATED ****
----------------
ORBITAL ENERGIES
----------------

  NO   OCC          E(Eh)            E(eV) 
   0   2.0000     -19.262217      -524.1516 
   1   2.0000     -19.248199      -523.7701 
   2   2.0000     -19.247523      -523.7517 
   3   2.0000     -19.247216      -523.7434 
   4   2.0000     -19.245029      -523.6839 
   5   2.0000     -19.199795      -522.4530 
   6   2.0000     -14.618784      -397.7973 
   7   2.0000     -14.422486      -392.4558 
   8   2.0000     -10.356726      -281.8208 
   9   2.0000     -10.305542      -280.4281 
  10   2.0000     -10.291049      -280.0337 
  11   2.0000     -10.289310      -279.9864 
  12   2.0000     -10.285952      -279.8950 
  13   2.0000     -10.284725      -279.8616 
  14   2.0000     -10.269570      -279.4492 
  15   2.0000     -10.267406      -279.3903 
  16   2.0000     -10.265928      -279.3501 
  17   2.0000     -10.263836      -279.2932 
  18   2.0000     -10.261498      -279.2296 
  19   2.0000     -10.239982      -278.6441 
  20   2.0000     -10.238682      -278.6087 
  21   2.0000     -10.233905      -278.4787 
  22   2.0000     -10.233817      -278.4763 
  23   2.0000     -10.229051      -278.3466 
  24   2.0000     -10.228865      -278.3416 
  25   2.0000     -10.228198      -278.3234 
  26   2.0000     -10.227018      -278.2913 
  27   2.0000     -10.224916      -278.2341 
  28   2.0000     -10.224869      -278.2328 
  29   2.0000     -10.222206      -278.1604 
  30   2.0000     -10.220282      -278.1080 
  31   2.0000     -10.205121      -277.6954 
  32   2.0000      -1.279336       -34.8125 
  33   2.0000      -1.152526       -31.3618 
  34   2.0000      -1.111782       -30.2531 
  35   2.0000      -1.107120       -30.1263 
  36   2.0000      -1.099980       -29.9320 
  37   2.0000      -1.058287       -28.7975 
  38   2.0000      -1.019979       -27.7550 
  39   2.0000      -0.911351       -24.7991 
  40   2.0000      -0.890582       -24.2340 
  41   2.0000      -0.870030       -23.6747 
  42   2.0000      -0.852598       -23.2004 
  43   2.0000      -0.809013       -22.0144 
  44   2.0000      -0.796117       -21.6634 
  45   2.0000      -0.781374       -21.2623 
  46   2.0000      -0.779621       -21.2146 
  47   2.0000      -0.778114       -21.1735 
  48   2.0000      -0.771704       -20.9991 
  49   2.0000      -0.748511       -20.3680 
  50   2.0000      -0.721160       -19.6238 
  51   2.0000      -0.719408       -19.5761 
  52   2.0000      -0.701461       -19.0877 
  53   2.0000      -0.668143       -18.1811 
  54   2.0000      -0.653446       -17.7812 
  55   2.0000      -0.638684       -17.3795 
  56   2.0000      -0.631758       -17.1910 
  57   2.0000      -0.628333       -17.0978 
  58   2.0000      -0.613160       -16.6849 
  59   2.0000      -0.596906       -16.2426 
  60   2.0000      -0.590810       -16.0767 
  61   2.0000      -0.579679       -15.7739 
  62   2.0000      -0.572922       -15.5900 
  63   2.0000      -0.560730       -15.2582 
  64   2.0000      -0.550926       -14.9915 
  65   2.0000      -0.549323       -14.9478 
  66   2.0000      -0.546161       -14.8618 
  67   2.0000      -0.532341       -14.4857 
  68   2.0000      -0.519065       -14.1245 
  69   2.0000      -0.517207       -14.0739 
  70   2.0000      -0.507830       -13.8188 
  71   2.0000      -0.503723       -13.7070 
  72   2.0000      -0.501518       -13.6470 
  73   2.0000      -0.496323       -13.5056 
  74   2.0000      -0.488632       -13.2964 
  75   2.0000      -0.486082       -13.2270 
[...]
 80:    993.33   0.000681    3.44  0.000214  (-0.012846 -0.004680  0.005199)
 81:    997.75   0.001683    8.51  0.000526  ( 0.017128 -0.011948 -0.009501)
 82:   1014.23   0.002922   14.76  0.000899  (-0.027393 -0.011554 -0.003881)
 83:   1026.65   0.001619    8.18  0.000492  ( 0.013827  0.007139  0.015806)
 84:   1042.63   0.009024   45.60  0.002701  ( 0.037940 -0.034828  0.006972)
 85:   1054.39   0.003636   18.38  0.001076  (-0.000360 -0.023424 -0.022966)
 86:   1072.42   0.013249   66.95  0.003855  ( 0.012915  0.038256  0.047170)
 87:   1075.25   0.003982   20.12  0.001156  (-0.014446  0.030681 -0.002385)
 88:   1082.23   0.019803  100.08  0.005710  (-0.058891 -0.006710  0.046873)
 89:   1089.46   0.014049   71.00  0.004024  ( 0.011385 -0.011232 -0.061387)
 90:   1105.99   0.002879   14.55  0.000812  ( 0.010567 -0.003211 -0.026273)
 91:   1145.38   0.002013   10.17  0.000548  ( 0.003690  0.003858 -0.022803)
 92:   1147.39   0.017045   86.14  0.004636  ( 0.006742  0.012034  0.066675)
 93:   1153.89   0.003472   17.55  0.000939  (-0.022685  0.020313  0.003444)
 94:   1170.45   0.000075    0.38  0.000020  (-0.003412  0.002627 -0.001149)
 95:   1171.49   0.000168    0.85  0.000045  ( 0.000036 -0.006633 -0.000879)
 96:   1171.60   0.000341    1.72  0.000091  (-0.008814  0.000320 -0.003610)
 97:   1173.96   0.000713    3.60  0.000190  ( 0.001257  0.005711  0.012466)
 98:   1197.40   0.001826    9.23  0.000476  (-0.016966  0.013681  0.000979)
 99:   1205.13   0.005124   25.89  0.001327  ( 0.035735 -0.000049 -0.007050)
100:   1206.20   0.001837    9.28  0.000475  ( 0.002936 -0.004533  0.021119)
101:   1207.11   0.004794   24.23  0.001239  ( 0.029912 -0.018374  0.002649)
102:   1208.88   0.008828   44.61  0.002279  ( 0.043664  0.018746  0.004581)
103:   1234.12   0.022382  113.11  0.005660  (-0.047532  0.042397  0.040035)
104:   1239.26   0.009296   46.98  0.002341  ( 0.003593  0.047995  0.004950)
105:   1244.44   0.023922  120.89  0.005999  ( 0.011919 -0.074589 -0.017123)
106:   1270.06   0.004056   20.50  0.000997  (-0.007020 -0.023261 -0.020155)
107:   1296.53   0.016491   83.34  0.003969  ( 0.039712  0.000613  0.048907)
108:   1303.76   0.075836  383.24  0.018152  (-0.122795  0.021266  0.051196)
109:   1306.15   0.032475  164.12  0.007759  (-0.083894 -0.020090  0.017808)
110:   1309.78   0.068235  344.83  0.016257  (-0.003365  0.010228 -0.127049)
111:   1318.85   0.039542  199.83  0.009356  (-0.073289  0.006392  0.062804)
112:   1321.88   0.003184   16.09  0.000752  ( 0.013570  0.017919  0.015698)
113:   1341.76   0.010280   51.95  0.002391  ( 0.017028  0.022201  0.040100)
114:   1343.64   0.012263   61.97  0.002848  ( 0.023894  0.041465  0.023621)
115:   1359.59   0.003401   17.19  0.000781  ( 0.022049 -0.015955  0.006310)
116:   1363.43   0.005207   26.31  0.001192  (-0.004761  0.030423 -0.015605)
117:   1371.96   0.016467   83.22  0.003746  (-0.030621 -0.027491  0.045301)
118:   1388.85   0.012587   63.61  0.002828  ( 0.022841  0.046102  0.013457)
119:   1392.48   0.016509   83.43  0.003700  ( 0.025054  0.028982 -0.047246)
120:   1430.29   0.042241  213.47  0.009216  ( 0.004329 -0.070912 -0.064568)
121:   1442.33   0.015614   78.91  0.003378  (-0.035646 -0.045829  0.002726)
122:   1460.98   0.001778    8.99  0.000380  (-0.015676  0.000585 -0.011567)
123:   1463.96   0.005152   26.04  0.001098  (-0.018951  0.002464  0.027075)
124:   1465.23   0.003502   17.70  0.000746  ( 0.022604 -0.001420  0.015264)
125:   1467.31   0.006717   33.94  0.001428  ( 0.012897 -0.023034 -0.027048)
126:   1468.95   0.001741    8.80  0.000370  (-0.015767  0.000039 -0.011012)
127:   1472.76   0.003487   17.62  0.000739  (-0.011373  0.023660 -0.007046)
128:   1473.47   0.002839   14.35  0.000601  ( 0.000267  0.024346  0.002902)
129:   1475.46   0.001310    6.62  0.000277  (-0.008559 -0.007518  0.012133)
130:   1482.07   0.005242   26.49  0.001104  ( 0.020731  0.012551 -0.022727)
131:   1486.51   0.008175   41.31  0.001716  ( 0.040190 -0.003211  0.009522)
132:   1499.38   0.009579   48.41  0.001994  ( 0.011041  0.002368 -0.043199)
133:   1508.12   0.047781  241.46  0.009887  ( 0.085985  0.048627 -0.011350)
134:   1542.46   0.030011  151.66  0.006072  (-0.036045 -0.015928  0.067222)
135:   1562.51   0.044613  225.45  0.008910  (-0.091958  0.009399 -0.019118)
136:   1617.48   0.014772   74.65  0.002850  (-0.037099 -0.038025  0.005263)
137:   1632.83   0.137110  692.90  0.026204  (-0.087437  0.113618 -0.075165)
138:   1641.73   0.014570   73.63  0.002769  ( 0.029304 -0.021949  0.037801)
139:   1651.58   0.013733   69.40  0.002595  ( 0.009001 -0.009338  0.049260)
140:   1664.79   0.011110   56.15  0.002083  ( 0.022928  0.020813 -0.033523)
141:   1676.66   0.026743  135.15  0.004977  (-0.069277  0.002857 -0.013036)
142:   1706.34   0.043323  218.94  0.007923  (-0.062116 -0.060578  0.019878)
143:   1785.24   0.098224  496.38  0.017170  (-0.023672 -0.100688  0.080444)
144:   3026.59   0.004710   23.80  0.000486  (-0.018301 -0.005070 -0.011180)
145:   3036.41   0.012083   61.06  0.001242  ( 0.029519  0.001651 -0.019174)
146:   3038.97   0.011612   58.68  0.001192  (-0.007316 -0.011197 -0.031835)
147:   3071.23   0.006526   32.98  0.000663  ( 0.007162 -0.020161 -0.014330)
148:   3086.36   0.002987   15.09  0.000302  (-0.001870  0.016213 -0.005969)
149:   3107.18   0.007838   39.61  0.000787  (-0.000341  0.027818  0.003632)
150:   3112.73   0.007303   36.91  0.000732  ( 0.018498 -0.019739  0.000621)
151:   3146.00   0.000313    1.58  0.000031  (-0.003990 -0.003887  0.000241)
152:   3153.43   0.004275   21.60  0.000423  ( 0.019503 -0.000428  0.006521)
153:   3164.35   0.003491   17.64  0.000344  ( 0.011685  0.009529 -0.010814)
154:   3166.20   0.004142   20.93  0.000408  ( 0.016231 -0.001593  0.011927)
155:   3184.06   0.001063    5.37  0.000104  (-0.004544 -0.005218 -0.007503)
156:   3185.42   0.003537   17.88  0.000347  (-0.001732 -0.016781  0.007869)
157:   3188.85   0.002364   11.95  0.000231  (-0.005677 -0.006491  0.012529)
158:   3194.79   0.001529    7.73  0.000149  (-0.008917  0.002708 -0.007908)
159:   3195.62   0.001755    8.87  0.000171  (-0.008190 -0.008712 -0.005332)
160:   3204.95   0.001153    5.82  0.000112  (-0.009582  0.000556 -0.004483)
161:   3208.46   0.000261    1.32  0.000025  (-0.005018 -0.000297  0.000362)
162:   3213.78   0.003336   16.86  0.000324  ( 0.008105  0.007750 -0.014078)
163:   3216.61   0.000555    2.80  0.000054  (-0.003417  0.005548 -0.003371)
164:   3225.02   0.001066    5.39  0.000103  (-0.005136 -0.002369  0.008435)
165:   3230.77   0.000354    1.79  0.000034  (-0.001694 -0.003476 -0.004391)
166:   3232.17   0.000347    1.75  0.000033  (-0.005714  0.000078  0.000903)
167:   3246.21   0.000775    3.92  0.000075  ( 0.008311 -0.000993  0.002109)

* The epsilon (eps) is given for a Dirac delta lineshape.
** The dipole moment derivative (T) already includes vibrational overlap.

The first frequency considered to be a vibration is 6
The total number of vibrations considered is 162


--------------------------
THERMOCHEMISTRY AT 298.15K
--------------------------

Temperature         ... 298.15 K
Pressure            ... 1.00 atm
Total Mass          ... 436.46 AMU

Throughout the following assumptions are being made:
  (1) The electronic state is orbitally nondegenerate
  (2) There are no thermally accessible electronically excited states
  (3) Hindered rotations indicated by low frequency modes are not
      treated as such but are treated as vibrations and this may
      cause some error
  (4) All equations used are the standard statistical mechanics
      equations for an ideal gas
  (5) All vibrations are strictly harmonic

freq.      20.94  E(vib)   ...       0.56 
freq.      30.52  E(vib)   ...       0.55 
freq.      40.44  E(vib)   ...       0.54 
freq.      52.10  E(vib)   ...       0.52 
freq.      63.67  E(vib)   ...       0.51 
freq.      71.25  E(vib)   ...       0.50 
freq.      76.86  E(vib)   ...       0.49 
freq.      80.72  E(vib)   ...       0.48 
freq.      87.85  E(vib)   ...       0.48 
freq.     100.87  E(vib)   ...       0.46 
freq.     104.61  E(vib)   ...       0.46 
freq.     115.16  E(vib)   ...       0.44 
freq.     122.36  E(vib)   ...       0.43 
freq.     130.84  E(vib)   ...       0.43 
freq.     153.53  E(vib)   ...       0.40 
freq.     163.12  E(vib)   ...       0.39 
freq.     175.12  E(vib)   ...       0.38 
freq.     179.60  E(vib)   ...       0.37 
freq.     182.75  E(vib)   ...       0.37 
freq.     206.24  E(vib)   ...       0.35 
freq.     224.05  E(vib)   ...       0.33 
freq.     234.89  E(vib)   ...       0.32 
freq.     251.83  E(vib)   ...       0.30 
freq.     260.52  E(vib)   ...       0.30 
freq.     263.27  E(vib)   ...       0.29 
freq.     286.16  E(vib)   ...       0.27 
freq.     297.82  E(vib)   ...       0.27 
freq.     308.12  E(vib)   ...       0.26 
freq.     321.61  E(vib)   ...       0.25 
freq.     336.72  E(vib)   ...       0.24 
freq.     377.65  E(vib)   ...       0.21 
freq.     385.93  E(vib)   ...       0.20 
freq.     399.02  E(vib)   ...       0.19 
freq.     431.81  E(vib)   ...       0.18 
freq.     435.68  E(vib)   ...       0.17 
freq.     458.33  E(vib)   ...       0.16 
freq.     483.71  E(vib)   ...       0.15 
freq.     489.81  E(vib)   ...       0.15 
freq.     497.42  E(vib)   ...       0.14 
freq.     543.47  E(vib)   ...       0.12 
freq.     556.32  E(vib)   ...       0.12 
freq.     568.43  E(vib)   ...       0.11 
freq.     569.55  E(vib)   ...       0.11 
freq.     590.80  E(vib)   ...       0.10 
freq.     592.22  E(vib)   ...       0.10 
freq.     617.53  E(vib)   ...       0.09 
freq.     633.03  E(vib)   ...       0.09 
freq.     638.67  E(vib)   ...       0.09 
freq.     650.69  E(vib)   ...       0.08 
freq.     653.65  E(vib)   ...       0.08 
freq.     700.80  E(vib)   ...       0.07 
freq.     703.57  E(vib)   ...       0.07 
freq.     733.60  E(vib)   ...       0.06 
freq.     749.72  E(vib)   ...       0.06 
freq.     761.15  E(vib)   ...       0.06 
freq.     769.64  E(vib)   ...       0.05 
freq.     788.06  E(vib)   ...       0.05 
freq.     797.88  E(vib)   ...       0.05 
freq.     817.95  E(vib)   ...       0.05 
freq.     828.64  E(vib)   ...       0.04 
freq.     830.67  E(vib)   ...       0.04 
freq.     849.94  E(vib)   ...       0.04 
freq.     856.49  E(vib)   ...       0.04 
freq.     863.01  E(vib)   ...       0.04 
freq.     871.71  E(vib)   ...       0.04 
freq.     882.38  E(vib)   ...       0.04 
freq.     937.01  E(vib)   ...       0.03 
freq.     941.51  E(vib)   ...       0.03 
freq.     951.60  E(vib)   ...       0.03 
freq.     957.98  E(vib)   ...       0.03 
freq.     964.08  E(vib)   ...       0.03 
freq.     980.50  E(vib)   ...       0.02 
freq.     985.70  E(vib)   ...       0.02 
freq.     987.16  E(vib)   ...       0.02 
freq.     993.33  E(vib)   ...       0.02 
freq.     997.75  E(vib)   ...       0.02 
freq.    1014.23  E(vib)   ...       0.02 
freq.    1026.65  E(vib)   ...       0.02 
freq.    1042.63  E(vib)   ...       0.02 
freq.    1054.39  E(vib)   ...       0.02 
freq.    1072.42  E(vib)   ...       0.02 
freq.    1075.25  E(vib)   ...       0.02 
freq.    1082.23  E(vib)   ...       0.02 
freq.    1089.46  E(vib)   ...       0.02 
freq.    1105.99  E(vib)   ...       0.02 
freq.    1145.38  E(vib)   ...       0.01 
freq.    1147.39  E(vib)   ...       0.01 
freq.    1153.89  E(vib)   ...       0.01 
freq.    1170.45  E(vib)   ...       0.01 
freq.    1171.49  E(vib)   ...       0.01 
freq.    1171.60  E(vib)   ...       0.01 
freq.    1173.96  E(vib)   ...       0.01 
freq.    1197.40  E(vib)   ...       0.01 
freq.    1205.13  E(vib)   ...       0.01 
freq.    1206.20  E(vib)   ...       0.01 
freq.    1207.11  E(vib)   ...       0.01 
freq.    1208.88  E(vib)   ...       0.01 
freq.    1234.12  E(vib)   ...       0.01 
freq.    1239.26  E(vib)   ...       0.01 
freq.    1244.44  E(vib)   ...       0.01 
freq.    1270.06  E(vib)   ...       0.01 
freq.    1296.53  E(vib)   ...       0.01 
freq.    1303.76  E(vib)   ...       0.01 
freq.    1306.15  E(vib)   ...       0.01 
freq.    1309.78  E(vib)   ...       0.01 
freq.    1318.85  E(vib)   ...       0.01 
freq.    1321.88  E(vib)   ...       0.01 
freq.    1341.76  E(vib)   ...       0.01 
freq.    1343.64  E(vib)   ...       0.01 
freq.    1359.59  E(vib)   ...       0.01 
freq.    1363.43  E(vib)   ...       0.01 
freq.    1371.96  E(vib)   ...       0.01 
freq.    1388.85  E(vib)   ...       0.00 
freq.    1392.48  E(vib)   ...       0.00 
freq.    1430.29  E(vib)   ...       0.00 
freq.    1442.33  E(vib)   ...       0.00 
freq.    1460.98  E(vib)   ...       0.00 
freq.    1463.96  E(vib)   ...       0.00 
freq.    1465.23  E(vib)   ...       0.00 
freq.    1467.31  E(vib)   ...       0.00 
freq.    1468.95  E(vib)   ...       0.00 
freq.    1472.76  E(vib)   ...       0.00 
freq.    1473.47  E(vib)   ...       0.00 
freq.    1475.46  E(vib)   ...       0.00 
freq.    1482.07  E(vib)   ...       0.00 
freq.    1486.51  E(vib)   ...       0.00 
freq.    1499.38  E(vib)   ...       0.00 
freq.    1508.12  E(vib)   ...       0.00 
freq.    1542.46  E(vib)   ...       0.00 
freq.    1562.51  E(vib)   ...       0.00 
freq.    1617.48  E(vib)   ...       0.00 
freq.    1632.83  E(vib)   ...       0.00 
freq.    1641.73  E(vib)   ...       0.00 
freq.    1651.58  E(vib)   ...       0.00 
freq.    1664.79  E(vib)   ...       0.00 
freq.    1676.66  E(vib)   ...       0.00 
freq.    1706.34  E(vib)   ...       0.00 
freq.    1785.24  E(vib)   ...       0.00 
freq.    3026.59  E(vib)   ...       0.00 
freq.    3036.41  E(vib)   ...       0.00 
freq.    3038.97  E(vib)   ...       0.00 
freq.    3071.23  E(vib)   ...       0.00 
freq.    3086.36  E(vib)   ...       0.00 
freq.    3107.18  E(vib)   ...       0.00 
freq.    3112.73  E(vib)   ...       0.00 
freq.    3146.00  E(vib)   ...       0.00 
freq.    3153.43  E(vib)   ...       0.00 
freq.    3164.35  E(vib)   ...       0.00 
freq.    3166.20  E(vib)   ...       0.00 
freq.    3184.06  E(vib)   ...       0.00 
freq.    3185.42  E(vib)   ...       0.00 
freq.    3188.85  E(vib)   ...       0.00 
freq.    3194.79  E(vib)   ...       0.00 
freq.    3195.62  E(vib)   ...       0.00 
freq.    3204.95  E(vib)   ...       0.00 
freq.    3208.46  E(vib)   ...       0.00 
freq.    3213.78  E(vib)   ...       0.00 
freq.    3216.61  E(vib)   ...       0.00 
freq.    3225.02  E(vib)   ...       0.00 
freq.    3230.77  E(vib)   ...       0.00 
freq.    3232.17  E(vib)   ...       0.00 
freq.    3246.21  E(vib)   ...       0.00 

------------
INNER ENERGY
------------

The inner energy is: U= E(el) + E(ZPE) + E(vib) + E(rot) + E(trans)
    E(el)   - is the total energy from the electronic structure calculation
              = E(kin-el) + E(nuc-el) + E(el-el) + E(nuc-nuc)
    E(ZPE)  - the the zero temperature vibrational energy from the frequency calculation
    E(vib)  - the the finite temperature correction to E(ZPE) due to population
              of excited vibrational states
    E(rot)  - is the rotational thermal energy
    E(trans)- is the translational thermal energy

Summary of contributions to the inner energy U:
Electronic energy                ...  -1488.67438394 Eh
Zero point energy                ...      0.44894112 Eh     281.71 kcal/mol
Thermal vibrational correction   ...      0.02568845 Eh      16.12 kcal/mol
Thermal rotational correction    ...      0.00141627 Eh       0.89 kcal/mol
Thermal translational correction ...      0.00141627 Eh       0.89 kcal/mol
-----------------------------------------------------------------------
Total thermal energy                  -1488.19692183 Eh


Summary of corrections to the electronic energy:
(perhaps to be used in another calculation)
Total thermal correction                  0.02852099 Eh      17.90 kcal/mol
Non-thermal (ZPE) correction              0.44894112 Eh     281.71 kcal/mol
-----------------------------------------------------------------------
Total correction                          0.47746211 Eh     299.61 kcal/mol


--------
ENTHALPY
--------

The enthalpy is H = U + kB*T
                kB is Boltzmann's constant
Total free energy                 ...  -1488.19692183 Eh 
Thermal Enthalpy correction       ...      0.00094421 Eh       0.59 kcal/mol
-----------------------------------------------------------------------
Total Enthalpy                    ...  -1488.19597762 Eh


Note: Only C1 symmetry has been detected, increase convergence thresholds 
      if your molecule has a higher symmetry. Symmetry factor of 1.0 is   
      used for the rotational entropy correction. 
 

Note: Rotational entropy computed according to Herzberg 
Infrared and Raman Spectra, Chapter V,1, Van Nostrand Reinhold, 1945 
Point Group:  C1, Symmetry Number:   1  
Rotational constants in cm-1:     0.006778     0.004620     0.003588 

Vibrational entropy computed according to the QRRHO of S. Grimme
Chem.Eur.J. 2012 18 9955


-------
ENTROPY
-------

The entropy contributions are T*S = T*(S(el)+S(vib)+S(rot)+S(trans))
     S(el)   - electronic entropy
     S(vib)  - vibrational entropy
     S(rot)  - rotational entropy
     S(trans)- translational entropy
The entropies will be listed as multiplied by the temperature to get
units of energy

Electronic entropy                ...      0.00000000 Eh      0.00 kcal/mol
Vibrational entropy               ...      0.04577461 Eh     28.72 kcal/mol
Rotational entropy                ...      0.01706499 Eh     10.71 kcal/mol
Translational entropy             ...      0.02095817 Eh     13.15 kcal/mol
-----------------------------------------------------------------------
Final entropy term                ...      0.08379777 Eh     52.58 kcal/mol

In case the symmetry of your molecule has not been determined correctly
or in case you have a reason to use a different symmetry number we print 
out the resulting rotational entropy values for sn=1,12 :
 --------------------------------------------------------
|  sn= 1 | S(rot)=       0.01706499 Eh     10.71 kcal/mol|
|  sn= 2 | S(rot)=       0.01641053 Eh     10.30 kcal/mol|
|  sn= 3 | S(rot)=       0.01602770 Eh     10.06 kcal/mol|
|  sn= 4 | S(rot)=       0.01575608 Eh      9.89 kcal/mol|
|  sn= 5 | S(rot)=       0.01554539 Eh      9.75 kcal/mol|
|  sn= 6 | S(rot)=       0.01537324 Eh      9.65 kcal/mol|
|  sn= 7 | S(rot)=       0.01522770 Eh      9.56 kcal/mol|
|  sn= 8 | S(rot)=       0.01510162 Eh      9.48 kcal/mol|
|  sn= 9 | S(rot)=       0.01499041 Eh      9.41 kcal/mol|
|  sn=10 | S(rot)=       0.01489093 Eh      9.34 kcal/mol|
|  sn=11 | S(rot)=       0.01480094 Eh      9.29 kcal/mol|
|  sn=12 | S(rot)=       0.01471879 Eh      9.24 kcal/mol|
 --------------------------------------------------------


-------------------
GIBBS FREE ENERGY
-------------------

The Gibbs free energy is G = H - T*S

Total enthalpy                    ...  -1488.19597762 Eh 
Total entropy correction          ...     -0.08379777 Eh    -52.58 kcal/mol
-----------------------------------------------------------------------
Final Gibbs free energy         ...  -1488.27977539 Eh

For completeness - the Gibbs free energy minus the electronic energy
G-E(el)                           ...      0.39460855 Eh    247.62 kcal/mol


Timings for individual modules:

Sum of individual times         ...     9673.258 sec (= 161.221 min)
GTO integral calculation        ...       49.120 sec (=   0.819 min)   0.5 %
SCF iterations                  ...     2587.922 sec (=  43.132 min)  26.8 %
SCF Gradient evaluation         ...      818.334 sec (=  13.639 min)   8.5 %
Geometry relaxation             ...        5.483 sec (=   0.091 min)   0.1 %
Analytical frequency calculation...     6212.399 sec (= 103.540 min)  64.2 %
                             ****ORCA TERMINATED NORMALLY****
TOTAL RUN TIME: 0 days 2 hours 41 minutes 59 seconds 138 msec
