
                                 *****************
                                 * O   R   C   A *
                                 *****************

                                            #,                                       
                                            ###                                      
                                            ####                                     
                                            #####                                    
                                            ######                                   
                                           ########,                                 
                                     ,,################,,,,,                         
                               ,,#################################,,                 
                          ,,##########################################,,             
                       ,#########################################, ''#####,          
                    ,#############################################,,   '####,        
                  ,##################################################,,,,####,       
                ,###########''''           ''''###############################       
              ,#####''   ,,,,##########,,,,          '''####'''          '####       
            ,##' ,,,,###########################,,,                        '##       
           ' ,,###''''                  '''############,,,                           
         ,,##''                                '''############,,,,        ,,,,,,###''
      ,#''                                            '''#######################'''  
     '                                                          ''''####''''         
             ,#######,   #######,   ,#######,      ##                                
            ,#'     '#,  ##    ##  ,#'     '#,    #''#        ######   ,####,        
            ##       ##  ##   ,#'  ##            #'  '#       #        #'  '#        
            ##       ##  #######   ##           ,######,      #####,   #    #        
            '#,     ,#'  ##    ##  '#,     ,#' ,#      #,         ##   #,  ,#        
             '#######'   ##     ##  '#######'  #'      '#     #####' # '####'        



                  #######################################################
                  #                        -***-                        #
                  #          Department of theory and spectroscopy      #
                  #    Directorship and core code : Frank Neese         #
                  #        Max Planck Institute fuer Kohlenforschung    #
                  #                Kaiser Wilhelm Platz 1               #
                  #                 D-45470 Muelheim/Ruhr               #
                  #                      Germany                        #
                  #                                                     #
                  #                  All rights reserved                #
                  #                        -***-                        #
                  #######################################################


                         Program Version 5.0.4 -  RELEASE  -


 With contributions from (in alphabetic order):
   Daniel Aravena         : Magnetic Suceptibility
   Michael Atanasov       : Ab Initio Ligand Field Theory (pilot matlab implementation)
   Alexander A. Auer      : GIAO ZORA, VPT2 properties, NMR spectrum
   Ute Becker             : Parallelization
   Giovanni Bistoni       : ED, misc. LED, open-shell LED, HFLD
   Martin Brehm           : Molecular dynamics
   Dmytro Bykov           : SCF Hessian
   Vijay G. Chilkuri      : MRCI spin determinant printing, contributions to CSF-ICE
   Dipayan Datta          : RHF DLPNO-CCSD density
   Achintya Kumar Dutta   : EOM-CC, STEOM-CC
   Dmitry Ganyushin       : Spin-Orbit,Spin-Spin,Magnetic field MRCI
   Miquel Garcia          : C-PCM and meta-GGA Hessian, CC/C-PCM, Gaussian charge scheme
   Yang Guo               : DLPNO-NEVPT2, F12-NEVPT2, CIM, IAO-localization
   Andreas Hansen         : Spin unrestricted coupled pair/coupled cluster methods
   Benjamin Helmich-Paris : MC-RPA, TRAH-SCF, COSX integrals
   Lee Huntington         : MR-EOM, pCC
   Robert Izsak           : Overlap fitted RIJCOSX, COSX-SCS-MP3, EOM
   Marcus Kettner         : VPT2
   Christian Kollmar      : KDIIS, OOCD, Brueckner-CCSD(T), CCSD density, CASPT2, CASPT2-K
   Simone Kossmann        : Meta GGA functionals, TD-DFT gradient, OOMP2, MP2 Hessian
   Martin Krupicka        : Initial AUTO-CI
   Lucas Lang             : DCDCAS
   Marvin Lechner         : AUTO-CI (C++ implementation), FIC-MRCC
   Dagmar Lenk            : GEPOL surface, SMD
   Dimitrios Liakos       : Extrapolation schemes; Compound Job, initial MDCI parallelization
   Dimitrios Manganas     : Further ROCIS development; embedding schemes
   Dimitrios Pantazis     : SARC Basis sets
   Anastasios Papadopoulos: AUTO-CI, single reference methods and gradients
   Taras Petrenko         : DFT Hessian,TD-DFT gradient, ASA, ECA, R-Raman, ABS, FL, XAS/XES, NRVS
   Peter Pinski           : DLPNO-MP2, DLPNO-MP2 Gradient
   Christoph Reimann      : Effective Core Potentials
   Marius Retegan         : Local ZFS, SOC
   Christoph Riplinger    : Optimizer, TS searches, QM/MM, DLPNO-CCSD(T), (RO)-DLPNO pert. Triples
   Tobias Risthaus        : Range-separated hybrids, TD-DFT gradient, RPA, STAB
   Michael Roemelt        : Original ROCIS implementation
   Masaaki Saitow         : Open-shell DLPNO-CCSD energy and density
   Barbara Sandhoefer     : DKH picture change effects
   Avijit Sen             : IP-ROCIS
   Kantharuban Sivalingam : CASSCF convergence, NEVPT2, FIC-MRCI
   Bernardo de Souza      : ESD, SOC TD-DFT
   Georgi Stoychev        : AutoAux, RI-MP2 NMR, DLPNO-MP2 response
   Willem Van den Heuvel  : Paramagnetic NMR
   Boris Wezisla          : Elementary symmetry handling
   Frank Wennmohs         : Technical directorship


 We gratefully acknowledge several colleagues who have allowed us to
 interface, adapt or use parts of their codes:
   Stefan Grimme, W. Hujo, H. Kruse, P. Pracht,  : VdW corrections, initial TS optimization,
                  C. Bannwarth, S. Ehlert          DFT functionals, gCP, sTDA/sTD-DF
   Ed Valeev, F. Pavosevic, A. Kumar             : LibInt (2-el integral package), F12 methods
   Garnet Chan, S. Sharma, J. Yang, R. Olivares  : DMRG
   Ulf Ekstrom                                   : XCFun DFT Library
   Mihaly Kallay                                 : mrcc  (arbitrary order and MRCC methods)
   Jiri Pittner, Ondrej Demel                    : Mk-CCSD
   Frank Weinhold                                : gennbo (NPA and NBO analysis)
   Christopher J. Cramer and Donald G. Truhlar   : smd solvation model
   Lars Goerigk                                  : TD-DFT with DH, B97 family of functionals
   V. Asgeirsson, H. Jonsson                     : NEB implementation
   FAccTs GmbH                                   : IRC, NEB, NEB-TS, DLPNO-Multilevel, CI-OPT
                                                   MM, QMMM, 2- and 3-layer-ONIOM, Crystal-QMMM,
                                                   LR-CPCM, SF, NACMEs, symmetry and pop. for TD-DFT,
                                                   nearIR, NL-DFT gradient (VV10), updates on ESD,
                                                   ML-optimized integration grids
   S Lehtola, MJT Oliveira, MAL Marques          : LibXC Library
   Liviu Ungur et al                             : ANISO software


 Your calculation uses the libint2 library for the computation of 2-el integrals
 For citations please refer to: http://libint.valeyev.net

 Your ORCA version has been built with support for libXC version: 5.1.0
 For citations please refer to: https://tddft.org/programs/libxc/

 This ORCA versions uses:
   CBLAS   interface :  Fast vector & matrix operations
   LAPACKE interface :  Fast linear algebra routines
   SCALAPACK package :  Parallel linear algebra routines
   Shared memory     :  Shared parallel matrices
   BLAS/LAPACK       :  OpenBLAS 0.3.15  USE64BITINT DYNAMIC_ARCH NO_AFFINITY Haswell SINGLE_THREADED
        Core in use  :  Haswell
   Copyright (c) 2011-2014, The OpenBLAS Project


Your calculation utilizes the atom-pairwise dispersion correction
with the Becke-Johnson damping scheme (D3BJ)
Cite in your paper:
S.Grimme, S.Ehrlich, L.Goerigk, J Comput Chem, (2011), 32, 1456–1465 
S.Grimme, J.Antony, S.Ehrlich and H.Krieg, J.Chem.Phys., 132, (2010), 154104 
   

================================================================================

----- Orbital basis set information -----
Your calculation utilizes the basis: def2-TZVP
   F. Weigend and R. Ahlrichs, Phys. Chem. Chem. Phys. 7, 3297 (2005).

----- AuxJ basis set information -----
Your calculation utilizes the auxiliary basis: def2/J
   F. Weigend, Phys. Chem. Chem. Phys. 8, 1057 (2006).

================================================================================
                                        WARNINGS
                       Please study these warnings very carefully!
================================================================================


WARNING: Geometry Optimization
  ===> : Switching off AutoStart
         For restart on a previous wavefunction, please use MOREAD

INFO   : the flag for use of the SHARK integral package has been found!

================================================================================
                                       INPUT FILE
================================================================================
NAME = 3_4-NO2Ph/3_4-NO2Ph.inp
|  1> %pal nprocs 24 end
|  2> %maxcore 3500
|  3> ! PBE0 D3BJ def2-TZVP TightSCF OPT FREQ TightOpt
|  4> ! CPCM(dmso)
|  5> %scf
|  6> MaxIter 800
|  7> end
|  8> %geom
|  9> MaxIter 800
| 10> MaxStep 0.2
| 11> end
| 12> *xyz 0 1
| 13> 
| 14> C       2.58482500      3.58837800     -1.27213900
| 15> C       3.83913000      2.87697000     -1.28062600
| 16> C       3.82805700      1.57477600     -0.93402400
| 17> N       2.67579100      0.89658500     -0.68571000
| 18> C       1.35843700      1.49405400     -0.81183600
| 19> C       1.42270000      2.97057800     -1.02380200
| 20> C       2.65363700     -0.32884100      0.07081300
| 21> C       3.15039200     -1.53743600     -0.70141700
| 22> O       3.53425300     -1.52976000     -1.84238600
| 23> O       3.15243100     -2.60206900      0.08763700
| 24> C       3.57094500     -3.83299100     -0.50904200
| 25> H       2.58633400      4.65823400     -1.45188100
| 26> H       4.73436700      0.99091200     -0.82304700
| 27> H       0.80872100      1.02324700     -1.64006600
| 28> H       0.48647600      3.51382000     -0.99553500
| 29> H       3.32030300     -0.24441200      0.93371100
| 30> H       2.91235900     -4.08870300     -1.33963300
| 31> H       3.49862900     -4.58014200      0.27664600
| 32> C      -3.64742600      0.91441000      0.43218100
| 33> C      -2.96404100      0.61052700      1.59831100
| 34> C      -1.58627500      0.65726600      1.58378500
| 35> C      -0.89309900      1.00092700      0.42324000
| 36> C      -1.60696500      1.31396200     -0.72684700
| 37> C      -2.99040500      1.26970800     -0.73037800
| 38> C       0.61268900      0.96473700      0.45340300
| 39> C       1.20196700     -0.46372900      0.59599400
| 40> C       0.34096600     -1.47756800     -0.11659400
| 41> C       0.30547400     -1.59572000     -1.49937100
| 42> C      -0.52646500     -2.50738300     -2.13346900
| 43> C      -1.34380100     -3.32165600     -1.36954500
| 44> C      -1.32472000     -3.23497500      0.01521200
| 45> C      -0.48468500     -2.32184600      0.64370700
| 46> O      -0.40992000     -2.18694600      1.98418700
| 47> C      -1.29436400     -2.94563400      2.78643000
| 48> N       1.08020200      1.84155700      1.59588800
| 49> O       2.08457600      1.52119900      2.19228500
| 50> H      -3.50422500      0.33671900      2.49355500
| 51> H      -1.04441800      0.40739400      2.48737900
| 52> H      -1.10325900      1.59052700     -1.64270500
| 53> H      -3.55088800      1.50808700     -1.62331500
| 54> H       1.23330300     -0.72511000      1.65013200
| 55> H       0.94431500     -0.96921600     -2.10937900
| 56> H      -0.53237600     -2.57452800     -3.21440900
| 57> H      -2.00357000     -4.03795500     -1.84572500
| 58> H      -1.96464300     -3.88192900      0.59948700
| 59> H      -2.33616400     -2.72034000      2.54105200
| 60> H      -1.09088300     -2.65375100      3.81454900
| 61> H      -1.11531900     -4.01795900      2.66929200
| 62> O       0.47150700      2.87177800      1.78256300
| 63> H       4.59790300     -3.75140800     -0.86483100
| 64> N      -5.10485100      0.85748100      0.43190200
| 65> O      -5.68585500      1.10051900     -0.60659300
| 66> O      -5.66432600      0.56895000      1.47064900
| 67> H       4.77129000      3.37755700     -1.49743400
| 68> *
| 69> 
| 70>                          ****END OF INPUT****
================================================================================

                       *****************************
                       * Geometry Optimization Run *
                       *****************************

Geometry optimization settings:
Update method            Update   .... BFGS
Choice of coordinates    CoordSys .... Z-matrix Internals
Initial Hessian          InHess   .... Almoef's Model

Convergence Tolerances:
Energy Change            TolE     ....  1.0000e-06 Eh
Max. Gradient            TolMAXG  ....  1.0000e-04 Eh/bohr
RMS Gradient             TolRMSG  ....  3.0000e-05 Eh/bohr
Max. Displacement        TolMAXD  ....  1.0000e-03 bohr
RMS Displacement         TolRMSD  ....  6.0000e-04 bohr
Strict Convergence                ....  False
------------------------------------------------------------------------------
                        ORCA OPTIMIZATION COORDINATE SETUP
------------------------------------------------------------------------------

The optimization will be done in new redundant internal coordinates
Making redundant internal coordinates   ...  (new redundants) done
Evaluating the initial hessian          ...  (Almloef) done
Evaluating the coordinates              ...  done
Calculating the B-matrix                .... done
Calculating the G-matrix                .... done
Diagonalizing the G-matrix              .... done
Small eigenvalue found = 3.388e-03
Small eigenvalue found = 6.958e-03
Small eigenvalue found = 8.808e-03
Small eigenvalue found = 1.070e-02
Small eigenvalue found = 1.433e-02
Small eigenvalue found = 1.788e-02
The first mode is                       ....  147
The number of degrees of freedom        ....  156

    -----------------------------------------------------------------
                    Redundant Internal Coordinates


    -----------------------------------------------------------------
         Definition                    Initial Value    Approx d2E/dq
    -----------------------------------------------------------------
      1. B(C   1,C   0)                  1.4420         0.516090   
      2. B(C   2,C   1)                  1.3476         0.730165   
      3. B(N   3,C   2)                  1.3599         0.625033   
      4. B(C   4,N   3)                  1.4520         0.445617   
      5. B(C   5,C   4)                  1.4930         0.427895   
      6. B(C   5,C   0)                  1.3394         0.752546   
      7. B(C   6,N   3)                  1.4403         0.465171   
      8. B(C   7,C   6)                  1.5178         0.390656   
      9. B(O   8,C   7)                  1.2038         1.108894   
     10. B(O   9,C   7)                  1.3252         0.710102   
     11. B(C  10,O   9)                  1.4305         0.482225   
     12. B(H  11,C   0)                  1.0849         0.366977   
     13. B(H  12,C   2)                  1.0838         0.368403   
     14. B(H  13,C   4)                  1.0999         0.347220   
     15. B(H  14,C   5)                  1.0828         0.369770   
     16. B(H  15,C   6)                  1.0937         0.355247   
     17. B(H  16,C  10)                  1.0904         0.359551   
     18. B(H  17,C  10)                  1.0866         0.364583   
     19. B(C  19,C  18)                  1.3854         0.635540   
     20. B(C  20,C  19)                  1.3786         0.651434   
     21. B(C  21,C  20)                  1.3948         0.613881   
     22. B(C  22,C  21)                  1.3894         0.626288   
     23. B(C  23,C  22)                  1.3842         0.638364   
     24. B(C  23,C  18)                  1.3818         0.643831   
     25. B(C  24,C  21)                  1.5065         0.407221   
     26. B(C  24,C   4)                  1.5611         0.333197   
     27. B(C  25,C  24)                  1.5518         0.344818   
     28. B(C  25,C   6)                  1.5496         0.347582   
     29. B(C  26,C  25)                  1.5090         0.403588   
     30. B(C  27,C  26)                  1.3883         0.628781   
     31. B(C  28,C  27)                  1.3876         0.630414   
     32. B(C  29,C  28)                  1.3837         0.639397   
     33. B(C  30,C  29)                  1.3876         0.630333   
     34. B(C  31,C  30)                  1.3909         0.622844   
     35. B(C  31,C  26)                  1.4045         0.592431   
     36. B(O  32,C  31)                  1.3493         0.649788   
     37. B(C  33,O  32)                  1.4147         0.511012   
     38. B(N  34,C  24)                  1.5142         0.354650   
     39. B(O  35,N  34)                  1.2112         0.966548   
     40. B(H  36,C  19)                  1.0808         0.372413   
     41. B(H  37,C  20)                  1.0828         0.369707   
     42. B(H  38,C  22)                  1.0812         0.371925   
     43. B(H  39,C  23)                  1.0809         0.372369   
     44. B(H  40,C  25)                  1.0865         0.364744   
     45. B(H  41,C  27)                  1.0829         0.369577   
     46. B(H  42,C  28)                  1.0830         0.369427   
     47. B(H  43,C  29)                  1.0840         0.368081   
     48. B(H  44,C  30)                  1.0814         0.371657   
     49. B(H  45,C  33)                  1.0938         0.355158   
     50. B(H  46,C  33)                  1.0879         0.362826   
     51. B(H  47,C  33)                  1.0935         0.355549   
     52. B(O  48,N  34)                  1.2111         0.967095   
     53. B(H  49,C  10)                  1.0899         0.360231   
     54. B(N  50,C  18)                  1.4585         0.435041   
     55. B(O  51,N  50)                  1.2145         0.954881   
     56. B(O  52,H  45)                  4.8002         0.000000   
     57. B(O  52,N  50)                  1.2146         0.954660   
     58. B(H  53,C   1)                  1.0801         0.373501   
     59. A(C   1,C   0,H  11)          118.9688         0.343262   
     60. A(C   5,C   0,H  11)          119.1316         0.365922   
     61. A(C   1,C   0,C   5)          121.8872         0.434872   
     62. A(C   0,C   1,C   2)          117.9086         0.432516   
     63. A(C   2,C   1,H  53)          120.4374         0.365136   
     64. A(C   0,C   1,H  53)          121.5499         0.344279   
     65. A(N   3,C   2,H  12)          114.9102         0.352573   
     66. A(C   1,C   2,H  12)          122.6867         0.364278   
     67. A(C   1,C   2,N   3)          122.4009         0.444783   
     68. A(C   2,N   3,C   6)          122.2251         0.407624   
     69. A(C   4,N   3,C   6)          112.4428         0.384134   
     70. A(C   2,N   3,C   4)          123.2078         0.404542   
     71. A(N   3,C   4,H  13)          110.0423         0.329892   
     72. A(H  13,C   4,C  24)          103.0851         0.316422   
     73. A(N   3,C   4,C  24)          102.9137         0.364937   
     74. A(C   5,C   4,C  24)          118.0946         0.364682   
     75. A(N   3,C   4,C   5)          112.3466         0.381010   
     76. A(C   5,C   4,H  13)          109.7498         0.329670   
     77. A(C   0,C   5,C   4)          121.3209         0.420508   
     78. A(C   4,C   5,H  14)          117.0800         0.333122   
     79. A(C   0,C   5,H  14)          121.5772         0.366398   
     80. A(C   7,C   6,C  25)          114.1864         0.361655   
     81. A(N   3,C   6,H  15)          109.8376         0.333506   
     82. A(C   7,C   6,H  15)          105.2709         0.325983   
     83. A(N   3,C   6,C  25)          105.4549         0.370310   
     84. A(N   3,C   6,C   7)          113.9038         0.377848   
     85. A(H  15,C   6,C  25)          108.0804         0.319799   
     86. A(C   6,C   7,O   8)          125.5550         0.440610   
     87. A(O   8,C   7,O   9)          124.6789         0.488221   
     88. A(C   6,C   7,O   9)          109.7112         0.406870   
     89. A(C   7,O   9,C  10)          116.3207         0.419644   
     90. A(H  16,C  10,H  17)          110.4458         0.291336   
     91. A(O   9,C  10,H  17)          105.6994         0.336958   
     92. A(H  17,C  10,H  49)          110.5001         0.291422   
     93. A(O   9,C  10,H  49)          110.3296         0.336285   
     94. A(O   9,C  10,H  16)          110.0481         0.336180   
     95. A(H  16,C  10,H  49)          109.7547         0.290786   
     96. A(C  19,C  18,C  23)          122.0079         0.438980   
     97. A(C  19,C  18,N  50)          118.9807         0.406631   
     98. A(C  23,C  18,N  50)          119.0114         0.407564   
     99. A(C  18,C  19,C  20)          118.4684         0.439911   
    100. A(C  18,C  19,H  36)          120.4136         0.356419   
    101. A(C  20,C  19,H  36)          121.1164         0.357918   
    102. A(C  19,C  20,C  21)          120.9159         0.437168   
    103. A(C  21,C  20,H  37)          120.1650         0.353891   
    104. A(C  19,C  20,H  37)          118.9127         0.357475   
    105. A(C  20,C  21,C  22)          119.2700         0.434080   
    106. A(C  22,C  21,C  24)          122.3810         0.403466   
    107. A(C  20,C  21,C  24)          118.3041         0.402045   
    108. A(C  21,C  22,C  23)          120.5611         0.437148   
    109. A(C  23,C  22,H  38)          118.1416         0.356608   
    110. A(C  21,C  22,H  38)          121.2958         0.355454   
    111. A(C  22,C  23,H  39)          120.8861         0.356680   
    112. A(C  18,C  23,H  39)          120.3435         0.357197   
    113. A(C  18,C  23,C  22)          118.7704         0.439331   
    114. A(C  25,C  24,N  34)          110.2720         0.353080   
    115. A(C  21,C  24,N  34)          108.0476         0.363212   
    116. A(C   4,C  24,N  34)          105.5266         0.351039   
    117. A(C  21,C  24,C  25)          113.7974         0.363733   
    118. A(C   4,C  24,C  25)          101.8402         0.351537   
    119. A(C   4,C  24,C  21)          116.9421         0.361609   
    120. A(C  24,C  25,C  26)          111.0025         0.363176   
    121. A(C   6,C  25,C  26)          115.6555         0.363672   
    122. A(C   6,C  25,C  24)          104.1502         0.354060   
    123. A(C  26,C  25,H  40)          108.2395         0.329166   
    124. A(C  24,C  25,H  40)          108.7567         0.320762   
    125. A(C   6,C  25,H  40)          108.8282         0.321181   
    126. A(C  27,C  26,C  31)          118.2297         0.431621   
    127. A(C  25,C  26,C  31)          118.9260         0.398906   
    128. A(C  25,C  26,C  27)          122.8293         0.403111   
    129. A(C  26,C  27,C  28)          121.7642         0.436474   
    130. A(C  28,C  27,H  41)          118.4496         0.355468   
    131. A(C  26,C  27,H  41)          119.7850         0.355312   
    132. A(C  27,C  28,C  29)          119.2420         0.437793   
    133. A(C  29,C  28,H  42)          120.7508         0.356298   
    134. A(C  27,C  28,H  42)          120.0070         0.355443   
    135. A(C  28,C  29,C  30)          120.4024         0.437783   
    136. A(C  30,C  29,H  43)          119.2102         0.355216   
    137. A(C  28,C  29,H  43)          120.3870         0.356077   
    138. A(C  29,C  30,C  31)          120.0178         0.435718   
    139. A(C  31,C  30,H  44)          120.3994         0.355078   
    140. A(C  29,C  30,H  44)          119.5827         0.355799   
    141. A(C  30,C  31,O  32)          123.2312         0.435239   
    142. A(C  26,C  31,O  32)          116.4310         0.431338   
    143. A(C  26,C  31,C  30)          120.3377         0.430886   
    144. A(C  31,O  32,C  33)          118.3655         0.417348   
    145. A(H  46,C  33,H  47)          109.4942         0.290603   
    146. A(H  45,C  33,H  47)          109.5074         0.289631   
    147. A(O  32,C  33,H  47)          111.2722         0.338811   
    148. A(H  45,C  33,H  46)          109.5659         0.290553   
    149. A(O  32,C  33,H  46)          105.9667         0.339959   
    150. A(O  32,C  33,H  45)          110.9645         0.338749   
    151. A(C  24,N  34,O  35)          118.3200         0.416946   
    152. A(O  35,N  34,O  48)          124.4623         0.497085   
    153. A(C  24,N  34,O  48)          116.9828         0.416988   
    154. A(O  51,N  50,O  52)          123.9480         0.494774   
    155. A(C  18,N  50,O  52)          117.9942         0.431507   
    156. A(C  18,N  50,O  51)          118.0578         0.431524   
    157. D(H  53,C   1,C   0,C   5)    178.9868         0.018159   
    158. D(C   2,C   1,C   0,C   5)     -4.7096         0.018159   
    159. D(H  53,C   1,C   0,H  11)     -2.3049         0.018159   
    160. D(C   2,C   1,C   0,H  11)    173.9987         0.018159   
    161. D(H  12,C   2,C   1,H  53)      2.2773         0.037830   
    162. D(N   3,C   2,C   1,H  53)   -178.2962         0.037830   
    163. D(N   3,C   2,C   1,C   0)      5.3573         0.037830   
    164. D(H  12,C   2,C   1,C   0)   -174.0692         0.037830   
    165. D(C   6,N   3,C   2,C   1)   -160.1077         0.031675   
    166. D(C   6,N   3,C   2,H  12)     19.3602         0.031675   
    167. D(C   4,N   3,C   2,C   1)      2.0621         0.031675   
    168. D(C   4,N   3,C   2,H  12)   -178.4701         0.031675   
    169. D(C   5,C   4,N   3,C   2)     -9.2397         0.016936   
    170. D(H  13,C   4,N   3,C   6)    -82.9087         0.016936   
    171. D(C   5,C   4,N   3,C   6)    154.4847         0.016936   
    172. D(H  13,C   4,N   3,C   2)    113.3668         0.016936   
    173. D(C  24,C   4,N   3,C   6)     26.4141         0.016936   
    174. D(C  24,C   4,N   3,C   2)   -137.3103         0.016936   
    175. D(H  14,C   5,C   4,C  24)    -52.4715         0.013525   
    176. D(H  14,C   5,C   4,H  13)     65.1960         0.013525   
    177. D(C   0,C   5,C   4,C  24)    129.2042         0.013525   
    178. D(H  14,C   5,C   4,N   3)   -172.0325         0.013525   
    179. D(H  14,C   5,C   0,H  11)     -0.1767         0.040414   
    180. D(H  14,C   5,C   0,C   1)    178.5295         0.040414   
    181. D(C   4,C   5,C   0,H  11)    178.0720         0.040414   
    182. D(C   0,C   5,C   4,H  13)   -113.1283         0.013525   
    183. D(C   4,C   5,C   0,C   1)     -3.2218         0.040414   
    184. D(C   0,C   5,C   4,N   3)      9.6432         0.013525   
    185. D(H  15,C   6,N   3,C   2)     41.9444         0.018479   
    186. D(C   7,C   6,N   3,C   4)    120.2510         0.018479   
    187. D(C   7,C   6,N   3,C   2)    -75.8413         0.018479   
    188. D(H  15,C   6,N   3,C   4)   -121.9633         0.018479   
    189. D(C  25,C   6,N   3,C   4)     -5.7285         0.018479   
    190. D(C  25,C   6,N   3,C   2)    158.1791         0.018479   
    191. D(O   9,C   7,C   6,C  25)    -61.5981         0.011352   
    192. D(O   9,C   7,C   6,N   3)    177.1640         0.011352   
    193. D(O   9,C   7,C   6,H  15)     56.7802         0.011352   
    194. D(O   8,C   7,C   6,C  25)    121.0003         0.011352   
    195. D(O   8,C   7,C   6,H  15)   -120.6214         0.011352   
    196. D(O   8,C   7,C   6,N   3)     -0.2376         0.011352   
    197. D(C  10,O   9,C   7,O   8)     -3.8761         0.037866   
    198. D(C  10,O   9,C   7,C   6)    178.6945         0.037866   
    199. D(H  49,C  10,O   9,C   7)     61.0290         0.018348   
    200. D(H  17,C  10,O   9,C   7)   -179.4934         0.018348   
    201. D(H  16,C  10,O   9,C   7)    -60.2294         0.018348   
    202. D(H  36,C  19,C  18,N  50)     -0.0671         0.028037   
    203. D(H  36,C  19,C  18,C  23)    179.9330         0.028037   
    204. D(C  20,C  19,C  18,N  50)    179.4877         0.028037   
    205. D(C  20,C  19,C  18,C  23)     -0.5122         0.028037   
    206. D(H  37,C  20,C  19,H  36)      0.4121         0.029557   
    207. D(H  37,C  20,C  19,C  18)   -179.1394         0.029557   
    208. D(C  21,C  20,C  19,C  18)     -0.0608         0.029557   
    209. D(C  21,C  20,C  19,H  36)    179.4908         0.029557   
    210. D(C  24,C  21,C  20,H  37)      2.1678         0.026046   
    211. D(C  24,C  21,C  20,C  19)   -176.8994         0.026046   
    212. D(C  22,C  21,C  20,H  37)    179.7908         0.026046   
    213. D(C  22,C  21,C  20,C  19)      0.7236         0.026046   
    214. D(H  38,C  22,C  21,C  24)     -2.8488         0.027176   
    215. D(H  38,C  22,C  21,C  20)    179.6295         0.027176   
    216. D(C  23,C  22,C  21,C  24)    176.6863         0.027176   
    217. D(C  23,C  22,C  21,C  20)     -0.8354         0.027176   
    218. D(C  22,C  23,C  18,N  50)   -179.5978         0.028824   
    219. D(C  22,C  23,C  18,C  19)      0.4021         0.028824   
    220. D(H  39,C  23,C  22,H  38)     -0.1863         0.028303   
    221. D(H  39,C  23,C  22,C  21)   -179.7357         0.028303   
    222. D(C  18,C  23,C  22,H  38)    179.8336         0.028303   
    223. D(C  18,C  23,C  22,C  21)      0.2841         0.028303   
    224. D(H  39,C  23,C  18,N  50)      0.4219         0.028824   
    225. D(H  39,C  23,C  18,C  19)   -179.5782         0.028824   
    226. D(N  34,C  24,C  21,C  22)    127.3244         0.012288   
    227. D(N  34,C  24,C  21,C  20)    -55.1310         0.012288   
    228. D(C  25,C  24,C  21,C  22)   -109.8583         0.012288   
    229. D(C  25,C  24,C  21,C  20)     67.6863         0.012288   
    230. D(C   4,C  24,C  21,C  22)      8.5460         0.012288   
    231. D(C   4,C  24,C  21,C  20)   -173.9094         0.012288   
    232. D(N  34,C  24,C   4,H  13)   -165.7827         0.009023   
    233. D(N  34,C  24,C   4,C   5)    -44.6289         0.009023   
    234. D(N  34,C  24,C   4,N   3)     79.7437         0.009023   
    235. D(C  25,C  24,C   4,H  13)     79.0248         0.009023   
    236. D(C  25,C  24,C   4,C   5)   -159.8214         0.009023   
    237. D(C  25,C  24,C   4,N   3)    -35.4488         0.009023   
    238. D(C  21,C  24,C   4,H  13)    -45.6573         0.009023   
    239. D(C  21,C  24,C   4,C   5)     75.4965         0.009023   
    240. D(C  21,C  24,C   4,N   3)   -160.1308         0.009023   
    241. D(H  40,C  25,C  24,N  34)     36.6037         0.009603   
    242. D(H  40,C  25,C  24,C  21)    -84.9864         0.009603   
    243. D(H  40,C  25,C  24,C   4)    148.2575         0.009603   
    244. D(C  26,C  25,C  24,N  34)    155.5793         0.009603   
    245. D(C  26,C  25,C  24,C  21)     33.9892         0.009603   
    246. D(C  26,C  25,C  24,C   4)    -92.7669         0.009603   
    247. D(C   6,C  25,C  24,N  34)    -79.3159         0.009603   
    248. D(C   6,C  25,C  24,C  21)    159.0939         0.009603   
    249. D(C   6,C  25,C  24,C   4)     32.3378         0.009603   
    250. D(H  40,C  25,C   6,H  15)    -16.0606         0.009745   
    251. D(H  40,C  25,C   6,C   7)    100.7058         0.009745   
    252. D(H  40,C  25,C   6,N   3)   -133.4888         0.009745   
    253. D(C  26,C  25,C   6,H  15)   -138.1084         0.009745   
    254. D(C  26,C  25,C   6,C   7)    -21.3419         0.009745   
    255. D(C  26,C  25,C   6,N   3)    104.4634         0.009745   
    256. D(C  24,C  25,C   6,H  15)     99.8089         0.009745   
    257. D(C  24,C  25,C   6,C   7)   -143.4246         0.009745   
    258. D(C  24,C  25,C   6,N   3)    -17.6193         0.009745   
    259. D(C  31,C  26,C  25,H  40)     14.6470         0.012079   
    260. D(C  31,C  26,C  25,C  24)   -104.6391         0.012079   
    261. D(C  31,C  26,C  25,C   6)    137.0081         0.012079   
    262. D(C  27,C  26,C  25,H  40)   -166.7875         0.012079   
    263. D(C  27,C  26,C  25,C  24)     73.9264         0.012079   
    264. D(C  27,C  26,C  25,C   6)    -44.4264         0.012079   
    265. D(H  41,C  27,C  26,C  31)   -178.9427         0.027406   
    266. D(H  41,C  27,C  26,C  25)      2.4823         0.027406   
    267. D(C  28,C  27,C  26,C  31)      0.6615         0.027406   
    268. D(C  28,C  27,C  26,C  25)   -177.9135         0.027406   
    269. D(H  42,C  28,C  27,H  41)     -0.4859         0.027558   
    270. D(H  42,C  28,C  27,C  26)    179.9048         0.027558   
    271. D(C  29,C  28,C  27,H  41)    179.6193         0.027558   
    272. D(C  29,C  28,C  27,C  26)      0.0100         0.027558   
    273. D(H  43,C  29,C  28,H  42)     -0.1104         0.028401   
    274. D(H  43,C  29,C  28,C  27)    179.7836         0.028401   
    275. D(C  30,C  29,C  28,H  42)    179.6234         0.028401   
    276. D(C  30,C  29,C  28,C  27)     -0.4826         0.028401   
    277. D(H  44,C  30,C  29,H  43)      0.1065         0.027550   
    278. D(H  44,C  30,C  29,C  28)   -179.6305         0.027550   
    279. D(C  31,C  30,C  29,H  43)   -179.9984         0.027550   
    280. D(C  31,C  30,C  29,C  28)      0.2647         0.027550   
    281. D(O  32,C  31,C  26,C  25)     -2.1119         0.024163   
    282. D(C  30,C  31,C  26,C  27)     -0.8748         0.024163   
    283. D(C  30,C  31,C  26,C  25)    177.7571         0.024163   
    284. D(O  32,C  31,C  30,H  44)      0.1802         0.026859   
    285. D(O  32,C  31,C  30,C  29)   -179.7141         0.026859   
    286. D(C  26,C  31,C  30,H  44)   -179.6795         0.026859   
    287. D(C  26,C  31,C  30,C  29)      0.4262         0.026859   
    288. D(O  32,C  31,C  26,C  27)    179.2562         0.024163   
    289. D(C  33,O  32,C  31,C  30)     -4.4842         0.031203   
    290. D(C  33,O  32,C  31,C  26)    175.3806         0.031203   
    291. D(H  47,C  33,O  32,C  31)     63.3528         0.020675   
    292. D(H  46,C  33,O  32,C  31)   -177.7086         0.020675   
    293. D(H  45,C  33,O  32,C  31)    -58.8501         0.020675   
    294. D(O  48,N  34,C  24,C  25)   -163.7487         0.010840   
    295. D(O  48,N  34,C  24,C  21)    -38.8060         0.010840   
    296. D(O  48,N  34,C  24,C   4)     87.0049         0.010840   
    297. D(O  35,N  34,C  24,C  25)     21.5683         0.010840   
    298. D(O  35,N  34,C  24,C  21)    146.5110         0.010840   
    299. D(O  35,N  34,C  24,C   4)    -87.6781         0.010840   
    300. D(O  52,N  50,C  18,C  23)   -178.5695         0.014905   
    301. D(O  52,N  50,C  18,C  19)      1.4307         0.014905   
    302. D(O  51,N  50,C  18,C  23)      1.4731         0.014905   
    303. D(O  51,N  50,C  18,C  19)   -178.5267         0.014905   
    -----------------------------------------------------------------

Number of atoms                         .... 54
Number of degrees of freedom            .... 303

         *************************************************************
         *                GEOMETRY OPTIMIZATION CYCLE   1            *
         *************************************************************
---------------------------------
CARTESIAN COORDINATES (ANGSTROEM)
---------------------------------
  C      2.584825    3.588378   -1.272139
  C      3.839130    2.876970   -1.280626
  C      3.828057    1.574776   -0.934024
  N      2.675791    0.896585   -0.685710
  C      1.358437    1.494054   -0.811836
  C      1.422700    2.970578   -1.023802
  C      2.653637   -0.328841    0.070813
  C      3.150392   -1.537436   -0.701417
  O      3.534253   -1.529760   -1.842386
  O      3.152431   -2.602069    0.087637
  C      3.570945   -3.832991   -0.509042
  H      2.586334    4.658234   -1.451881
  H      4.734367    0.990912   -0.823047
  H      0.808721    1.023247   -1.640066
  H      0.486476    3.513820   -0.995535
  H      3.320303   -0.244412    0.933711
  H      2.912359   -4.088703   -1.339633
  H      3.498629   -4.580142    0.276646
  C     -3.647426    0.914410    0.432181
  C     -2.964041    0.610527    1.598311
  C     -1.586275    0.657266    1.583785
  C     -0.893099    1.000927    0.423240
  C     -1.606965    1.313962   -0.726847
  C     -2.990405    1.269708   -0.730378
  C      0.612689    0.964737    0.453403
  C      1.201967   -0.463729    0.595994
  C      0.340966   -1.477568   -0.116594
  C      0.305474   -1.595720   -1.499371
  C     -0.526465   -2.507383   -2.133469
  C     -1.343801   -3.321656   -1.369545
  C     -1.324720   -3.234975    0.015212
  C     -0.484685   -2.321846    0.643707
  O     -0.409920   -2.186946    1.984187
  C     -1.294364   -2.945634    2.786430
  N      1.080202    1.841557    1.595888
  O      2.084576    1.521199    2.192285
  H     -3.504225    0.336719    2.493555
  H     -1.044418    0.407394    2.487379
  H     -1.103259    1.590527   -1.642705
  H     -3.550888    1.508087   -1.623315
  H      1.233303   -0.725110    1.650132
  H      0.944315   -0.969216   -2.109379
  H     -0.532376   -2.574528   -3.214409
  H     -2.003570   -4.037955   -1.845725
  H     -1.964643   -3.881929    0.599487
  H     -2.336164   -2.720340    2.541052
  H     -1.090883   -2.653751    3.814549
  H     -1.115319   -4.017959    2.669292
  O      0.471507    2.871778    1.782563
  H      4.597903   -3.751408   -0.864831
  N     -5.104851    0.857481    0.431902
  O     -5.685855    1.100519   -0.606593
  O     -5.664326    0.568950    1.470649
  H      4.771290    3.377557   -1.497434

----------------------------
CARTESIAN COORDINATES (A.U.)
----------------------------
  NO LB      ZA    FRAG     MASS         X           Y           Z
   0 C     6.0000    0    12.011    4.884611    6.781052   -2.403994
   1 C     6.0000    0    12.011    7.254904    5.436685   -2.420032
   2 C     6.0000    0    12.011    7.233979    2.975895   -1.765050
   3 N     7.0000    0    14.007    5.056512    1.694300   -1.295804
   4 C     6.0000    0    12.011    2.567074    2.823353   -1.534148
   5 C     6.0000    0    12.011    2.688513    5.613579   -1.934705
   6 C     6.0000    0    12.011    5.014647   -0.621419    0.133817
   7 C     6.0000    0    12.011    5.953378   -2.905333   -1.325486
   8 O     8.0000    0    15.999    6.678770   -2.890827   -3.481605
   9 O     8.0000    0    15.999    5.957231   -4.917198    0.165610
  10 C     6.0000    0    12.011    6.748108   -7.243303   -0.961950
  11 H     1.0000    0     1.008    4.887463    8.802787   -2.743657
  12 H     1.0000    0     1.008    8.946657    1.872552   -1.555333
  13 H     1.0000    0     1.008    1.528261    1.933657   -3.099276
  14 H     1.0000    0     1.008    0.919306    6.640157   -1.881289
  15 H     1.0000    0     1.008    6.274463   -0.461872    1.764458
  16 H     1.0000    0     1.008    5.503561   -7.726529   -2.531539
  17 H     1.0000    0     1.008    6.611451   -8.655214    0.522785
  18 C     6.0000    0    12.011   -6.892636    1.727984    0.816704
  19 C     6.0000    0    12.011   -5.601226    1.153729    3.020370
  20 C     6.0000    0    12.011   -2.997625    1.242053    2.992920
  21 C     6.0000    0    12.011   -1.687713    1.891478    0.799808
  22 C     6.0000    0    12.011   -3.036724    2.483028   -1.373542
  23 C     6.0000    0    12.011   -5.651046    2.399400   -1.380214
  24 C     6.0000    0    12.011    1.157814    1.823089    0.856807
  25 C     6.0000    0    12.011    2.271388   -0.876321    1.126265
  26 C     6.0000    0    12.011    0.644332   -2.792199   -0.220331
  27 C     6.0000    0    12.011    0.577262   -3.015474   -2.833401
  28 C     6.0000    0    12.011   -0.994875   -4.738267   -4.031672
  29 C     6.0000    0    12.011   -2.539416   -6.277020   -2.588065
  30 C     6.0000    0    12.011   -2.503358   -6.113217    0.028747
  31 C     6.0000    0    12.011   -0.915922   -4.387653    1.216430
  32 O     8.0000    0    15.999   -0.774637   -4.132729    3.749570
  33 C     6.0000    0    12.011   -2.445993   -5.566442    5.265590
  34 N     7.0000    0    14.007    2.041286    3.480038    3.015791
  35 O     8.0000    0    15.999    3.939278    2.874650    4.142818
  36 H     1.0000    0     1.008   -6.622026    0.636307    4.712136
  37 H     1.0000    0     1.008   -1.973664    0.769863    4.700465
  38 H     1.0000    0     1.008   -2.084857    3.005660   -3.104263
  39 H     1.0000    0     1.008   -6.710206    2.849871   -3.067621
  40 H     1.0000    0     1.008    2.330605   -1.370259    3.118298
  41 H     1.0000    0     1.008    1.784497   -1.831553   -3.986149
  42 H     1.0000    0     1.008   -1.006045   -4.865153   -6.074353
  43 H     1.0000    0     1.008   -3.786199   -7.630629   -3.487915
  44 H     1.0000    0     1.008   -3.712637   -7.335783    1.132866
  45 H     1.0000    0     1.008   -4.414710   -5.140698    4.801892
  46 H     1.0000    0     1.008   -2.061470   -5.014863    7.208453
  47 H     1.0000    0     1.008   -2.107647   -7.592842    5.044231
  48 O     8.0000    0    15.999    0.891019    5.426874    3.368556
  49 H     1.0000    0     1.008    8.688777   -7.089134   -1.634294
  50 N     7.0000    0    14.007   -9.646770    1.620404    0.816176
  51 O     8.0000    0    15.999  -10.744709    2.079680   -1.146295
  52 O     8.0000    0    15.999  -10.704025    1.075160    2.779124
  53 H     1.0000    0     1.008    9.016431    6.382658   -2.829740

--------------------------------
INTERNAL COORDINATES (ANGSTROEM)
--------------------------------
 C      0   0   0     0.000000000000     0.00000000     0.00000000
 C      1   0   0     1.442031346628     0.00000000     0.00000000
 C      2   1   0     1.347577371200   117.90856257     0.00000000
 N      3   2   1     1.359896985008   122.40086052     5.35729952
 C      4   3   2     1.451998118164   123.20778647     2.06212002
 C      1   2   3     1.339359033715   121.88722516   355.29038235
 C      4   3   2     1.440307859703   122.22511791   199.89233684
 C      7   4   3     1.517829561232   113.90378100   284.15871008
 O      8   7   4     1.203834892025   125.55503376   359.76236670
 O      8   7   4     1.325161800357   109.71115388   177.16395927
 C     10   8   7     1.430506472310   116.32065399   178.69446067
 H      1   2   3     1.084850830474   118.96881217   173.99865844
 H      3   2   1     1.083794667419   122.68666885   185.93079028
 H      5   4   3     1.099914471586   110.04230413   113.36683585
 H      6   1   2     1.082786346436   121.57722752   178.52954355
 H      7   4   3     1.093693179096   109.83761118    41.94437299
 H     11  10   8     1.090415313365   110.04814413   299.77056406
 H     11  10   8     1.086632345368   105.69943019   180.50657320
 C     14   5   4     4.915617886613    98.34348371   141.45789260
 C     19  14   5     1.385358839007    84.98176133   321.72760600
 C     20  19  14     1.378635082084   118.46841731     6.85336348
 C     21  20  19     1.394797672396   120.91589033   359.93924930
 C     22  21  20     1.389350814139   119.26998517     0.72357694
 C     19  14   5     1.381830920093    37.68436215   131.48422777
 C     22  21  20     1.506524816793   118.30412551   183.10061689
 C      7   4   3     1.549630809001   105.45486648   158.17914389
 C     26   7   4     1.508964511732   115.65554503   104.46343180
 C     27  26   7     1.388269357472   122.82925833   315.57364754
 C     28  27  26     1.387563403558   121.76420395   182.08650002
 C     29  28  27     1.383711867840   119.24202029     0.00000000
 C     30  29  28     1.387598511592   120.40235989   359.51737431
 C     31  30  29     1.390852018329   120.01784112     0.26472264
 O     32  31  30     1.349323699349   123.23116955   180.28591711
 C     33  32  31     1.414723471753   118.36553312   355.51575845
 N     25  22  21     1.514151145954   108.04763763   304.86899021
 O     35  25  22     1.211233157426   118.31998380   146.51102036
 H     20  19  14     1.080847535157   120.41363261   187.29856137
 H     21  20  19     1.082832924171   118.91265453   180.86056417
 H     23  22  21     1.081204795506   121.29575305   179.62950115
 H     24  19  14     1.080880301837   120.34351079   168.36345413
 H     26   7   4     1.086512261827   108.82820054   226.51118047
 H     28  27  26     1.082928827468   119.78504561     2.48229108
 H     29  28  27     1.083039553546   120.00704731   179.90478040
 H     30  29  28     1.084032648568   120.38696130   179.78357467
 H     31  30  29     1.081401035541   119.58266447   180.36954009
 H     34  33  32     1.093761852196   110.96451075   301.14993060
 H     34  33  32     1.087947094858   105.96669575   182.29142225
 H     34  33  32     1.093462083793   111.27223411    63.35277483
 O     35  25  22     1.211079050884   116.98284660   321.19398955
 H     11  10   8     1.089901065315   110.32957748    61.02899109
 N     19  14   5     1.458536464922   155.04251135   157.14145268
 O     51  19  14     1.214538999985   118.05783735   343.85527885
 O     51  19  14     1.214601886873   117.99416259   163.81266402
 H      2   1   3     1.080053387122   121.54985183   183.69644928

---------------------------
INTERNAL COORDINATES (A.U.)
---------------------------
 C      0   0   0     0.000000000000     0.00000000     0.00000000
 C      1   0   0     2.725044321657     0.00000000     0.00000000
 C      2   1   0     2.546552175837   117.90856257     0.00000000
 N      3   2   1     2.569832872010   122.40086052     5.35729952
 C      4   3   2     2.743878790300   123.20778647     2.06212002
 C      1   2   3     2.531021768715   121.88722516   355.29038235
 C      4   3   2     2.721787403372   122.22511791   199.89233684
 C      7   4   3     2.868282188699   113.90378100   284.15871008
 O      8   7   4     2.274918256387   125.55503376   359.76236670
 O      8   7   4     2.504192885809   109.71115388   177.16395927
 C     10   8   7     2.703265465468   116.32065399   178.69446067
 H      1   2   3     2.050070965754   118.96881217   173.99865844
 H      3   2   1     2.048075106825   122.68666885   185.93079028
 H      5   4   3     2.078537122035   110.04230413   113.36683585
 H      6   1   2     2.046169656314   121.57722752   178.52954355
 H      7   4   3     2.066780583029   109.83761118    41.94437299
 H     11  10   8     2.060586314494   110.04814413   299.77056406
 H     11  10   8     2.053437541007   105.69943019   180.50657320
 C     14   5   4     9.289171584703    98.34348371   141.45789260
 C     19  14   5     2.617948802930    84.98176133   321.72760600
 C     20  19  14     2.605242743755   118.46841731     6.85336348
 C     21  20  19     2.635785613060   120.91589033   359.93924930
 C     22  21  20     2.625492542664   119.26998517     0.72357694
 C     19  14   5     2.611282002361    37.68436215   131.48422777
 C     22  21  20     2.846919317695   118.30412551   183.10061689
 C      7   4   3     2.928377837699   105.45486648   158.17914389
 C     26   7   4     2.851529672979   115.65554503   104.46343180
 C     27  26   7     2.623448885738   122.82925833   315.57364754
 C     28  27  26     2.622114826177   121.76420395   182.08650002
 C     29  28  27     2.614836478474   119.24202029     0.00000000
 C     30  29  28     2.622181170745   120.40235989   359.51737431
 C     31  30  29     2.628329407454   120.01784112     0.26472264
 O     32  31  30     2.549852257779   123.23116955   180.28591711
 C     33  32  31     2.673439916844   118.36553312   355.51575845
 N     25  22  21     2.861330991216   108.04763763   304.86899021
 O     35  25  22     2.288898951861   118.31998380   146.51102036
 H     20  19  14     2.042505833971   120.41363261   187.29856137
 H     21  20  19     2.046257675477   118.91265453   180.86056417
 H     23  22  21     2.043180958189   121.29575305   179.62950115
 H     24  19  14     2.042567754022   120.34351079   168.36345413
 H     26   7   4     2.053210616001   108.82820054   226.51118047
 H     28  27  26     2.046438906443   119.78504561     2.48229108
 H     29  28  27     2.046648148407   120.00704731   179.90478040
 H     30  29  28     2.048524826023   120.38696130   179.78357467
 H     31  30  29     2.043551798112   119.58266447   180.36954009
 H     34  33  32     2.066910356382   110.96451075   301.14993060
 H     34  33  32     2.055922057478   105.96669575   182.29142225
 H     34  33  32     2.066343876197   111.27223411    63.35277483
 O     35  25  22     2.288607732701   116.98284660   321.19398955
 H     11  10   8     2.059614526514   110.32957748    61.02899109
 N     19  14   5     2.756234475040   155.04251135   157.14145268
 O     51  19  14     2.295146088939   118.05783735   343.85527885
 O     51  19  14     2.295264927934   117.99416259   163.81266402
 H      2   1   3     2.041005111674   121.54985183   183.69644928

---------------------
BASIS SET INFORMATION
---------------------
There are 4 groups of distinct atoms

 Group   1 Type C   : 11s6p2d1f contracted to 5s3p2d1f pattern {62111/411/11/1}
 Group   2 Type N   : 11s6p2d1f contracted to 5s3p2d1f pattern {62111/411/11/1}
 Group   3 Type O   : 11s6p2d1f contracted to 5s3p2d1f pattern {62111/411/11/1}
 Group   4 Type H   : 5s1p contracted to 3s1p pattern {311/1}

Atom   0C    basis set group =>   1
Atom   1C    basis set group =>   1
Atom   2C    basis set group =>   1
Atom   3N    basis set group =>   2
Atom   4C    basis set group =>   1
Atom   5C    basis set group =>   1
Atom   6C    basis set group =>   1
Atom   7C    basis set group =>   1
Atom   8O    basis set group =>   3
Atom   9O    basis set group =>   3
Atom  10C    basis set group =>   1
Atom  11H    basis set group =>   4
Atom  12H    basis set group =>   4
Atom  13H    basis set group =>   4
Atom  14H    basis set group =>   4
Atom  15H    basis set group =>   4
Atom  16H    basis set group =>   4
Atom  17H    basis set group =>   4
Atom  18C    basis set group =>   1
Atom  19C    basis set group =>   1
Atom  20C    basis set group =>   1
Atom  21C    basis set group =>   1
Atom  22C    basis set group =>   1
Atom  23C    basis set group =>   1
Atom  24C    basis set group =>   1
Atom  25C    basis set group =>   1
Atom  26C    basis set group =>   1
Atom  27C    basis set group =>   1
Atom  28C    basis set group =>   1
Atom  29C    basis set group =>   1
Atom  30C    basis set group =>   1
Atom  31C    basis set group =>   1
Atom  32O    basis set group =>   3
Atom  33C    basis set group =>   1
Atom  34N    basis set group =>   2
Atom  35O    basis set group =>   3
Atom  36H    basis set group =>   4
Atom  37H    basis set group =>   4
Atom  38H    basis set group =>   4
Atom  39H    basis set group =>   4
Atom  40H    basis set group =>   4
Atom  41H    basis set group =>   4
Atom  42H    basis set group =>   4
Atom  43H    basis set group =>   4
Atom  44H    basis set group =>   4
Atom  45H    basis set group =>   4
Atom  46H    basis set group =>   4
Atom  47H    basis set group =>   4
Atom  48O    basis set group =>   3
Atom  49H    basis set group =>   4
Atom  50N    basis set group =>   2
Atom  51O    basis set group =>   3
Atom  52O    basis set group =>   3
Atom  53H    basis set group =>   4
---------------------------------
AUXILIARY/J BASIS SET INFORMATION
---------------------------------
There are 4 groups of distinct atoms

 Group   1 Type C   : 12s5p4d2f1g contracted to 6s4p3d1f1g pattern {711111/2111/211/2/1}
 Group   2 Type N   : 12s5p4d2f1g contracted to 6s4p3d1f1g pattern {711111/2111/211/2/1}
 Group   3 Type O   : 12s5p4d2f1g contracted to 6s4p3d1f1g pattern {711111/2111/211/2/1}
 Group   4 Type H   : 5s2p1d contracted to 3s1p1d pattern {311/2/1}

Atom   0C    basis set group =>   1
Atom   1C    basis set group =>   1
Atom   2C    basis set group =>   1
Atom   3N    basis set group =>   2
Atom   4C    basis set group =>   1
Atom   5C    basis set group =>   1
Atom   6C    basis set group =>   1
Atom   7C    basis set group =>   1
Atom   8O    basis set group =>   3
Atom   9O    basis set group =>   3
Atom  10C    basis set group =>   1
Atom  11H    basis set group =>   4
Atom  12H    basis set group =>   4
Atom  13H    basis set group =>   4
Atom  14H    basis set group =>   4
Atom  15H    basis set group =>   4
Atom  16H    basis set group =>   4
Atom  17H    basis set group =>   4
Atom  18C    basis set group =>   1
Atom  19C    basis set group =>   1
Atom  20C    basis set group =>   1
Atom  21C    basis set group =>   1
Atom  22C    basis set group =>   1
Atom  23C    basis set group =>   1
Atom  24C    basis set group =>   1
Atom  25C    basis set group =>   1
Atom  26C    basis set group =>   1
Atom  27C    basis set group =>   1
Atom  28C    basis set group =>   1
Atom  29C    basis set group =>   1
Atom  30C    basis set group =>   1
Atom  31C    basis set group =>   1
Atom  32O    basis set group =>   3
Atom  33C    basis set group =>   1
Atom  34N    basis set group =>   2
Atom  35O    basis set group =>   3
Atom  36H    basis set group =>   4
Atom  37H    basis set group =>   4
Atom  38H    basis set group =>   4
Atom  39H    basis set group =>   4
Atom  40H    basis set group =>   4
Atom  41H    basis set group =>   4
Atom  42H    basis set group =>   4
Atom  43H    basis set group =>   4
Atom  44H    basis set group =>   4
Atom  45H    basis set group =>   4
Atom  46H    basis set group =>   4
Atom  47H    basis set group =>   4
Atom  48O    basis set group =>   3
Atom  49H    basis set group =>   4
Atom  50N    basis set group =>   2
Atom  51O    basis set group =>   3
Atom  52O    basis set group =>   3
Atom  53H    basis set group =>   4


           ************************************************************
           *        Program running with 24 parallel MPI-processes    *
           *              working on a common directory               *
           ************************************************************
------------------------------------------------------------------------------
                           ORCA GTO INTEGRAL CALCULATION
                           -- RI-GTO INTEGRALS CHOSEN --
------------------------------------------------------------------------------
------------------------------------------------------------------------------
                   ___                                                        
                  /   \      - P O W E R E D   B Y -                         
                 /     \                                                     
                 |  |  |   _    _      __       _____    __    __             
                 |  |  |  | |  | |    /  \     |  _  \  |  |  /  |          
                  \  \/   | |  | |   /    \    | | | |  |  | /  /          
                 / \  \   | |__| |  /  /\  \   | |_| |  |  |/  /          
                |  |  |   |  __  | /  /__\  \  |    /   |      \           
                |  |  |   | |  | | |   __   |  |    \   |  |\   \          
                \     /   | |  | | |  |  |  |  | |\  \  |  | \   \       
                 \___/    |_|  |_| |__|  |__|  |_| \__\ |__|  \__/        
                                                                              
                      - O R C A' S   B I G   F R I E N D -                    
                                      &                                       
                       - I N T E G R A L  F E E D E R -                       
                                                                              
 v1 FN, 2020, v2 2021                                                         
------------------------------------------------------------------------------


Reading SHARK input file 3_4-NO2Ph/3_4-NO2Ph.SHARKINP.tmp ... ok
----------------------
SHARK INTEGRAL PACKAGE
----------------------

Number of atoms                             ...     54
Number of basis functions                   ...   1149
Number of shells                            ...    447
Maximum angular momentum                    ...      3
Integral batch strategy                     ... SHARK/LIBINT Hybrid
RI-J (if used) integral strategy            ... SPLIT-RIJ (Revised 2003 algorithm where possible)
Printlevel                                  ...      1
Contraction scheme used                     ... SEGMENTED contraction
Coulomb Range Separation                    ... NOT USED
Exchange Range Separation                   ... NOT USED
Finite Nucleus Model                        ... NOT USED
Auxiliary Coulomb fitting basis             ... AVAILABLE
   # of basis functions in Aux-J            ...   1848
   # of shells in Aux-J                     ...    600
   Maximum angular momentum in Aux-J        ...      4
Auxiliary J/K fitting basis                 ... NOT available
Auxiliary Correlation fitting basis         ... NOT available
Auxiliary 'external' fitting basis          ... NOT available
Integral threshold                          ...     2.500000e-11
Primitive cut-off                           ...     2.500000e-12
Primitive pair pre-selection threshold      ...     2.500000e-12

Calculating pre-screening integrals         ... done (  0.1 sec) Dimension = 447
Organizing shell pair data                  ... done (  0.8 sec)
Shell pair information
Total number of shell pairs                 ...    100128
Shell pairs after pre-screening             ...     67338
Total number of primitive shell pairs       ...    310080
Primitive shell pairs kept                  ...    133559
          la=0 lb=0:  16852 shell pairs
          la=1 lb=0:  19432 shell pairs
          la=1 lb=1:   5591 shell pairs
          la=2 lb=0:   9628 shell pairs
          la=2 lb=1:   5652 shell pairs
          la=2 lb=2:   1443 shell pairs
          la=3 lb=0:   4451 shell pairs
          la=3 lb=1:   2674 shell pairs
          la=3 lb=2:   1293 shell pairs
          la=3 lb=3:    322 shell pairs

Calculating one electron integrals          ... done (  0.1 sec)
Calculating RI/J V-Matrix + Cholesky decomp.... done (  0.3 sec)
Calculating Nuclear repulsion               ... done (  0.0 sec) ENN=   3659.903805852365 Eh

SHARK setup successfully completed in   2.3 seconds

Maximum memory used throughout the entire GTOINT-calculation: 101.1 MB


           ************************************************************
           *        Program running with 24 parallel MPI-processes    *
           *              working on a common directory               *
           ************************************************************
-------------------------------------------------------------------------------
                                 ORCA SCF
-------------------------------------------------------------------------------

------------
SCF SETTINGS
------------
Hamiltonian:
 Density Functional     Method          .... DFT(GTOs)
 Exchange Functional    Exchange        .... PBE
   PBE kappa parameter   XKappa         ....  0.804000
   PBE mue parameter    XMuePBE         ....  0.219520
 Correlation Functional Correlation     .... PBE
   PBE beta parameter  CBetaPBE         ....  0.066725
 LDA part of GGA corr.  LDAOpt          .... PW91-LDA
 Gradients option       PostSCFGGA      .... off
 Hybrid DFT is turned on
   Fraction HF Exchange ScalHFX         ....  0.250000
   Scaling of DF-GGA-X  ScalDFX         ....  0.750000
   Scaling of DF-GGA-C  ScalDFC         ....  1.000000
   Scaling of DF-LDA-C  ScalLDAC        ....  1.000000
   Perturbative correction              ....  0.000000
   Density functional embedding theory  .... OFF
   NL short-range parameter             ....  6.900000
 RI-approximation to the Coulomb term is turned on
   Number of AuxJ basis functions       .... 1848
   RIJ-COSX (HFX calculated with COS-X)).... on


General Settings:
 Integral files         IntName         .... 3_4-NO2Ph/3_4-NO2Ph
 Hartree-Fock type      HFTyp           .... RHF
 Total Charge           Charge          ....    0
 Multiplicity           Mult            ....    1
 Number of Electrons    NEL             ....  236
 Basis Dimension        Dim             .... 1149
 Nuclear Repulsion      ENuc            ....   3659.9038058524 Eh

Convergence Acceleration:
 DIIS                   CNVDIIS         .... on
   Start iteration      DIISMaxIt       ....    12
   Startup error        DIISStart       ....  0.200000
   # of expansion vecs  DIISMaxEq       ....     5
   Bias factor          DIISBfac        ....   1.050
   Max. coefficient     DIISMaxC        ....  10.000
 Trust-Rad. Augm. Hess. CNVTRAH         .... auto
   Auto Start mean grad. ratio tolernc. ....  1.125000
   Auto Start start iteration           ....    20
   Auto Start num. interpolation iter.  ....    10
   Max. Number of Micro iterations      ....    16
   Max. Number of Macro iterations      .... Maxiter - #DIIS iter
   Number of Davidson start vectors     ....     2
   Converg. threshold I  (grad. norm)   ....   1.000e-05
   Converg. threshold II (energy diff.) ....   1.000e-08
   Grad. Scal. Fac. for Micro threshold ....   0.100
   Minimum threshold for Micro iter.    ....   0.010
   NR start threshold (gradient norm)   ....   0.001
   Initial trust radius                 ....   0.400
   Minimum AH scaling param. (alpha)    ....   1.000
   Maximum AH scaling param. (alpha)    .... 1000.000
   Orbital update algorithm             .... Taylor
   White noise on init. David. guess    .... on
   Maximum white noise                  ....   0.010
   Quad. conv. algorithm                .... NR
 SOSCF                  CNVSOSCF        .... on
   Start iteration      SOSCFMaxIt      ....   150
   Startup grad/error   SOSCFStart      ....  0.003300
 Level Shifting         CNVShift        .... on
   Level shift para.    LevelShift      ....    0.2500
   Turn off err/grad.   ShiftErr        ....    0.0010
 Zerner damping         CNVZerner       .... off
 Static damping         CNVDamp         .... on
   Fraction old density DampFac         ....    0.7000
   Max. Damping (<1)    DampMax         ....    0.9800
   Min. Damping (>=0)   DampMin         ....    0.0000
   Turn off err/grad.   DampErr         ....    0.1000
 Fernandez-Rico         CNVRico         .... off

SCF Procedure:
 Maximum # iterations   MaxIter         ....   800
 SCF integral mode      SCFMode         .... Direct
   Integral package                     .... SHARK and LIBINT hybrid scheme
 Reset frequency        DirectResetFreq ....    20
 Integral Threshold     Thresh          ....  2.500e-11 Eh
 Primitive CutOff       TCut            ....  2.500e-12 Eh

Convergence Tolerance:
 Convergence Check Mode ConvCheckMode   .... Total+1el-Energy
 Convergence forced     ConvForced      .... 0
 Energy Change          TolE            ....  1.000e-08 Eh
 1-El. energy change                    ....  1.000e-05 Eh
 Orbital Gradient       TolG            ....  1.000e-05
 Orbital Rotation angle TolX            ....  1.000e-05
 DIIS Error             TolErr          ....  5.000e-07


Diagonalization of the overlap matrix:
Smallest eigenvalue                        ... 4.448e-06
Time for diagonalization                   ...    0.245 sec
Threshold for overlap eigenvalues          ... 1.000e-08
Number of eigenvalues below threshold      ... 0
Time for construction of square roots      ...    0.208 sec
Total time needed                          ...    0.465 sec

Time for model grid setup =    0.479 sec

------------------------------
INITIAL GUESS: MODEL POTENTIAL
------------------------------
Loading Hartree-Fock densities                     ... done
Calculating cut-offs                               ... done
Initializing the effective Hamiltonian             ... done
Setting up the integral package (SHARK)            ... done
Starting the Coulomb interaction                   ... done (   0.7 sec)
Reading the grid                                   ... done
Mapping shells                                     ... done
Starting the XC term evaluation                    ... done (   0.3 sec)
  promolecular density results
     # of electrons  =    235.994701426
     EX              =   -200.714412087
     EC              =     -8.052214594
     EX+EC           =   -208.766626681
Transforming the Hamiltonian                       ... done (   0.1 sec)
Diagonalizing the Hamiltonian                      ... done (   0.2 sec)
Back transforming the eigenvectors                 ... done (   0.1 sec)
Now organizing SCF variables                       ... done
                      ------------------
                      INITIAL GUESS DONE (   2.2 sec)
                      ------------------
-------------------
DFT GRID GENERATION
-------------------

General Integration Accuracy     IntAcc      ... 4.388
Radial Grid Type                 RadialGrid  ... OptM3 with GC (2021)
Angular Grid (max. ang.)         AngularGrid ... 4 (Lebedev-302)
Angular grid pruning method      GridPruning ... 4 (adaptive)
Weight generation scheme         WeightScheme... Becke
Basis function cutoff            BFCut       ... 1.0000e-11
Integration weight cutoff        WCut        ... 1.0000e-14
Angular grids for H and He will be reduced by one unit
Partially contracted basis set               ... off
Rotationally invariant grid construction     ... off

Total number of grid points                  ...   262101
Total number of batches                      ...     4123
Average number of points per batch           ...       63
Average number of grid points per atom       ...     4854
Time for grid setup =    2.465 sec

--------------------
COSX GRID GENERATION
--------------------

GRIDX 1
-------
General Integration Accuracy     IntAcc      ... 3.816
Radial Grid Type                 RadialGrid  ... OptM3 with GC (2021)
Angular Grid (max. ang.)         AngularGrid ... 1 (Lebedev-50)
Angular grid pruning method      GridPruning ... 4 (adaptive)
Weight generation scheme         WeightScheme... Becke
Basis function cutoff            BFCut       ... 1.0000e-11
Integration weight cutoff        WCut        ... 1.0000e-14
Angular grids for H and He will be reduced by one unit
Partially contracted basis set               ... on
Rotationally invariant grid construction     ... off

Total number of grid points                  ...    33145
Total number of batches                      ...      543
Average number of points per batch           ...       61
Average number of grid points per atom       ...      614
UseSFitting                                  ... on

GRIDX 2
-------
General Integration Accuracy     IntAcc      ... 4.020
Radial Grid Type                 RadialGrid  ... OptM3 with GC (2021)
Angular Grid (max. ang.)         AngularGrid ... 2 (Lebedev-110)
Angular grid pruning method      GridPruning ... 4 (adaptive)
Weight generation scheme         WeightScheme... Becke
Basis function cutoff            BFCut       ... 1.0000e-11
Integration weight cutoff        WCut        ... 1.0000e-14
Angular grids for H and He will be reduced by one unit
Partially contracted basis set               ... on
Rotationally invariant grid construction     ... off

Total number of grid points                  ...    72152
Total number of batches                      ...     1154
Average number of points per batch           ...       62
Average number of grid points per atom       ...     1336
UseSFitting                                  ... on

GRIDX 3
-------
General Integration Accuracy     IntAcc      ... 4.338
Radial Grid Type                 RadialGrid  ... OptM3 with GC (2021)
Angular Grid (max. ang.)         AngularGrid ... 3 (Lebedev-194)
Angular grid pruning method      GridPruning ... 4 (adaptive)
Weight generation scheme         WeightScheme... Becke
Basis function cutoff            BFCut       ... 1.0000e-11
Integration weight cutoff        WCut        ... 1.0000e-14
Angular grids for H and He will be reduced by one unit
Partially contracted basis set               ... on
Rotationally invariant grid construction     ... off

Total number of grid points                  ...   157416
Total number of batches                      ...     2487
Average number of points per batch           ...       63
Average number of grid points per atom       ...     2915
UseSFitting                                  ... on

Time for X-Grid setup             =    3.876 sec


--------------------
CPCM SOLVATION MODEL
--------------------
CPCM parameters:
  Epsilon                                         ...      47.2000
  Refrac                                          ...       1.4790
  Rsolv                                           ...       1.3000
  Surface type                                    ... GAUSSIAN VDW
  Epsilon function type                           ...         CPCM
Radii:
 Radius for C  used is    3.8550 Bohr (=   2.0400 Ang.)
 Radius for N  used is    3.5149 Bohr (=   1.8600 Ang.)
 Radius for O  used is    3.4469 Bohr (=   1.8240 Ang.)
 Radius for H  used is    2.4944 Bohr (=   1.3200 Ang.)
Calculating surface                               ...        done! (  0.0s)
GEPOL surface points                              ...         2641
GEPOL Volume                                      ...    3308.0262
GEPOL Surface-area                                ...    1579.6076
Calculating surface distance matrix               ...        done! (  0.1s)
Performing Cholesky decomposition & store         ...        done! (  0.4s)
Overall time for CPCM initialization              ...                 0.5s
--------------
SCF ITERATIONS
--------------
ITER       Energy         Delta-E        Max-DP      RMS-DP      [F,P]     Damp
               ***  Starting incremental Fock matrix formation  ***
  0  -1577.7933461597   0.000000000000 0.08641531  0.00063798  0.2698502 0.7000
  1  -1578.1364294770  -0.343083317308 0.07601275  0.00051719  0.1107299 0.7000
                               ***Turning on DIIS***
  2  -1578.2694520959  -0.133022618804 0.10996834  0.00098630  0.0389464 0.0000
  3  -1578.4963938151  -0.226941719234 0.07067945  0.00039255  0.0530636 0.0000
  4  -1578.5342831529  -0.037889337857 0.02284832  0.00017178  0.0154127 0.0000
  5  -1578.5372065047  -0.002923351788 0.00997112  0.00005701  0.0044720 0.0000
                      *** Initiating the SOSCF procedure ***
                           *** Shutting down DIIS ***
                      *** Re-Reading the Fockian *** 
                      *** Removing any level shift *** 
ITER      Energy       Delta-E        Grad      Rot      Max-DP    RMS-DP
  6  -1578.53737701  -0.0001705047  0.000170  0.000170  0.003417  0.000019
               *** Restarting incremental Fock matrix formation ***
  7  -1578.53738871  -0.0000117014  0.000147  0.000855  0.003466  0.000032
  8  -1578.53738872  -0.0000000071  0.000218  0.000245  0.000661  0.000007
  9  -1578.53739201  -0.0000032958  0.000067  0.000209  0.000715  0.000007
 10  -1578.53739189   0.0000001270  0.000133  0.000169  0.000226  0.000001
 11  -1578.53739213  -0.0000002457  0.000030  0.000061  0.000479  0.000003
 12  -1578.53739211   0.0000000219  0.000030  0.000033  0.000249  0.000001
                  ***Gradient check signals convergence***
              ***Rediagonalizing the Fockian in SOSCF/NRSCF***

               *****************************************************
               *                     SUCCESS                       *
               *           SCF CONVERGED AFTER  13 CYCLES          *
               *****************************************************

Old exchange energy                            =    -51.054065992 Eh
New exchange energy                            =    -51.054092585 Eh
Exchange energy change after final integration =     -0.000026593 Eh
Total energy after final integration           =  -1578.537418715 Eh
Final COS-X integration done in                =    28.847 sec

----------------
TOTAL SCF ENERGY
----------------

Total Energy       :        -1578.53741871 Eh          -42954.18691 eV

Components:
Nuclear Repulsion  :         3659.90380585 Eh           99591.04567 eV
Electronic Energy  :        -5238.44122457 Eh         -142545.23258 eV
One Electron Energy:        -9434.44099685 Eh         -256724.19113 eV
Two Electron Energy:         4195.99977228 Eh          114178.95855 eV
Max COSX asymmetry :            0.00000279 Eh               0.00008 eV
CPCM Dielectric    :           -0.03473853 Eh              -0.94528 eV

Virial components:
Potential Energy   :        -3150.34394669 Eh          -85725.21698 eV
Kinetic Energy     :         1571.80652797 Eh           42771.03006 eV
Virial Ratio       :            2.00428226


DFT components:
N(Alpha)           :      117.999918716760 electrons
N(Beta)            :      117.999918716760 electrons
N(Total)           :      235.999837433519 electrons
E(X)               :     -152.952425597086 Eh       
E(C)               :       -8.031347660282 Eh       
E(XC)              :     -160.983773257368 Eh       
DFET-embed. en.    :        0.000000000000 Eh       
CPCM Solvation Model Properties:
Surface-charge          :           -0.03074354
Charge-correction       :            0.00005979 Eh               0.00163 eV
Free-energy (cav+disp)  :  This term is not implemented in the current solvation scheme

---------------
SCF CONVERGENCE
---------------

  Last Energy change         ...   -1.1925e-08  Tolerance :   1.0000e-08
  Last MAX-Density change    ...    2.2204e-15  Tolerance :   1.0000e-07
  Last RMS-Density change    ...    1.3134e-17  Tolerance :   5.0000e-09
  Last Orbital Gradient      ...    1.8190e-06  Tolerance :   1.0000e-05
  Last Orbital Rotation      ...    7.2074e-06  Tolerance :   1.0000e-05

             **** THE GBW FILE WAS UPDATED (3_4-NO2Ph/3_4-NO2Ph.gbw) ****
             **** DENSITY 3_4-NO2Ph/3_4-NO2Ph.scfp WAS UPDATED ****
             **** ENERGY FILE WAS UPDATED (3_4-NO2Ph/3_4-NO2Ph.en.tmp) ****
             **** THE GBW FILE WAS UPDATED (3_4-NO2Ph/3_4-NO2Ph.gbw) ****
             **** DENSITY 3_4-NO2Ph/3_4-NO2Ph.scfp WAS UPDATED ****
----------------
ORBITAL ENERGIES
----------------

  NO   OCC          E(Eh)            E(eV) 
   0   2.0000     -19.265647      -524.2449 
   1   2.0000     -19.256700      -524.0015 
   2   2.0000     -19.255428      -523.9668 
   3   2.0000     -19.251031      -523.8472 
   4   2.0000     -19.250948      -523.8449 
   5   2.0000     -19.247778      -523.7587 
   6   2.0000     -19.207249      -522.6558 
   7   2.0000     -14.635172      -398.2433 
   8   2.0000     -14.628809      -398.0701 
   9   2.0000     -14.425352      -392.5338 
  10   2.0000     -10.361327      -281.9461 
  11   2.0000     -10.317517      -280.7539 
  12   2.0000     -10.294566      -280.1294 
  13   2.0000     -10.294257      -280.1210 
  14   2.0000     -10.294057      -280.1155 
  15   2.0000     -10.287288      -279.9313 
  16   2.0000     -10.273040      -279.5436 
  17   2.0000     -10.271571      -279.5037 
  18   2.0000     -10.267764      -279.4001 
  19   2.0000     -10.267555      -279.3944 
  20   2.0000     -10.265109      -279.3278 
  21   2.0000     -10.256759      -279.1006 
  22   2.0000     -10.255938      -279.0783 
  23   2.0000     -10.252498      -278.9847 
  24   2.0000     -10.250796      -278.9383 
  25   2.0000     -10.245289      -278.7885 
  26   2.0000     -10.233574      -278.4697 
  27   2.0000     -10.231670      -278.4179 
  28   2.0000     -10.231420      -278.4111 
  29   2.0000     -10.227785      -278.3122 
  30   2.0000     -10.226070      -278.2655 
  31   2.0000     -10.223759      -278.2026 
  32   2.0000     -10.208665      -277.7919 
  33   2.0000      -1.288904       -35.0729 
  34   2.0000      -1.286236       -35.0003 
  35   2.0000      -1.156290       -31.4643 
  36   2.0000      -1.111362       -30.2417 
  37   2.0000      -1.110031       -30.2055 
  38   2.0000      -1.105188       -30.0737 
  39   2.0000      -1.064980       -28.9796 
  40   2.0000      -1.021628       -27.7999 
  41   2.0000      -0.936221       -25.4759 
  42   2.0000      -0.907589       -24.6968 
  43   2.0000      -0.887556       -24.1516 
  44   2.0000      -0.859934       -23.4000 
  45   2.0000      -0.835919       -22.7465 
  46   2.0000      -0.814162       -22.1545 
  47   2.0000      -0.804827       -21.9004 
  48   2.0000      -0.790664       -21.5151 
  49   2.0000      -0.785784       -21.3823 
  50   2.0000      -0.779992       -21.2247 
  51   2.0000      -0.749370       -20.3914 
  52   2.0000      -0.735095       -20.0029 
  53   2.0000      -0.723397       -19.6846 
  54   2.0000      -0.708825       -19.2881 
  55   2.0000      -0.676519       -18.4090 
  56   2.0000      -0.659553       -17.9473 
  57   2.0000      -0.648052       -17.6344 
  58   2.0000      -0.640867       -17.4389 
  59   2.0000      -0.625148       -17.0111 
  60   2.0000      -0.620366       -16.8810 
  61   2.0000      -0.606167       -16.4947 
  62   2.0000      -0.598667       -16.2906 
  63   2.0000      -0.594737       -16.1836 
  64   2.0000      -0.587343       -15.9824 
  65   2.0000      -0.578413       -15.7394 
  66   2.0000      -0.574029       -15.6201 
  67   2.0000      -0.563350       -15.3295 
  68   2.0000      -0.555799       -15.1241 
  69   2.0000      -0.553053       -15.0493 
  70   2.0000      -0.548751       -14.9323 
  71   2.0000      -0.534520       -14.5450 
  72   2.0000      -0.523812       -14.2537 
  73   2.0000      -0.518324       -14.1043 
  74   2.0000      -0.513886       -13.9835 
  75   2.0000      -0.507101       -13.7989 
  76   2.0000      -0.504467       -13.7272 
  77   2.0000      -0.496944       -13.5225 
  78   2.0000      -0.493052       -13.4166 
  79   2.0000      -0.486476       -13.2377 
  80   2.0000      -0.483778       -13.1643 
  81   2.0000      -0.479588       -13.0502 
  82   2.0000      -0.468035       -12.7359 
  83   2.0000      -0.463480       -12.6119 
  84   2.0000      -0.461603       -12.5608 
  85   2.0000      -0.458496       -12.4763 
  86   2.0000      -0.446693       -12.1551 
  87   2.0000      -0.436655       -11.8820 
  88   2.0000      -0.434370       -11.8198 
  89   2.0000      -0.427129       -11.6228 
  90   2.0000      -0.420611       -11.4454 
  91   2.0000      -0.415061       -11.2944 
  92   2.0000      -0.408334       -11.1113 
  93   2.0000      -0.401492       -10.9252 
  94   2.0000      -0.396048       -10.7770 
  95   2.0000      -0.391068       -10.6415 
  96   2.0000      -0.384864       -10.4727 
  97   2.0000      -0.380657       -10.3582 
  98   2.0000      -0.377214       -10.2645 
  99   2.0000      -0.367507       -10.0004 
 100   2.0000      -0.361774        -9.8444 
 101   2.0000      -0.357211        -9.7202 
 102   2.0000      -0.350256        -9.5309 
 103   2.0000      -0.347396        -9.4531 
 104   2.0000      -0.346942        -9.4408 
 105   2.0000      -0.344461        -9.3733 
 106   2.0000      -0.343416        -9.3448 
 107   2.0000      -0.336262        -9.1502 
[...]
 70:    881.81   0.007486   37.83  0.002649  (-0.037901 -0.002189 -0.034756)
 71:    889.53   0.006803   34.38  0.002387  ( 0.043343  0.021878 -0.005408)
 72:    892.56   0.012286   62.09  0.004296  (-0.050014  0.034904  0.023999)
 73:    940.00   0.002461   12.44  0.000817  (-0.003113  0.028143  0.003912)
 74:    945.13   0.003551   17.94  0.001172  ( 0.023821 -0.022932  0.008890)
 75:    966.79   0.004606   23.28  0.001487  (-0.028867  0.017415  0.018711)
 76:    971.90   0.002722   13.75  0.000874  ( 0.021574 -0.020093  0.002157)
 77:    985.97   0.006475   32.72  0.002050  (-0.015580  0.014465  0.039969)
 78:    993.74   0.000787    3.97  0.000247  ( 0.006798 -0.013987  0.002268)
 79:    996.98   0.000284    1.43  0.000089  (-0.006448  0.006752 -0.001255)
 80:   1001.04   0.001388    7.02  0.000433  ( 0.007089 -0.006299 -0.018518)
 81:   1007.40   0.000438    2.21  0.000136  ( 0.007818 -0.003141 -0.008044)
 82:   1009.80   0.003584   18.11  0.001108  (-0.030195 -0.009555  0.010229)
 83:   1034.14   0.002087   10.55  0.000630  (-0.022721  0.010340 -0.002580)
 84:   1038.43   0.002043   10.33  0.000614  (-0.003803 -0.023534 -0.006762)
 85:   1049.38   0.010783   54.49  0.003207  ( 0.020590 -0.051015 -0.013422)
 86:   1061.42   0.001414    7.15  0.000416  (-0.006118  0.012083  0.015241)
 87:   1065.28   0.005519   27.89  0.001617  (-0.010555  0.015581  0.035531)
 88:   1076.13   0.010245   51.77  0.002971  ( 0.033738  0.037505 -0.020642)
 89:   1092.24   0.004711   23.81  0.001346  (-0.002441 -0.016589  0.032630)
 90:   1122.42   0.003681   18.60  0.001023  ( 0.005813 -0.031140 -0.004468)
 91:   1142.12   0.019000   96.02  0.005191  (-0.046506 -0.009580  0.054192)
 92:   1142.74   0.018153   91.74  0.004957  ( 0.070230 -0.004939  0.000790)
 93:   1146.07   0.002372   11.99  0.000646  (-0.010589 -0.003731 -0.022798)
 94:   1155.36   0.006404   32.36  0.001730  ( 0.018340 -0.035615  0.011175)
 95:   1170.50   0.000269    1.36  0.000072  (-0.007391  0.002471 -0.003311)
 96:   1170.97   0.000202    1.02  0.000054  ( 0.004689 -0.005008  0.002598)
 97:   1177.93   0.001181    5.97  0.000313  ( 0.008284  0.013740 -0.007451)
 98:   1196.89   0.000975    4.93  0.000254  (-0.013620  0.006086  0.005628)
 99:   1201.30   0.000234    1.18  0.000061  ( 0.007611  0.001679  0.000320)
100:   1207.40   0.007209   36.43  0.001863  ( 0.004806 -0.042526  0.005635)
101:   1218.98   0.004127   20.86  0.001057  ( 0.005425  0.030831 -0.008757)
102:   1224.53   0.003631   18.35  0.000925  (-0.005345  0.029837 -0.002537)
103:   1230.49   0.049704  251.18  0.012605  ( 0.029288 -0.107899  0.010262)
104:   1254.43   0.024295  122.78  0.006044  (-0.016282 -0.073297  0.020159)
105:   1271.20   0.058433  295.29  0.014344  ( 0.037251 -0.111109  0.024732)
106:   1293.16   0.003841   19.41  0.000927  ( 0.012264 -0.026281  0.009258)
107:   1299.11   0.009067   45.82  0.002178  ( 0.018441  0.033432 -0.026837)
108:   1304.04   0.069205  349.73  0.016561  ( 0.016553  0.030351 -0.123959)
109:   1318.21   0.016749   84.64  0.003965  (-0.031562  0.004775  0.054278)
110:   1331.85   0.002703   13.66  0.000633  ( 0.005593  0.023218  0.007944)
111:   1339.42   0.001310    6.62  0.000305  (-0.015351  0.002336 -0.008002)
112:   1342.23   0.006589   33.30  0.001532  (-0.019459 -0.019530 -0.027782)
113:   1350.04   0.048254  243.86  0.011154  ( 0.017681  0.095031 -0.042549)
114:   1380.31   0.005474   27.66  0.001238  ( 0.007772 -0.020612 -0.027427)
115:   1383.77   0.006166   31.16  0.001391  (-0.032608 -0.009303  0.015516)
116:   1388.50   0.012136   61.33  0.002727  ( 0.037612 -0.010252  0.034752)
117:   1392.77   0.005291   26.74  0.001185  (-0.031847 -0.010983  0.007113)
118:   1420.79   0.158416  800.57  0.034795  ( 0.186271  0.009286 -0.003405)
119:   1431.99   0.009821   49.63  0.002140  (-0.015416 -0.018671  0.039421)
120:   1441.32   0.041097  207.69  0.008898  ( 0.005294  0.061727  0.071132)
121:   1454.27   0.001950    9.86  0.000418  (-0.002335 -0.000608  0.020314)
122:   1465.78   0.006442   32.55  0.001371  (-0.003742  0.006078  0.036338)
123:   1465.99   0.004456   22.52  0.000948  ( 0.027614  0.001929  0.013497)
124:   1468.09   0.007354   37.17  0.001563  ( 0.011829 -0.037547 -0.003681)
125:   1472.94   0.003764   19.02  0.000797  (-0.000726 -0.015610  0.023519)
126:   1473.93   0.002994   15.13  0.000634  (-0.016506  0.018574  0.004058)
127:   1484.10   0.003847   19.44  0.000809  (-0.004313  0.001279 -0.028083)
128:   1492.52   0.023267  117.58  0.004865  (-0.054679 -0.040661  0.014889)
129:   1499.08   0.014381   72.68  0.002994  (-0.010814 -0.001029  0.053626)
130:   1540.79   0.035503  179.42  0.007191  ( 0.002851 -0.003019 -0.084696)
131:   1545.21   0.001633    8.25  0.000330  (-0.017720  0.002807 -0.002831)
132:   1608.17   0.101973  515.33  0.019788  ( 0.005550  0.039517 -0.134890)
133:   1626.46   0.013432   67.88  0.002577  (-0.016792 -0.044472 -0.017815)
134:   1642.54   0.161680  817.07  0.030717  (-0.125372  0.116026 -0.039205)
135:   1648.35   0.009018   45.58  0.001707  ( 0.001732 -0.028187  0.030164)
136:   1665.68   0.014363   72.59  0.002691  (-0.006877  0.000425 -0.051415)
137:   1669.56   0.008464   42.77  0.001582  (-0.034389 -0.005738  0.019145)
138:   1672.92   0.016077   81.25  0.002999  ( 0.006451  0.007737 -0.053829)
139:   1708.68   0.030936  156.34  0.005650  (-0.039407 -0.060215  0.021708)
140:   1799.84   0.093014  470.05  0.016127  ( 0.048016  0.027685 -0.114259)
141:   2978.32   0.015572   78.69  0.001632  (-0.036102 -0.015564 -0.009273)
142:   3037.69   0.012274   62.03  0.001261  (-0.019822 -0.018947  0.022561)
143:   3071.50   0.008995   45.46  0.000914  ( 0.010875 -0.027809 -0.004723)
144:   3074.01   0.003817   19.29  0.000387  (-0.006387  0.016901 -0.007813)
145:   3109.93   0.007258   36.68  0.000728  (-0.017854  0.019966 -0.003303)
146:   3155.19   0.003782   19.11  0.000374  (-0.018147 -0.002812 -0.006070)
147:   3163.14   0.000661    3.34  0.000065  (-0.000793 -0.006914  0.004096)
148:   3166.90   0.003862   19.52  0.000381  (-0.003980 -0.004925 -0.018451)
149:   3188.98   0.002960   14.96  0.000290  (-0.002400  0.016490 -0.003459)
150:   3191.03   0.002069   10.45  0.000202  ( 0.002037  0.008279 -0.011385)
151:   3195.46   0.000251    1.27  0.000025  (-0.003665 -0.003046 -0.001341)
152:   3205.66   0.002392   12.09  0.000233  (-0.008215 -0.010689 -0.007148)
153:   3210.48   0.000144    0.73  0.000014  ( 0.003120  0.001570 -0.001334)
154:   3217.31   0.000463    2.34  0.000045  ( 0.003665 -0.005319  0.001797)
155:   3218.75   0.001794    9.07  0.000174  (-0.001589  0.000207  0.013090)
156:   3220.16   0.000087    0.44  0.000008  ( 0.002874  0.000114 -0.000417)
157:   3231.61   0.000169    0.85  0.000016  ( 0.000648  0.001608 -0.003643)
158:   3233.64   0.000363    1.83  0.000035  ( 0.003035  0.004079 -0.003027)
159:   3245.09   0.000829    4.19  0.000080  (-0.008749  0.000580  0.001693)
160:   3247.27   0.001314    6.64  0.000126  ( 0.007355  0.002574 -0.008097)
161:   3247.97   0.001129    5.70  0.000108  (-0.008330  0.001485 -0.006071)

* The epsilon (eps) is given for a Dirac delta lineshape.
** The dipole moment derivative (T) already includes vibrational overlap.

The first frequency considered to be a vibration is 6
The total number of vibrations considered is 156


--------------------------
THERMOCHEMISTRY AT 298.15K
--------------------------

Temperature         ... 298.15 K
Pressure            ... 1.00 atm
Total Mass          ... 451.44 AMU

Throughout the following assumptions are being made:
  (1) The electronic state is orbitally nondegenerate
  (2) There are no thermally accessible electronically excited states
  (3) Hindered rotations indicated by low frequency modes are not
      treated as such but are treated as vibrations and this may
      cause some error
  (4) All equations used are the standard statistical mechanics
      equations for an ideal gas
  (5) All vibrations are strictly harmonic

freq.      17.35  E(vib)   ...       0.57 
freq.      23.97  E(vib)   ...       0.56 
freq.      30.73  E(vib)   ...       0.55 
freq.      38.66  E(vib)   ...       0.54 
freq.      49.37  E(vib)   ...       0.52 
freq.      56.21  E(vib)   ...       0.52 
freq.      64.86  E(vib)   ...       0.50 
freq.      71.39  E(vib)   ...       0.50 
freq.      81.58  E(vib)   ...       0.48 
freq.      87.08  E(vib)   ...       0.48 
freq.      88.55  E(vib)   ...       0.47 
freq.      95.82  E(vib)   ...       0.47 
freq.     121.39  E(vib)   ...       0.44 
freq.     139.61  E(vib)   ...       0.42 
freq.     147.93  E(vib)   ...       0.41 
freq.     155.78  E(vib)   ...       0.40 
freq.     157.75  E(vib)   ...       0.40 
freq.     168.19  E(vib)   ...       0.38 
freq.     181.60  E(vib)   ...       0.37 
freq.     191.72  E(vib)   ...       0.36 
freq.     198.73  E(vib)   ...       0.35 
freq.     215.89  E(vib)   ...       0.34 
freq.     244.54  E(vib)   ...       0.31 
freq.     262.26  E(vib)   ...       0.29 
freq.     268.15  E(vib)   ...       0.29 
freq.     288.06  E(vib)   ...       0.27 
freq.     310.14  E(vib)   ...       0.26 
freq.     323.84  E(vib)   ...       0.25 
freq.     335.80  E(vib)   ...       0.24 
freq.     343.14  E(vib)   ...       0.23 
freq.     371.48  E(vib)   ...       0.21 
freq.     378.99  E(vib)   ...       0.21 
freq.     418.54  E(vib)   ...       0.18 
freq.     428.57  E(vib)   ...       0.18 
freq.     448.96  E(vib)   ...       0.17 
freq.     480.11  E(vib)   ...       0.15 
freq.     486.52  E(vib)   ...       0.15 
freq.     489.86  E(vib)   ...       0.15 
freq.     516.32  E(vib)   ...       0.13 
freq.     538.07  E(vib)   ...       0.12 
freq.     542.87  E(vib)   ...       0.12 
freq.     566.32  E(vib)   ...       0.11 
freq.     572.59  E(vib)   ...       0.11 
freq.     596.98  E(vib)   ...       0.10 
freq.     603.18  E(vib)   ...       0.10 
freq.     619.15  E(vib)   ...       0.09 
freq.     632.22  E(vib)   ...       0.09 
freq.     643.39  E(vib)   ...       0.09 
freq.     672.81  E(vib)   ...       0.08 
freq.     711.09  E(vib)   ...       0.07 
freq.     713.50  E(vib)   ...       0.07 
freq.     730.53  E(vib)   ...       0.06 
freq.     740.93  E(vib)   ...       0.06 
freq.     751.46  E(vib)   ...       0.06 
freq.     756.99  E(vib)   ...       0.06 
freq.     769.53  E(vib)   ...       0.06 
freq.     781.67  E(vib)   ...       0.05 
freq.     786.80  E(vib)   ...       0.05 
freq.     808.54  E(vib)   ...       0.05 
freq.     823.12  E(vib)   ...       0.05 
freq.     836.26  E(vib)   ...       0.04 
freq.     845.88  E(vib)   ...       0.04 
freq.     862.62  E(vib)   ...       0.04 
freq.     876.47  E(vib)   ...       0.04 
freq.     881.81  E(vib)   ...       0.04 
freq.     889.53  E(vib)   ...       0.04 
freq.     892.56  E(vib)   ...       0.03 
freq.     940.00  E(vib)   ...       0.03 
freq.     945.13  E(vib)   ...       0.03 
freq.     966.79  E(vib)   ...       0.03 
freq.     971.90  E(vib)   ...       0.03 
freq.     985.97  E(vib)   ...       0.02 
freq.     993.74  E(vib)   ...       0.02 
freq.     996.98  E(vib)   ...       0.02 
freq.    1001.04  E(vib)   ...       0.02 
freq.    1007.40  E(vib)   ...       0.02 
freq.    1009.80  E(vib)   ...       0.02 
freq.    1034.14  E(vib)   ...       0.02 
freq.    1038.43  E(vib)   ...       0.02 
freq.    1049.38  E(vib)   ...       0.02 
freq.    1061.42  E(vib)   ...       0.02 
freq.    1065.28  E(vib)   ...       0.02 
freq.    1076.13  E(vib)   ...       0.02 
freq.    1092.24  E(vib)   ...       0.02 
freq.    1122.42  E(vib)   ...       0.01 
freq.    1142.12  E(vib)   ...       0.01 
freq.    1142.74  E(vib)   ...       0.01 
freq.    1146.07  E(vib)   ...       0.01 
freq.    1155.36  E(vib)   ...       0.01 
freq.    1170.50  E(vib)   ...       0.01 
freq.    1170.97  E(vib)   ...       0.01 
freq.    1177.93  E(vib)   ...       0.01 
freq.    1196.89  E(vib)   ...       0.01 
freq.    1201.30  E(vib)   ...       0.01 
freq.    1207.40  E(vib)   ...       0.01 
freq.    1218.98  E(vib)   ...       0.01 
freq.    1224.53  E(vib)   ...       0.01 
freq.    1230.49  E(vib)   ...       0.01 
freq.    1254.43  E(vib)   ...       0.01 
freq.    1271.20  E(vib)   ...       0.01 
freq.    1293.16  E(vib)   ...       0.01 
freq.    1299.11  E(vib)   ...       0.01 
freq.    1304.04  E(vib)   ...       0.01 
freq.    1318.21  E(vib)   ...       0.01 
freq.    1331.85  E(vib)   ...       0.01 
freq.    1339.42  E(vib)   ...       0.01 
freq.    1342.23  E(vib)   ...       0.01 
freq.    1350.04  E(vib)   ...       0.01 
freq.    1380.31  E(vib)   ...       0.01 
freq.    1383.77  E(vib)   ...       0.00 
freq.    1388.50  E(vib)   ...       0.00 
freq.    1392.77  E(vib)   ...       0.00 
freq.    1420.79  E(vib)   ...       0.00 
freq.    1431.99  E(vib)   ...       0.00 
freq.    1441.32  E(vib)   ...       0.00 
freq.    1454.27  E(vib)   ...       0.00 
freq.    1465.78  E(vib)   ...       0.00 
freq.    1465.99  E(vib)   ...       0.00 
freq.    1468.09  E(vib)   ...       0.00 
freq.    1472.94  E(vib)   ...       0.00 
freq.    1473.93  E(vib)   ...       0.00 
freq.    1484.10  E(vib)   ...       0.00 
freq.    1492.52  E(vib)   ...       0.00 
freq.    1499.08  E(vib)   ...       0.00 
freq.    1540.79  E(vib)   ...       0.00 
freq.    1545.21  E(vib)   ...       0.00 
freq.    1608.17  E(vib)   ...       0.00 
freq.    1626.46  E(vib)   ...       0.00 
freq.    1642.54  E(vib)   ...       0.00 
freq.    1648.35  E(vib)   ...       0.00 
freq.    1665.68  E(vib)   ...       0.00 
freq.    1669.56  E(vib)   ...       0.00 
freq.    1672.92  E(vib)   ...       0.00 
freq.    1708.68  E(vib)   ...       0.00 
freq.    1799.84  E(vib)   ...       0.00 
freq.    2978.32  E(vib)   ...       0.00 
freq.    3037.69  E(vib)   ...       0.00 
freq.    3071.50  E(vib)   ...       0.00 
freq.    3074.01  E(vib)   ...       0.00 
freq.    3109.93  E(vib)   ...       0.00 
freq.    3155.19  E(vib)   ...       0.00 
freq.    3163.14  E(vib)   ...       0.00 
freq.    3166.90  E(vib)   ...       0.00 
freq.    3188.98  E(vib)   ...       0.00 
freq.    3191.03  E(vib)   ...       0.00 
freq.    3195.46  E(vib)   ...       0.00 
freq.    3205.66  E(vib)   ...       0.00 
freq.    3210.48  E(vib)   ...       0.00 
freq.    3217.31  E(vib)   ...       0.00 
freq.    3218.75  E(vib)   ...       0.00 
freq.    3220.16  E(vib)   ...       0.00 
freq.    3231.61  E(vib)   ...       0.00 
freq.    3233.64  E(vib)   ...       0.00 
freq.    3245.09  E(vib)   ...       0.00 
freq.    3247.27  E(vib)   ...       0.00 
freq.    3247.97  E(vib)   ...       0.00 

------------
INNER ENERGY
------------

The inner energy is: U= E(el) + E(ZPE) + E(vib) + E(rot) + E(trans)
    E(el)   - is the total energy from the electronic structure calculation
              = E(kin-el) + E(nuc-el) + E(el-el) + E(nuc-nuc)
    E(ZPE)  - the the zero temperature vibrational energy from the frequency calculation
    E(vib)  - the the finite temperature correction to E(ZPE) due to population
              of excited vibrational states
    E(rot)  - is the rotational thermal energy
    E(trans)- is the translational thermal energy

Summary of contributions to the inner energy U:
Electronic energy                ...  -1578.61588989 Eh
Zero point energy                ...      0.41901872 Eh     262.94 kcal/mol
Thermal vibrational correction   ...      0.02593178 Eh      16.27 kcal/mol
Thermal rotational correction    ...      0.00141627 Eh       0.89 kcal/mol
Thermal translational correction ...      0.00141627 Eh       0.89 kcal/mol
-----------------------------------------------------------------------
Total thermal energy                  -1578.16810685 Eh


Summary of corrections to the electronic energy:
(perhaps to be used in another calculation)
Total thermal correction                  0.02876432 Eh      18.05 kcal/mol
Non-thermal (ZPE) correction              0.41901872 Eh     262.94 kcal/mol
-----------------------------------------------------------------------
Total correction                          0.44778304 Eh     280.99 kcal/mol


--------
ENTHALPY
--------

The enthalpy is H = U + kB*T
                kB is Boltzmann's constant
Total free energy                 ...  -1578.16810685 Eh 
Thermal Enthalpy correction       ...      0.00094421 Eh       0.59 kcal/mol
-----------------------------------------------------------------------
Total Enthalpy                    ...  -1578.16716264 Eh


Note: Only C1 symmetry has been detected, increase convergence thresholds 
      if your molecule has a higher symmetry. Symmetry factor of 1.0 is   
      used for the rotational entropy correction. 
 

Note: Rotational entropy computed according to Herzberg 
Infrared and Raman Spectra, Chapter V,1, Van Nostrand Reinhold, 1945 
Point Group:  C1, Symmetry Number:   1  
Rotational constants in cm-1:     0.006488     0.003946     0.003068 

Vibrational entropy computed according to the QRRHO of S. Grimme
Chem.Eur.J. 2012 18 9955


-------
ENTROPY
-------

The entropy contributions are T*S = T*(S(el)+S(vib)+S(rot)+S(trans))
     S(el)   - electronic entropy
     S(vib)  - vibrational entropy
     S(rot)  - rotational entropy
     S(trans)- translational entropy
The entropies will be listed as multiplied by the temperature to get
units of energy

Electronic entropy                ...      0.00000000 Eh      0.00 kcal/mol
Vibrational entropy               ...      0.04677777 Eh     29.35 kcal/mol
Rotational entropy                ...      0.01723408 Eh     10.81 kcal/mol
Translational entropy             ...      0.02100593 Eh     13.18 kcal/mol
-----------------------------------------------------------------------
Final entropy term                ...      0.08501778 Eh     53.35 kcal/mol

In case the symmetry of your molecule has not been determined correctly
or in case you have a reason to use a different symmetry number we print 
out the resulting rotational entropy values for sn=1,12 :
 --------------------------------------------------------
|  sn= 1 | S(rot)=       0.01723408 Eh     10.81 kcal/mol|
|  sn= 2 | S(rot)=       0.01657963 Eh     10.40 kcal/mol|
|  sn= 3 | S(rot)=       0.01619679 Eh     10.16 kcal/mol|
|  sn= 4 | S(rot)=       0.01592517 Eh      9.99 kcal/mol|
|  sn= 5 | S(rot)=       0.01571448 Eh      9.86 kcal/mol|
|  sn= 6 | S(rot)=       0.01554234 Eh      9.75 kcal/mol|
|  sn= 7 | S(rot)=       0.01539679 Eh      9.66 kcal/mol|
|  sn= 8 | S(rot)=       0.01527071 Eh      9.58 kcal/mol|
|  sn= 9 | S(rot)=       0.01515950 Eh      9.51 kcal/mol|
|  sn=10 | S(rot)=       0.01506002 Eh      9.45 kcal/mol|
|  sn=11 | S(rot)=       0.01497003 Eh      9.39 kcal/mol|
|  sn=12 | S(rot)=       0.01488788 Eh      9.34 kcal/mol|
 --------------------------------------------------------


-------------------
GIBBS FREE ENERGY
-------------------

The Gibbs free energy is G = H - T*S

Total enthalpy                    ...  -1578.16716264 Eh 
Total entropy correction          ...     -0.08501778 Eh    -53.35 kcal/mol
-----------------------------------------------------------------------
Final Gibbs free energy         ...  -1578.25218042 Eh

For completeness - the Gibbs free energy minus the electronic energy
G-E(el)                           ...      0.36370946 Eh    228.23 kcal/mol


Timings for individual modules:

Sum of individual times         ...     9988.850 sec (= 166.481 min)
GTO integral calculation        ...       64.670 sec (=   1.078 min)   0.6 %
SCF iterations                  ...     3214.020 sec (=  53.567 min)  32.2 %
SCF Gradient evaluation         ...      919.000 sec (=  15.317 min)   9.2 %
Geometry relaxation             ...        3.517 sec (=   0.059 min)   0.0 %
Analytical frequency calculation...     5787.644 sec (=  96.461 min)  57.9 %
                             ****ORCA TERMINATED NORMALLY****
TOTAL RUN TIME: 0 days 2 hours 47 minutes 34 seconds 996 msec
