
                                 *****************
                                 * O   R   C   A *
                                 *****************

                                            #,                                       
                                            ###                                      
                                            ####                                     
                                            #####                                    
                                            ######                                   
                                           ########,                                 
                                     ,,################,,,,,                         
                               ,,#################################,,                 
                          ,,##########################################,,             
                       ,#########################################, ''#####,          
                    ,#############################################,,   '####,        
                  ,##################################################,,,,####,       
                ,###########''''           ''''###############################       
              ,#####''   ,,,,##########,,,,          '''####'''          '####       
            ,##' ,,,,###########################,,,                        '##       
           ' ,,###''''                  '''############,,,                           
         ,,##''                                '''############,,,,        ,,,,,,###''
      ,#''                                            '''#######################'''  
     '                                                          ''''####''''         
             ,#######,   #######,   ,#######,      ##                                
            ,#'     '#,  ##    ##  ,#'     '#,    #''#        ######   ,####,        
            ##       ##  ##   ,#'  ##            #'  '#       #        #'  '#        
            ##       ##  #######   ##           ,######,      #####,   #    #        
            '#,     ,#'  ##    ##  '#,     ,#' ,#      #,         ##   #,  ,#        
             '#######'   ##     ##  '#######'  #'      '#     #####' # '####'        



                  #######################################################
                  #                        -***-                        #
                  #          Department of theory and spectroscopy      #
                  #    Directorship and core code : Frank Neese         #
                  #        Max Planck Institute fuer Kohlenforschung    #
                  #                Kaiser Wilhelm Platz 1               #
                  #                 D-45470 Muelheim/Ruhr               #
                  #                      Germany                        #
                  #                                                     #
                  #                  All rights reserved                #
                  #                        -***-                        #
                  #######################################################


                         Program Version 5.0.4 -  RELEASE  -


 With contributions from (in alphabetic order):
   Daniel Aravena         : Magnetic Suceptibility
   Michael Atanasov       : Ab Initio Ligand Field Theory (pilot matlab implementation)
   Alexander A. Auer      : GIAO ZORA, VPT2 properties, NMR spectrum
   Ute Becker             : Parallelization
   Giovanni Bistoni       : ED, misc. LED, open-shell LED, HFLD
   Martin Brehm           : Molecular dynamics
   Dmytro Bykov           : SCF Hessian
   Vijay G. Chilkuri      : MRCI spin determinant printing, contributions to CSF-ICE
   Dipayan Datta          : RHF DLPNO-CCSD density
   Achintya Kumar Dutta   : EOM-CC, STEOM-CC
   Dmitry Ganyushin       : Spin-Orbit,Spin-Spin,Magnetic field MRCI
   Miquel Garcia          : C-PCM and meta-GGA Hessian, CC/C-PCM, Gaussian charge scheme
   Yang Guo               : DLPNO-NEVPT2, F12-NEVPT2, CIM, IAO-localization
   Andreas Hansen         : Spin unrestricted coupled pair/coupled cluster methods
   Benjamin Helmich-Paris : MC-RPA, TRAH-SCF, COSX integrals
   Lee Huntington         : MR-EOM, pCC
   Robert Izsak           : Overlap fitted RIJCOSX, COSX-SCS-MP3, EOM
   Marcus Kettner         : VPT2
   Christian Kollmar      : KDIIS, OOCD, Brueckner-CCSD(T), CCSD density, CASPT2, CASPT2-K
   Simone Kossmann        : Meta GGA functionals, TD-DFT gradient, OOMP2, MP2 Hessian
   Martin Krupicka        : Initial AUTO-CI
   Lucas Lang             : DCDCAS
   Marvin Lechner         : AUTO-CI (C++ implementation), FIC-MRCC
   Dagmar Lenk            : GEPOL surface, SMD
   Dimitrios Liakos       : Extrapolation schemes; Compound Job, initial MDCI parallelization
   Dimitrios Manganas     : Further ROCIS development; embedding schemes
   Dimitrios Pantazis     : SARC Basis sets
   Anastasios Papadopoulos: AUTO-CI, single reference methods and gradients
   Taras Petrenko         : DFT Hessian,TD-DFT gradient, ASA, ECA, R-Raman, ABS, FL, XAS/XES, NRVS
   Peter Pinski           : DLPNO-MP2, DLPNO-MP2 Gradient
   Christoph Reimann      : Effective Core Potentials
   Marius Retegan         : Local ZFS, SOC
   Christoph Riplinger    : Optimizer, TS searches, QM/MM, DLPNO-CCSD(T), (RO)-DLPNO pert. Triples
   Tobias Risthaus        : Range-separated hybrids, TD-DFT gradient, RPA, STAB
   Michael Roemelt        : Original ROCIS implementation
   Masaaki Saitow         : Open-shell DLPNO-CCSD energy and density
   Barbara Sandhoefer     : DKH picture change effects
   Avijit Sen             : IP-ROCIS
   Kantharuban Sivalingam : CASSCF convergence, NEVPT2, FIC-MRCI
   Bernardo de Souza      : ESD, SOC TD-DFT
   Georgi Stoychev        : AutoAux, RI-MP2 NMR, DLPNO-MP2 response
   Willem Van den Heuvel  : Paramagnetic NMR
   Boris Wezisla          : Elementary symmetry handling
   Frank Wennmohs         : Technical directorship


 We gratefully acknowledge several colleagues who have allowed us to
 interface, adapt or use parts of their codes:
   Stefan Grimme, W. Hujo, H. Kruse, P. Pracht,  : VdW corrections, initial TS optimization,
                  C. Bannwarth, S. Ehlert          DFT functionals, gCP, sTDA/sTD-DF
   Ed Valeev, F. Pavosevic, A. Kumar             : LibInt (2-el integral package), F12 methods
   Garnet Chan, S. Sharma, J. Yang, R. Olivares  : DMRG
   Ulf Ekstrom                                   : XCFun DFT Library
   Mihaly Kallay                                 : mrcc  (arbitrary order and MRCC methods)
   Jiri Pittner, Ondrej Demel                    : Mk-CCSD
   Frank Weinhold                                : gennbo (NPA and NBO analysis)
   Christopher J. Cramer and Donald G. Truhlar   : smd solvation model
   Lars Goerigk                                  : TD-DFT with DH, B97 family of functionals
   V. Asgeirsson, H. Jonsson                     : NEB implementation
   FAccTs GmbH                                   : IRC, NEB, NEB-TS, DLPNO-Multilevel, CI-OPT
                                                   MM, QMMM, 2- and 3-layer-ONIOM, Crystal-QMMM,
                                                   LR-CPCM, SF, NACMEs, symmetry and pop. for TD-DFT,
                                                   nearIR, NL-DFT gradient (VV10), updates on ESD,
                                                   ML-optimized integration grids
   S Lehtola, MJT Oliveira, MAL Marques          : LibXC Library
   Liviu Ungur et al                             : ANISO software


 Your calculation uses the libint2 library for the computation of 2-el integrals
 For citations please refer to: http://libint.valeyev.net

 Your ORCA version has been built with support for libXC version: 5.1.0
 For citations please refer to: https://tddft.org/programs/libxc/

 This ORCA versions uses:
   CBLAS   interface :  Fast vector & matrix operations
   LAPACKE interface :  Fast linear algebra routines
   SCALAPACK package :  Parallel linear algebra routines
   Shared memory     :  Shared parallel matrices
   BLAS/LAPACK       :  OpenBLAS 0.3.15  USE64BITINT DYNAMIC_ARCH NO_AFFINITY Haswell SINGLE_THREADED
        Core in use  :  Haswell
   Copyright (c) 2011-2014, The OpenBLAS Project


Your calculation utilizes the atom-pairwise dispersion correction
with the Becke-Johnson damping scheme (D3BJ)
Cite in your paper:
S.Grimme, S.Ehrlich, L.Goerigk, J Comput Chem, (2011), 32, 1456–1465 
S.Grimme, J.Antony, S.Ehrlich and H.Krieg, J.Chem.Phys., 132, (2010), 154104 
   

================================================================================

----- Orbital basis set information -----
Your calculation utilizes the basis: def2-TZVP
   F. Weigend and R. Ahlrichs, Phys. Chem. Chem. Phys. 7, 3297 (2005).

----- AuxJ basis set information -----
Your calculation utilizes the auxiliary basis: def2/J
   F. Weigend, Phys. Chem. Chem. Phys. 8, 1057 (2006).

================================================================================
                                        WARNINGS
                       Please study these warnings very carefully!
================================================================================


WARNING: Geometry Optimization
  ===> : Switching off AutoStart
         For restart on a previous wavefunction, please use MOREAD

INFO   : the flag for use of the SHARK integral package has been found!

================================================================================
                                       INPUT FILE
================================================================================
NAME = 3_CCH/3_CCH.inp
|  1> %pal nprocs 24 end
|  2> ! PBE0 D3BJ def2-TZVP TightSCF OPT FREQ TightOpt
|  3> ! CPCM(dmso)
|  4> %scf
|  5> MaxIter 800
|  6> end
|  7> 
|  8> %geom
|  9> MaxIter 800
| 10> MaxStep 0.15
| 11> end
| 12> 
| 13> *xyz 0 1
| 14> C       4.15101700      0.58871100      0.48581000
| 15> C       3.97377000      1.42644500     -0.67785700
| 16> C       2.71206000      1.60953100     -1.14183600
| 17> N       1.62818800      1.07297800     -0.51563700
| 18> C       1.71125100      0.19700800      0.62408500
| 19> C       3.10465000      0.01072800      1.11418300
| 20> C       0.31828600      0.99706000     -1.09155700
| 21> C      -0.58384600      2.09769000     -0.54463000
| 22> O      -0.23191200      2.95059900      0.23012900
| 23> O      -1.77694700      2.05262900     -1.12076300
| 24> C      -2.73213600      3.01794500     -0.69884900
| 25> H       5.16044000      0.43291100      0.87755700
| 26> H       2.48506700      2.19972200     -2.03331100
| 27> H       1.03638100      0.54051700      1.42872200
| 28> H       3.23920800     -0.60396100      2.00639200
| 29> H       0.37318400      1.18410400     -2.17494200
| 30> H      -2.96938900      2.87935600      0.36581000
| 31> H      -3.62716600      2.84978100     -1.30757700
| 32> C       0.92996700     -1.10016700      0.09272800
| 33> C      -0.13665400     -0.49835200     -0.87145500
| 34> C      -1.56612400     -0.78041900     -0.49627500
| 35> C      -2.35804800     -1.56401300     -1.33311300
| 36> C      -3.68145400     -1.87197800     -1.00880100
| 37> C      -4.22033000     -1.38815600      0.17899300
| 38> C      -3.45071600     -0.60065900      1.03868000
| 39> C      -2.13154500     -0.29644200      0.70021100
| 40> O      -1.31744700      0.46815300      1.45178800
| 41> C      -1.76715400      0.97328100      2.68680700
| 42> N       1.96670500     -1.86601100     -0.71108800
| 43> O       2.17512200     -1.50173000     -1.84686000
| 44> H       0.02998900     -0.99406500     -1.83328000
| 45> H      -1.92295800     -1.94235700     -2.26235100
| 46> H      -4.28192900     -2.48755500     -1.68188400
| 47> H      -5.25313300     -1.62049400      0.45093600
| 48> H      -3.88450700     -0.22710600      1.96665500
| 49> H      -2.00814400      0.15537500      3.38524300
| 50> H      -2.65225000      1.61747300      2.55995800
| 51> H      -0.94223400      1.57007400      3.09435400
| 52> O       2.60256000     -2.71559800     -0.13334200
| 53> H      -2.34952300      4.03635500     -0.85431400
| 54> H       4.82089500      1.89072400     -1.18101000
| 55> C       0.45226600     -1.94809900      1.16341300
| 56> C       0.05889200     -2.60785500      2.09920500
| 57> H      -0.29773800     -3.20661900      2.92080500
| 58> *
| 59> 
| 60>                          ****END OF INPUT****
================================================================================

                       *****************************
                       * Geometry Optimization Run *
                       *****************************

Geometry optimization settings:
Update method            Update   .... BFGS
Choice of coordinates    CoordSys .... Z-matrix Internals
Initial Hessian          InHess   .... Almoef's Model

Convergence Tolerances:
Energy Change            TolE     ....  1.0000e-06 Eh
Max. Gradient            TolMAXG  ....  1.0000e-04 Eh/bohr
RMS Gradient             TolRMSG  ....  3.0000e-05 Eh/bohr
Max. Displacement        TolMAXD  ....  1.0000e-03 bohr
RMS Displacement         TolRMSD  ....  6.0000e-04 bohr
Strict Convergence                ....  False
------------------------------------------------------------------------------
                        ORCA OPTIMIZATION COORDINATE SETUP
------------------------------------------------------------------------------

The optimization will be done in new redundant internal coordinates
Making redundant internal coordinates   ...  (new redundants) done
Evaluating the initial hessian          ...  (Almloef) done
Evaluating the coordinates              ...  done
Calculating the B-matrix                .... done
Calculating the G-matrix                .... done
Diagonalizing the G-matrix              .... done
Small eigenvalue found = 3.819e-03
Small eigenvalue found = 6.358e-03
Small eigenvalue found = 9.323e-03
Small eigenvalue found = 1.781e-02
Small eigenvalue found = 2.104e-02
Small eigenvalue found = 2.248e-02
Small eigenvalue found = 2.918e-02
The first mode is                       ....  114
The number of degrees of freedom        ....  126

    -----------------------------------------------------------------
                    Redundant Internal Coordinates


    -----------------------------------------------------------------
         Definition                    Initial Value    Approx d2E/dq
    -----------------------------------------------------------------
      1. B(C   1,C   0)                  1.4448         0.510940   
      2. B(C   2,C   1)                  1.3567         0.706030   
      3. B(N   3,C   2)                  1.3619         0.620433   
      4. B(C   4,N   3)                  1.4399         0.465941   
      5. B(C   5,C   4)                  1.4888         0.434656   
      6. B(C   5,C   0)                  1.3505         0.722416   
      7. B(C   6,N   3)                  1.4329         0.477950   
      8. B(C   7,C   6)                  1.5246         0.381081   
      9. B(O   8,C   7)                  1.2048         1.104936   
     10. B(O   9,C   7)                  1.3257         0.708730   
     11. B(C  10,O   9)                  1.4221         0.497437   
     12. B(H  11,C   0)                  1.0939         0.354944   
     13. B(H  12,C   2)                  1.0930         0.356195   
     14. B(H  13,C   4)                  1.1049         0.340871   
     15. B(H  14,C   5)                  1.0918         0.357752   
     16. B(H  15,C   6)                  1.1008         0.346115   
     17. B(H  16,C  10)                  1.0995         0.347695   
     18. B(H  17,C  10)                  1.0954         0.353023   
     19. B(C  18,C   4)                  1.6048         0.283809   
     20. B(C  19,C  18)                  1.5587         0.336207   
     21. B(C  19,C   6)                  1.5785         0.312603   
     22. B(C  20,C  19)                  1.5046         0.410169   
     23. B(C  21,C  20)                  1.3934         0.617124   
     24. B(C  22,C  21)                  1.3969         0.609082   
     25. B(C  23,C  22)                  1.3912         0.622140   
     26. B(C  24,C  23)                  1.3970         0.609006   
     27. B(C  25,C  24)                  1.3955         0.612379   
     28. B(C  25,C  20)                  1.4091         0.582497   
     29. B(O  26,C  25)                  1.3462         0.657311   
     30. B(C  27,O  26)                  1.4081         0.523655   
     31. B(N  28,C  18)                  1.5190         0.348346   
     32. B(O  29,N  28)                  1.2108         0.967970   
     33. B(H  30,C  19)                  1.0948         0.353793   
     34. B(H  31,C  21)                  1.0936         0.355387   
     35. B(H  32,C  22)                  1.0920         0.357415   
     36. B(H  33,C  23)                  1.0930         0.356173   
     37. B(H  34,C  24)                  1.0903         0.359643   
     38. B(H  35,C  27)                  1.1022         0.344309   
     39. B(H  36,C  27)                  1.1020         0.344533   
     40. B(H  37,C  27)                  1.0967         0.351346   
     41. B(O  38,N  28)                  1.2083         0.977151   
     42. B(H  39,C  10)                  1.0990         0.348435   
     43. B(H  40,C   1)                  1.0892         0.361171   
     44. B(C  41,C  18)                  1.4469         0.506920   
     45. B(C  42,C  41)                  1.2107         1.207381   
     46. B(H  43,C  42)                  1.0774         0.377199   
     47. A(C   5,C   0,H  11)          119.1683         0.361310   
     48. A(C   1,C   0,H  11)          118.9617         0.340779   
     49. A(C   1,C   0,C   5)          121.8619         0.430911   
     50. A(C   0,C   1,H  40)          121.5888         0.341772   
     51. A(C   0,C   1,C   2)          117.8907         0.429140   
     52. A(C   2,C   1,H  40)          120.5163         0.360968   
     53. A(C   1,C   2,H  12)          123.0211         0.360116   
     54. A(N   3,C   2,H  12)          114.9916         0.350133   
     55. A(C   1,C   2,N   3)          121.9854         0.441497   
     56. A(C   4,N   3,C   6)          109.7941         0.388963   
     57. A(C   2,N   3,C   6)          124.3045         0.409048   
     58. A(C   2,N   3,C   4)          123.8984         0.407210   
     59. A(H  13,C   4,C  18)          101.2480         0.307398   
     60. A(N   3,C   4,C  18)          101.6294         0.357796   
     61. A(N   3,C   4,H  13)          110.6130         0.331321   
     62. A(C   5,C   4,H  13)          111.7662         0.329518   
     63. A(C   5,C   4,C  18)          117.6139         0.355796   
     64. A(N   3,C   4,C   5)          112.9974         0.385021   
     65. A(C   0,C   5,H  14)          121.7161         0.361797   
     66. A(C   4,C   5,H  14)          117.0531         0.332164   
     67. A(C   0,C   5,C   4)          121.2283         0.418624   
     68. A(C   7,C   6,C  19)          117.6040         0.353696   
     69. A(N   3,C   6,C  19)          104.9286         0.365327   
     70. A(C   7,C   6,H  15)          105.0648         0.323271   
     71. A(N   3,C   6,H  15)          109.9362         0.333565   
     72. A(N   3,C   6,C   7)          111.0073         0.377997   
     73. A(H  15,C   6,C  19)          108.2149         0.313000   
     74. A(C   6,C   7,O   9)          110.6158         0.404951   
     75. A(C   6,C   7,O   8)          124.6739         0.438358   
     76. A(O   8,C   7,O   9)          124.5011         0.487723   
     77. A(C   7,O   9,C  10)          116.9045         0.421831   
     78. A(H  16,C  10,H  39)          109.2023         0.287757   
     79. A(H  16,C  10,H  17)          110.0248         0.288347   
     80. A(O   9,C  10,H  17)          106.2448         0.336893   
     81. A(H  17,C  10,H  39)          110.3726         0.288443   
     82. A(O   9,C  10,H  39)          110.6852         0.336160   
     83. A(O   9,C  10,H  16)          110.2829         0.336041   
     84. A(C  19,C  18,N  28)          109.5340         0.350509   
     85. A(C   4,C  18,N  28)          104.5047         0.340670   
     86. A(C  19,C  18,C  41)          117.2635         0.376046   
     87. A(C   4,C  18,C  41)          112.9179         0.365247   
     88. A(C   4,C  18,C  19)          103.0543         0.340729   
     89. A(N  28,C  18,C  41)          108.7502         0.375979   
     90. A(C  20,C  19,H  30)          106.1887         0.328390   
     91. A(C  18,C  19,H  30)          105.3352         0.317855   
     92. A(C   6,C  19,H  30)          105.2233         0.314115   
     93. A(C  18,C  19,C  20)          115.0568         0.362611   
     94. A(C   6,C  19,C  20)          119.0912         0.358140   
     95. A(C   6,C  19,C  18)          104.7623         0.346296   
     96. A(C  21,C  20,C  25)          118.3639         0.428869   
     97. A(C  19,C  20,C  25)          121.9102         0.398854   
     98. A(C  19,C  20,C  21)          119.7130         0.402931   
     99. A(C  22,C  21,H  31)          119.8621         0.351067   
    100. A(C  20,C  21,H  31)          118.6051         0.351846   
    101. A(C  20,C  21,C  22)          121.5328         0.432320   
    102. A(C  23,C  22,H  32)          120.6174         0.352668   
    103. A(C  21,C  22,H  32)          120.1392         0.351405   
    104. A(C  21,C  22,C  23)          119.2433         0.432949   
    105. A(C  24,C  23,H  33)          119.1632         0.351191   
    106. A(C  22,C  23,H  33)          120.3005         0.352460   
    107. A(C  22,C  23,C  24)          120.5363         0.432940   
    108. A(C  25,C  24,H  34)          120.5199         0.352096   
    109. A(C  23,C  24,H  34)          119.8481         0.351767   
    110. A(C  23,C  24,C  25)          119.6320         0.431711   
    111. A(C  24,C  25,O  26)          124.0616         0.434814   
    112. A(C  20,C  25,O  26)          115.2445         0.430920   
    113. A(C  20,C  25,C  24)          120.6910         0.428276   
    114. A(C  25,O  26,C  27)          120.0195         0.420031   
    115. A(O  26,C  27,H  36)          111.4230         0.338414   
    116. A(O  26,C  27,H  35)          111.0644         0.338377   
    117. A(H  36,C  27,H  37)          109.1957         0.287721   
    118. A(H  35,C  27,H  37)          109.4382         0.287691   
    119. A(O  26,C  27,H  37)          106.3154         0.339522   
    120. A(H  35,C  27,H  36)          109.3360         0.286813   
    121. A(C  18,N  28,O  29)          117.5264         0.415726   
    122. A(O  29,N  28,O  38)          124.7140         0.498177   
    123. A(C  18,N  28,O  38)          117.4287         0.416425   
    124. L(C  18,C  41,C  42,C   4, 2) 178.4216         0.472374   
    125. L(C  18,C  41,C  42,C   4, 1) 177.1187         0.472374   
    126. L(C  41,C  42,H  43, 2)       180.6639         0.399119   
    127. L(C  41,C  42,H  43, 1)       179.1010         0.399119   
    128. D(H  40,C   1,C   0,H  11)      1.0224         0.017792   
    129. D(C   2,C   1,C   0,H  11)   -179.7192         0.017792   
    130. D(H  40,C   1,C   0,C   5)    179.9775         0.017792   
    131. D(C   2,C   1,C   0,C   5)     -0.7641         0.017792   
    132. D(H  12,C   2,C   1,H  40)      1.2694         0.035159   
    133. D(N   3,C   2,C   1,C   0)      2.5283         0.035159   
    134. D(H  12,C   2,C   1,C   0)   -177.9973         0.035159   
    135. D(N   3,C   2,C   1,H  40)   -178.2050         0.035159   
    136. D(C   6,N   3,C   2,C   1)   -166.7112         0.031174   
    137. D(C   6,N   3,C   2,H  12)     13.7751         0.031174   
    138. D(C   4,N   3,C   2,C   1)     -4.4717         0.031174   
    139. D(C   4,N   3,C   2,H  12)    176.0146         0.031174   
    140. D(H  13,C   4,N   3,C   2)    130.2618         0.018542   
    141. D(C   5,C   4,N   3,C   2)      4.1027         0.018542   
    142. D(C   5,C   4,N   3,C   6)    168.5692         0.018542   
    143. D(C  18,C   4,N   3,C   6)     41.5968         0.018542   
    144. D(C  18,C   4,N   3,C   2)   -122.8697         0.018542   
    145. D(H  13,C   4,N   3,C   6)    -65.2717         0.018542   
    146. D(H  14,C   5,C   4,C  18)    -64.8545         0.013947   
    147. D(H  14,C   5,C   4,H  13)     51.6261         0.013947   
    148. D(C   0,C   5,C   4,C  18)    115.7165         0.013947   
    149. D(H  14,C   5,C   4,N   3)    177.1665         0.013947   
    150. D(H  14,C   5,C   0,H  11)      0.3270         0.036959   
    151. D(C   0,C   5,C   4,N   3)     -2.2625         0.013947   
    152. D(C   0,C   5,C   4,H  13)   -127.8029         0.013947   
    153. D(H  14,C   5,C   0,C   1)   -178.6260         0.036959   
    154. D(C   4,C   5,C   0,H  11)    179.7292         0.036959   
    155. D(C   4,C   5,C   0,C   1)      0.7762         0.036959   
    156. D(C   7,C   6,N   3,C   4)     94.4383         0.019534   
    157. D(C   7,C   6,N   3,C   2)   -101.1718         0.019534   
    158. D(H  15,C   6,N   3,C   2)     14.6420         0.019534   
    159. D(C  19,C   6,N   3,C   4)    -33.5913         0.019534   
    160. D(C  19,C   6,N   3,C   2)    130.7986         0.019534   
    161. D(H  15,C   6,N   3,C   4)   -149.7479         0.019534   
    162. D(O   9,C   7,C   6,C  19)    -61.6281         0.010833   
    163. D(O   9,C   7,C   6,N   3)    177.5619         0.010833   
    164. D(O   9,C   7,C   6,H  15)     58.7713         0.010833   
    165. D(O   8,C   7,C   6,C  19)    123.4365         0.010833   
    166. D(O   8,C   7,C   6,H  15)   -116.1641         0.010833   
    167. D(O   8,C   7,C   6,N   3)      2.6265         0.010833   
    168. D(C  10,O   9,C   7,O   8)     -5.5728         0.037706   
    169. D(C  10,O   9,C   7,C   6)    179.4813         0.037706   
    170. D(H  39,C  10,O   9,C   7)     57.9110         0.019556   
    171. D(H  17,C  10,O   9,C   7)    177.7525         0.019556   
    172. D(H  16,C  10,O   9,C   7)    -63.0429         0.019556   
    173. D(C  41,C  18,C   4,H  13)    -45.4018         0.006825   
    174. D(C  41,C  18,C   4,C   5)     76.6521         0.006825   
    175. D(C  41,C  18,C   4,N   3)   -159.4435         0.006825   
    176. D(N  28,C  18,C   4,C   5)    -41.3729         0.006825   
    177. D(N  28,C  18,C   4,N   3)     82.5315         0.006825   
    178. D(C  19,C  18,C   4,H  13)     82.0841         0.006825   
    179. D(N  28,C  18,C   4,H  13)   -163.4268         0.006825   
    180. D(C  19,C  18,C   4,N   3)    -31.9577         0.006825   
    181. D(C  19,C  18,C   4,C   5)   -155.8621         0.006825   
    182. D(H  30,C  19,C   6,C   7)    135.5529         0.008055   
    183. D(H  30,C  19,C   6,N   3)   -100.5245         0.008055   
    184. D(C  20,C  19,C   6,H  15)   -102.0072         0.008055   
    185. D(C  20,C  19,C   6,C   7)     16.7325         0.008055   
    186. D(C  20,C  19,C   6,N   3)    140.6551         0.008055   
    187. D(C  18,C  19,C   6,H  15)    127.6157         0.008055   
    188. D(C  18,C  19,C   6,C   7)   -113.6446         0.008055   
    189. D(H  30,C  19,C   6,H  15)     16.8131         0.008055   
    190. D(C  18,C  19,C   6,N   3)     10.2780         0.008055   
    191. D(H  30,C  19,C  18,C  41)   -111.4763         0.009171   
    192. D(H  30,C  19,C  18,C   4)    123.8301         0.009171   
    193. D(C  20,C  19,C  18,C  41)      5.0966         0.009171   
    194. D(C  20,C  19,C  18,N  28)    129.6053         0.009171   
    195. D(C  20,C  19,C  18,C   4)   -119.5970         0.009171   
    196. D(C   6,C  19,C  18,C  41)    137.8019         0.009171   
    197. D(H  30,C  19,C  18,N  28)     13.0324         0.009171   
    198. D(C   6,C  19,C  18,N  28)    -97.6894         0.009171   
    199. D(C   6,C  19,C  18,C   4)     13.1082         0.009171   
    200. D(C  25,C  20,C  19,H  30)    179.6863         0.012460   
    201. D(C  25,C  20,C  19,C  18)     63.6002         0.012460   
    202. D(C  25,C  20,C  19,C   6)    -61.9919         0.012460   
    203. D(C  21,C  20,C  19,H  30)      1.0152         0.012460   
    204. D(C  21,C  20,C  19,C  18)   -115.0709         0.012460   
    205. D(C  21,C  20,C  19,C   6)    119.3370         0.012460   
    206. D(H  31,C  21,C  20,C  25)   -179.9531         0.026338   
    207. D(H  31,C  21,C  20,C  19)     -1.2351         0.026338   
    208. D(C  22,C  21,C  20,C  25)     -0.0205         0.026338   
    209. D(C  22,C  21,C  20,C  19)    178.6976         0.026338   
    210. D(H  32,C  22,C  21,H  31)     -0.1177         0.025617   
    211. D(H  32,C  22,C  21,C  20)    179.9504         0.025617   
    212. D(C  23,C  22,C  21,H  31)    179.7563         0.025617   
    213. D(C  23,C  22,C  21,C  20)     -0.1755         0.025617   
    214. D(H  33,C  23,C  22,H  32)      0.0172         0.026795   
    215. D(H  33,C  23,C  22,C  21)   -179.8563         0.026795   
    216. D(C  24,C  23,C  22,H  32)   -179.9900         0.026795   
    217. D(C  24,C  23,C  22,C  21)      0.1366         0.026795   
    218. D(H  34,C  24,C  23,H  33)     -0.0263         0.025610   
    219. D(H  34,C  24,C  23,C  22)    179.9808         0.025610   
    220. D(C  25,C  24,C  23,H  33)   -179.9096         0.025610   
    221. D(C  25,C  24,C  23,C  22)      0.0975         0.025610   
    222. D(O  26,C  25,C  24,H  34)     -0.8397         0.025911   
    223. D(O  26,C  25,C  24,C  23)    179.0428         0.025911   
    224. D(C  20,C  25,C  24,H  34)    179.8191         0.025911   
    225. D(C  20,C  25,C  24,C  23)     -0.2984         0.025911   
    226. D(O  26,C  25,C  20,C  21)   -179.1378         0.023321   
    227. D(O  26,C  25,C  20,C  19)      2.1738         0.023321   
    228. D(C  24,C  25,C  20,C  21)      0.2588         0.023321   
    229. D(C  24,C  25,C  20,C  19)   -178.4296         0.023321   
    230. D(C  27,O  26,C  25,C  24)      2.4349         0.031990   
    231. D(C  27,O  26,C  25,C  20)   -178.1914         0.031990   
    232. D(H  37,C  27,O  26,C  25)   -179.0637         0.021753   
    233. D(H  36,C  27,O  26,C  25)    -60.1909         0.021753   
    234. D(H  35,C  27,O  26,C  25)     61.9681         0.021753   
    235. D(O  38,N  28,C  18,C  41)    -28.2715         0.010481   
    236. D(O  38,N  28,C  18,C  19)   -157.5977         0.010481   
    237. D(O  38,N  28,C  18,C   4)     92.5654         0.010481   
    238. D(O  29,N  28,C  18,C  41)    158.0178         0.010481   
    239. D(O  29,N  28,C  18,C  19)     28.6915         0.010481   
    240. D(O  29,N  28,C  18,C   4)    -81.1454         0.010481   
    -----------------------------------------------------------------

Number of atoms                         .... 44
Number of degrees of freedom            .... 240

         *************************************************************
         *                GEOMETRY OPTIMIZATION CYCLE   1            *
         *************************************************************
---------------------------------
CARTESIAN COORDINATES (ANGSTROEM)
---------------------------------
  C      4.151017    0.588711    0.485810
  C      3.973770    1.426445   -0.677857
  C      2.712060    1.609531   -1.141836
  N      1.628188    1.072978   -0.515637
  C      1.711251    0.197008    0.624085
  C      3.104650    0.010728    1.114183
  C      0.318286    0.997060   -1.091557
  C     -0.583846    2.097690   -0.544630
  O     -0.231912    2.950599    0.230129
  O     -1.776947    2.052629   -1.120763
  C     -2.732136    3.017945   -0.698849
  H      5.160440    0.432911    0.877557
  H      2.485067    2.199722   -2.033311
  H      1.036381    0.540517    1.428722
  H      3.239208   -0.603961    2.006392
  H      0.373184    1.184104   -2.174942
  H     -2.969389    2.879356    0.365810
  H     -3.627166    2.849781   -1.307577
  C      0.929967   -1.100167    0.092728
  C     -0.136654   -0.498352   -0.871455
  C     -1.566124   -0.780419   -0.496275
  C     -2.358048   -1.564013   -1.333113
  C     -3.681454   -1.871978   -1.008801
  C     -4.220330   -1.388156    0.178993
  C     -3.450716   -0.600659    1.038680
  C     -2.131545   -0.296442    0.700211
  O     -1.317447    0.468153    1.451788
  C     -1.767154    0.973281    2.686807
  N      1.966705   -1.866011   -0.711088
  O      2.175122   -1.501730   -1.846860
  H      0.029989   -0.994065   -1.833280
  H     -1.922958   -1.942357   -2.262351
  H     -4.281929   -2.487555   -1.681884
  H     -5.253133   -1.620494    0.450936
  H     -3.884507   -0.227106    1.966655
  H     -2.008144    0.155375    3.385243
  H     -2.652250    1.617473    2.559958
  H     -0.942234    1.570074    3.094354
  O      2.602560   -2.715598   -0.133342
  H     -2.349523    4.036355   -0.854314
  H      4.820895    1.890724   -1.181010
  C      0.452266   -1.948099    1.163413
  C      0.058892   -2.607855    2.099205
  H     -0.297738   -3.206619    2.920805

----------------------------
CARTESIAN COORDINATES (A.U.)
----------------------------
  NO LB      ZA    FRAG     MASS         X           Y           Z
   0 C     6.0000    0    12.011    7.844285    1.112503    0.918048
   1 C     6.0000    0    12.011    7.509337    2.695590   -1.280964
   2 C     6.0000    0    12.011    5.125051    3.041573   -2.157757
   3 N     7.0000    0    14.007    3.076829    2.027635   -0.974413
   4 C     6.0000    0    12.011    3.233796    0.372291    1.179350
   5 C     6.0000    0    12.011    5.866938    0.020273    2.105501
   6 C     6.0000    0    12.011    0.601473    1.884170   -2.062744
   7 C     6.0000    0    12.011   -1.103309    3.964060   -1.029202
   8 O     8.0000    0    15.999   -0.438250    5.575824    0.434881
   9 O     8.0000    0    15.999   -3.357943    3.878907   -2.117935
  10 C     6.0000    0    12.011   -5.162989    5.703090   -1.320633
  11 H     1.0000    0     1.008    9.751818    0.818083    1.658342
  12 H     1.0000    0     1.008    4.696096    4.156872   -3.842401
  13 H     1.0000    0     1.008    1.958476    1.021429    2.699893
  14 H     1.0000    0     1.008    6.121216   -1.141321    3.791531
  15 H     1.0000    0     1.008    0.705216    2.237632   -4.110045
  16 H     1.0000    0     1.008   -5.611332    5.441194    0.691281
  17 H     1.0000    0     1.008   -6.854350    5.385306   -2.470962
  18 C     6.0000    0    12.011    1.757383   -2.079014    0.175231
  19 C     6.0000    0    12.011   -0.258239   -0.941749   -1.646811
  20 C     6.0000    0    12.011   -2.959545   -1.474778   -0.937824
  21 C     6.0000    0    12.011   -4.456065   -2.955556   -2.519218
  22 C     6.0000    0    12.011   -6.956940   -3.537526   -1.906358
  23 C     6.0000    0    12.011   -7.975268   -2.623235    0.338248
  24 C     6.0000    0    12.011   -6.520908   -1.135081    1.962821
  25 C     6.0000    0    12.011   -4.028036   -0.560194    1.323207
  26 O     8.0000    0    15.999   -2.489614    0.884681    2.743482
  27 C     6.0000    0    12.011   -3.339437    1.839235    5.077329
  28 N     7.0000    0    14.007    3.716534   -3.526250   -1.343762
  29 O     8.0000    0    15.999    4.110385   -2.837858   -3.490060
  30 H     1.0000    0     1.008    0.056671   -1.878511   -3.464397
  31 H     1.0000    0     1.008   -3.633864   -3.670523   -4.275224
  32 H     1.0000    0     1.008   -8.091673   -4.700798   -3.178300
  33 H     1.0000    0     1.008   -9.926983   -3.062290    0.852146
  34 H     1.0000    0     1.008   -7.340654   -0.429168    3.716439
  35 H     1.0000    0     1.008   -3.794842    0.293616    6.397182
  36 H     1.0000    0     1.008   -5.012026    3.056581    4.837620
  37 H     1.0000    0     1.008   -1.780564    2.967010    5.847482
  38 O     8.0000    0    15.999    4.918126   -5.131737   -0.251980
  39 H     1.0000    0     1.008   -4.439955    7.627606   -1.614419
  40 H     1.0000    0     1.008    9.110171    3.572951   -2.231785
  41 C     6.0000    0    12.011    0.854659   -3.681374    2.198532
  42 C     6.0000    0    12.011    0.111290   -4.928132    3.966923
  43 H     1.0000    0     1.008   -0.562643   -6.059632    5.519522

--------------------------------
INTERNAL COORDINATES (ANGSTROEM)
--------------------------------
 C      0   0   0     0.000000000000     0.00000000     0.00000000
 C      1   0   0     1.444761447663     0.00000000     0.00000000
 C      2   1   0     1.356727356523   117.89065120     0.00000000
 N      3   2   1     1.361907787552   121.98544433     2.52831330
 C      4   3   2     1.439857333264   123.89843530   355.52832314
 C      1   2   3     1.350481719279   121.86191947   359.23588138
 C      4   3   2     1.432930786440   124.30453060   193.28880646
 C      7   4   3     1.524584430477   111.00734568   258.82821882
 O      8   7   4     1.204808204951   124.67390758     2.62647810
 O      8   7   4     1.325688396121   110.61577468   177.56190145
 C     10   8   7     1.422052189258   116.90447207   179.48125947
 H      1   2   3     1.093926023522   118.96170607   180.28077235
 H      3   2   1     1.092967938301   123.02108287   182.00266266
 H      5   4   3     1.104938302237   110.61302296   130.26177842
 H      6   1   2     1.091780802985   121.71606081   181.37396450
 H      7   4   3     1.100782588237   109.93616316    14.64203827
 H     11  10   8     1.099542942868   110.28291347   296.95706397
 H     11  10   8     1.095402944026   106.24483749   177.75249789
 C      5   4   3     1.604807755069   101.62940859   237.13025926
 C     19   5   4     1.558688714707   103.05427016   328.04233866
 C     20  19   5     1.504561831826   115.05683663   240.40296605
 C     21  20  19     1.393363203496   119.71298391   244.92908370
 C     22  21  20     1.396933840740   121.53279518   178.69756553
 C     23  22  21     1.391159824569   119.24328326   359.82446307
 C     24  23  22     1.396967777715   120.53627996     0.13655239
 C     25  24  23     1.395464572926   119.63196087     0.09746899
 O     26  25  24     1.346190571412   124.06159439   179.04281655
 C     27  26  25     1.408070528274   120.01951312     2.43490313
 N     19   5   4     1.519033533151   104.50472386    82.53149460
 O     29  19   5     1.210832907066   117.52637162   278.85462184
 H     20  19   5     1.094809845792   105.33523082   123.83010913
 H     22  21  20     1.093586188227   118.60508459   358.76488500
 H     23  22  21     1.092037542140   120.13919905   179.95042368
 H     24  23  22     1.092984893904   120.30052867   180.14374117
 H     25  24  23     1.090345851606   119.84806154   179.98077287
 H     28  27  26     1.102206537375   111.06438724    61.96812269
 H     28  27  26     1.102029460079   111.42301158   299.80910726
 H     28  27  26     1.096699342782   106.31542032   180.93626648
 O     29  19   5     1.208263254473   117.42874784    92.56539319
 H     11  10   8     1.098963603626   110.68519332    57.91103635
 H      2   1   3     1.089191763132   121.58882580   180.74161359
 C     19   5   4     1.446911639061   112.91791347   200.55650694
 C     42  19   5     1.210672437398   176.96674114    18.85856241
 H     43  42  19     1.077371729997   179.07374210   162.84821378

---------------------------
INTERNAL COORDINATES (A.U.)
---------------------------
 C      0   0   0     0.000000000000     0.00000000     0.00000000
 C      1   0   0     2.730203464931     0.00000000     0.00000000
 C      2   1   0     2.563843142227   117.89065120     0.00000000
 N      3   2   1     2.573632738127   121.98544433     2.52831330
 C      4   3   2     2.720936031786   123.89843530   355.52832314
 C      1   2   3     2.552040598305   121.86191947   359.23588138
 C      4   3   2     2.707846755236   124.30453060   193.28880646
 C      7   4   3     2.881047041642   111.00734568   258.82821882
 O      8   7   4     2.276757551259   124.67390758     2.62647810
 O      8   7   4     2.505188007587   110.61577468   177.56190145
 C     10   8   7     2.687289185840   116.90447207   179.48125947
 H      1   2   3     2.067220595226   118.96170607   180.28077235
 H      3   2   1     2.065410076546   123.02108287   182.00266266
 H      5   4   3     2.088030786108   110.61302296   130.26177842
 H      6   1   2     2.063166715914   121.71606081   181.37396450
 H      7   4   3     2.080177624756   109.93616316    14.64203827
 H     11  10   8     2.077835034506   110.28291347   296.95706397
 H     11  10   8     2.070011570499   106.24483749   177.75249789
 C      5   4   3     3.032647154674   101.62940859   237.13025926
 C     19   5   4     2.945494798830   103.05427016   328.04233866
 C     20  19   5     2.843209813703   115.05683663   240.40296605
 C     21  20  19     2.633074859690   119.71298391   244.92908370
 C     22  21  20     2.639822386206   121.53279518   178.69756553
 C     23  22  21     2.628911076950   119.24328326   359.82446307
 C     24  23  22     2.639886517794   120.53627996     0.13655239
 C     25  24  23     2.637045872419   119.63196087     0.09746899
 O     26  25  24     2.543931504035   124.06159439   179.04281655
 C     27  26  25     2.660867675684   120.01951312     2.43490313
 N     19   5   4     2.870557365897   104.50472386    82.53149460
 O     29  19   5     2.288142588295   117.52637162   278.85462184
 H     20  19   5     2.068890777267   105.33523082   123.83010913
 H     22  21  20     2.066578399587   118.60508459   358.76488500
 H     23  22  21     2.063651882605   120.13919905   179.95042368
 H     24  23  22     2.065442117991   120.30052867   180.14374117
 H     25  24  23     2.060455050793   119.84806154   179.98077287
 H     28  27  26     2.082868498656   111.06438724    61.96812269
 H     28  27  26     2.082533871062   111.42301158   299.80910726
 H     28  27  26     2.072461409109   106.31542032   180.93626648
 O     29  19   5     2.283286648635   117.42874784    92.56539319
 H     11  10   8     2.076740242000   110.68519332    57.91103635
 H      2   1   3     2.058274139643   121.58882580   180.74161359
 C     19   5   4     2.734266737808   112.91791347   200.55650694
 C     42  19   5     2.287839344570   176.96674114    18.85856241
 H     43  42  19     2.035937514123   179.07374210   162.84821378

---------------------
BASIS SET INFORMATION
---------------------
There are 4 groups of distinct atoms

 Group   1 Type C   : 11s6p2d1f contracted to 5s3p2d1f pattern {62111/411/11/1}
 Group   2 Type N   : 11s6p2d1f contracted to 5s3p2d1f pattern {62111/411/11/1}
 Group   3 Type O   : 11s6p2d1f contracted to 5s3p2d1f pattern {62111/411/11/1}
 Group   4 Type H   : 5s1p contracted to 3s1p pattern {311/1}

Atom   0C    basis set group =>   1
Atom   1C    basis set group =>   1
Atom   2C    basis set group =>   1
Atom   3N    basis set group =>   2
Atom   4C    basis set group =>   1
Atom   5C    basis set group =>   1
Atom   6C    basis set group =>   1
Atom   7C    basis set group =>   1
Atom   8O    basis set group =>   3
Atom   9O    basis set group =>   3
Atom  10C    basis set group =>   1
Atom  11H    basis set group =>   4
Atom  12H    basis set group =>   4
Atom  13H    basis set group =>   4
Atom  14H    basis set group =>   4
Atom  15H    basis set group =>   4
Atom  16H    basis set group =>   4
Atom  17H    basis set group =>   4
Atom  18C    basis set group =>   1
Atom  19C    basis set group =>   1
Atom  20C    basis set group =>   1
Atom  21C    basis set group =>   1
Atom  22C    basis set group =>   1
Atom  23C    basis set group =>   1
Atom  24C    basis set group =>   1
Atom  25C    basis set group =>   1
Atom  26O    basis set group =>   3
Atom  27C    basis set group =>   1
Atom  28N    basis set group =>   2
Atom  29O    basis set group =>   3
Atom  30H    basis set group =>   4
Atom  31H    basis set group =>   4
Atom  32H    basis set group =>   4
Atom  33H    basis set group =>   4
Atom  34H    basis set group =>   4
Atom  35H    basis set group =>   4
Atom  36H    basis set group =>   4
Atom  37H    basis set group =>   4
Atom  38O    basis set group =>   3
Atom  39H    basis set group =>   4
Atom  40H    basis set group =>   4
Atom  41C    basis set group =>   1
Atom  42C    basis set group =>   1
Atom  43H    basis set group =>   4
---------------------------------
AUXILIARY/J BASIS SET INFORMATION
---------------------------------
There are 4 groups of distinct atoms

 Group   1 Type C   : 12s5p4d2f1g contracted to 6s4p3d1f1g pattern {711111/2111/211/2/1}
 Group   2 Type N   : 12s5p4d2f1g contracted to 6s4p3d1f1g pattern {711111/2111/211/2/1}
 Group   3 Type O   : 12s5p4d2f1g contracted to 6s4p3d1f1g pattern {711111/2111/211/2/1}
 Group   4 Type H   : 5s2p1d contracted to 3s1p1d pattern {311/2/1}

Atom   0C    basis set group =>   1
Atom   1C    basis set group =>   1
Atom   2C    basis set group =>   1
Atom   3N    basis set group =>   2
Atom   4C    basis set group =>   1
Atom   5C    basis set group =>   1
Atom   6C    basis set group =>   1
Atom   7C    basis set group =>   1
Atom   8O    basis set group =>   3
Atom   9O    basis set group =>   3
Atom  10C    basis set group =>   1
Atom  11H    basis set group =>   4
Atom  12H    basis set group =>   4
Atom  13H    basis set group =>   4
Atom  14H    basis set group =>   4
Atom  15H    basis set group =>   4
Atom  16H    basis set group =>   4
Atom  17H    basis set group =>   4
Atom  18C    basis set group =>   1
Atom  19C    basis set group =>   1
Atom  20C    basis set group =>   1
Atom  21C    basis set group =>   1
Atom  22C    basis set group =>   1
Atom  23C    basis set group =>   1
Atom  24C    basis set group =>   1
Atom  25C    basis set group =>   1
Atom  26O    basis set group =>   3
Atom  27C    basis set group =>   1
Atom  28N    basis set group =>   2
Atom  29O    basis set group =>   3
Atom  30H    basis set group =>   4
Atom  31H    basis set group =>   4
Atom  32H    basis set group =>   4
Atom  33H    basis set group =>   4
Atom  34H    basis set group =>   4
Atom  35H    basis set group =>   4
Atom  36H    basis set group =>   4
Atom  37H    basis set group =>   4
Atom  38O    basis set group =>   3
Atom  39H    basis set group =>   4
Atom  40H    basis set group =>   4
Atom  41C    basis set group =>   1
Atom  42C    basis set group =>   1
Atom  43H    basis set group =>   4


           ************************************************************
           *        Program running with 24 parallel MPI-processes    *
           *              working on a common directory               *
           ************************************************************
------------------------------------------------------------------------------
                           ORCA GTO INTEGRAL CALCULATION
                           -- RI-GTO INTEGRALS CHOSEN --
------------------------------------------------------------------------------
------------------------------------------------------------------------------
                   ___                                                        
                  /   \      - P O W E R E D   B Y -                         
                 /     \                                                     
                 |  |  |   _    _      __       _____    __    __             
                 |  |  |  | |  | |    /  \     |  _  \  |  |  /  |          
                  \  \/   | |  | |   /    \    | | | |  |  | /  /          
                 / \  \   | |__| |  /  /\  \   | |_| |  |  |/  /          
                |  |  |   |  __  | /  /__\  \  |    /   |      \           
                |  |  |   | |  | | |   __   |  |    \   |  |\   \          
                \     /   | |  | | |  |  |  |  | |\  \  |  | \   \       
                 \___/    |_|  |_| |__|  |__|  |_| \__\ |__|  \__/        
                                                                              
                      - O R C A' S   B I G   F R I E N D -                    
                                      &                                       
                       - I N T E G R A L  F E E D E R -                       
                                                                              
 v1 FN, 2020, v2 2021                                                         
------------------------------------------------------------------------------


Reading SHARK input file 3_CCH/3_CCH.SHARKINP.tmp ... ok
----------------------
SHARK INTEGRAL PACKAGE
----------------------

Number of atoms                             ...     44
Number of basis functions                   ...    914
Number of shells                            ...    358
Maximum angular momentum                    ...      3
Integral batch strategy                     ... SHARK/LIBINT Hybrid
RI-J (if used) integral strategy            ... SPLIT-RIJ (Revised 2003 algorithm where possible)
Printlevel                                  ...      1
Contraction scheme used                     ... SEGMENTED contraction
Coulomb Range Separation                    ... NOT USED
Exchange Range Separation                   ... NOT USED
Finite Nucleus Model                        ... NOT USED
Auxiliary Coulomb fitting basis             ... AVAILABLE
   # of basis functions in Aux-J            ...   1472
   # of shells in Aux-J                     ...    480
   Maximum angular momentum in Aux-J        ...      4
Auxiliary J/K fitting basis                 ... NOT available
Auxiliary Correlation fitting basis         ... NOT available
Auxiliary 'external' fitting basis          ... NOT available
Integral threshold                          ...     2.500000e-11
Primitive cut-off                           ...     2.500000e-12
Primitive pair pre-selection threshold      ...     2.500000e-12

Calculating pre-screening integrals         ... done (  0.1 sec) Dimension = 358
Organizing shell pair data                  ... done (  0.6 sec)
Shell pair information
Total number of shell pairs                 ...     64261
Shell pairs after pre-screening             ...     47989
Total number of primitive shell pairs       ...    198132
Primitive shell pairs kept                  ...     97006
          la=0 lb=0:  12076 shell pairs
          la=1 lb=0:  13661 shell pairs
          la=1 lb=1:   3869 shell pairs
          la=2 lb=0:   6948 shell pairs
          la=2 lb=1:   3996 shell pairs
          la=2 lb=2:   1059 shell pairs
          la=3 lb=0:   3223 shell pairs
          la=3 lb=1:   1922 shell pairs
          la=3 lb=2:    983 shell pairs
          la=3 lb=3:    252 shell pairs

Calculating one electron integrals          ... done (  0.1 sec)
Calculating RI/J V-Matrix + Cholesky decomp.... done (  0.2 sec)
Calculating Nuclear repulsion               ... done (  0.0 sec) ENN=   2541.683981084721 Eh

SHARK setup successfully completed in   1.7 seconds

Maximum memory used throughout the entire GTOINT-calculation: 72.0 MB


           ************************************************************
           *        Program running with 24 parallel MPI-processes    *
           *              working on a common directory               *
           ************************************************************
-------------------------------------------------------------------------------
                                 ORCA SCF
-------------------------------------------------------------------------------

------------
SCF SETTINGS
------------
Hamiltonian:
 Density Functional     Method          .... DFT(GTOs)
 Exchange Functional    Exchange        .... PBE
   PBE kappa parameter   XKappa         ....  0.804000
   PBE mue parameter    XMuePBE         ....  0.219520
 Correlation Functional Correlation     .... PBE
   PBE beta parameter  CBetaPBE         ....  0.066725
 LDA part of GGA corr.  LDAOpt          .... PW91-LDA
 Gradients option       PostSCFGGA      .... off
 Hybrid DFT is turned on
   Fraction HF Exchange ScalHFX         ....  0.250000
   Scaling of DF-GGA-X  ScalDFX         ....  0.750000
   Scaling of DF-GGA-C  ScalDFC         ....  1.000000
   Scaling of DF-LDA-C  ScalLDAC        ....  1.000000
   Perturbative correction              ....  0.000000
   Density functional embedding theory  .... OFF
   NL short-range parameter             ....  6.900000
 RI-approximation to the Coulomb term is turned on
   Number of AuxJ basis functions       .... 1472
   RIJ-COSX (HFX calculated with COS-X)).... on


General Settings:
 Integral files         IntName         .... 3_CCH/3_CCH
 Hartree-Fock type      HFTyp           .... RHF
 Total Charge           Charge          ....    0
 Multiplicity           Mult            ....    1
 Number of Electrons    NEL             ....  186
 Basis Dimension        Dim             ....  914
 Nuclear Repulsion      ENuc            ....   2541.6839810847 Eh

Convergence Acceleration:
 DIIS                   CNVDIIS         .... on
   Start iteration      DIISMaxIt       ....    12
   Startup error        DIISStart       ....  0.200000
   # of expansion vecs  DIISMaxEq       ....     5
   Bias factor          DIISBfac        ....   1.050
   Max. coefficient     DIISMaxC        ....  10.000
 Trust-Rad. Augm. Hess. CNVTRAH         .... auto
   Auto Start mean grad. ratio tolernc. ....  1.125000
   Auto Start start iteration           ....    20
   Auto Start num. interpolation iter.  ....    10
   Max. Number of Micro iterations      ....    16
   Max. Number of Macro iterations      .... Maxiter - #DIIS iter
   Number of Davidson start vectors     ....     2
   Converg. threshold I  (grad. norm)   ....   1.000e-05
   Converg. threshold II (energy diff.) ....   1.000e-08
   Grad. Scal. Fac. for Micro threshold ....   0.100
   Minimum threshold for Micro iter.    ....   0.010
   NR start threshold (gradient norm)   ....   0.001
   Initial trust radius                 ....   0.400
   Minimum AH scaling param. (alpha)    ....   1.000
   Maximum AH scaling param. (alpha)    .... 1000.000
   Orbital update algorithm             .... Taylor
   White noise on init. David. guess    .... on
   Maximum white noise                  ....   0.010
   Quad. conv. algorithm                .... NR
 SOSCF                  CNVSOSCF        .... on
   Start iteration      SOSCFMaxIt      ....   150
   Startup grad/error   SOSCFStart      ....  0.003300
 Level Shifting         CNVShift        .... on
   Level shift para.    LevelShift      ....    0.2500
   Turn off err/grad.   ShiftErr        ....    0.0010
 Zerner damping         CNVZerner       .... off
 Static damping         CNVDamp         .... on
   Fraction old density DampFac         ....    0.7000
   Max. Damping (<1)    DampMax         ....    0.9800
   Min. Damping (>=0)   DampMin         ....    0.0000
   Turn off err/grad.   DampErr         ....    0.1000
 Fernandez-Rico         CNVRico         .... off

SCF Procedure:
 Maximum # iterations   MaxIter         ....   800
 SCF integral mode      SCFMode         .... Direct
   Integral package                     .... SHARK and LIBINT hybrid scheme
 Reset frequency        DirectResetFreq ....    20
 Integral Threshold     Thresh          ....  2.500e-11 Eh
 Primitive CutOff       TCut            ....  2.500e-12 Eh

Convergence Tolerance:
 Convergence Check Mode ConvCheckMode   .... Total+1el-Energy
 Convergence forced     ConvForced      .... 0
 Energy Change          TolE            ....  1.000e-08 Eh
 1-El. energy change                    ....  1.000e-05 Eh
 Orbital Gradient       TolG            ....  1.000e-05
 Orbital Rotation angle TolX            ....  1.000e-05
 DIIS Error             TolErr          ....  5.000e-07


Diagonalization of the overlap matrix:
Smallest eigenvalue                        ... 4.770e-06
Time for diagonalization                   ...    0.231 sec
Threshold for overlap eigenvalues          ... 1.000e-08
Number of eigenvalues below threshold      ... 0
Time for construction of square roots      ...    0.154 sec
Total time needed                          ...    0.393 sec

Time for model grid setup =    0.313 sec

------------------------------
INITIAL GUESS: MODEL POTENTIAL
------------------------------
Loading Hartree-Fock densities                     ... done
Calculating cut-offs                               ... done
Initializing the effective Hamiltonian             ... done
Setting up the integral package (SHARK)            ... done
Starting the Coulomb interaction                   ... done (   0.5 sec)
Reading the grid                                   ... done
Mapping shells                                     ... done
Starting the XC term evaluation                    ... done (   0.3 sec)
  promolecular density results
     # of electrons  =    185.994435810
     EX              =   -156.364973373
     EC              =     -6.298098002
     EX+EC           =   -162.663071375
Transforming the Hamiltonian                       ... done (   0.2 sec)
Diagonalizing the Hamiltonian                      ... done (   0.2 sec)
Back transforming the eigenvectors                 ... done (   0.1 sec)
Now organizing SCF variables                       ... done
                      ------------------
                      INITIAL GUESS DONE (   1.7 sec)
                      ------------------
-------------------
DFT GRID GENERATION
-------------------

General Integration Accuracy     IntAcc      ... 4.388
Radial Grid Type                 RadialGrid  ... OptM3 with GC (2021)
Angular Grid (max. ang.)         AngularGrid ... 4 (Lebedev-302)
Angular grid pruning method      GridPruning ... 4 (adaptive)
Weight generation scheme         WeightScheme... Becke
Basis function cutoff            BFCut       ... 1.0000e-11
Integration weight cutoff        WCut        ... 1.0000e-14
Angular grids for H and He will be reduced by one unit
Partially contracted basis set               ... off
Rotationally invariant grid construction     ... off

Total number of grid points                  ...   211806
Total number of batches                      ...     3333
Average number of points per batch           ...       63
Average number of grid points per atom       ...     4814
Time for grid setup =    1.282 sec

--------------------
COSX GRID GENERATION
--------------------

GRIDX 1
-------
General Integration Accuracy     IntAcc      ... 3.816
Radial Grid Type                 RadialGrid  ... OptM3 with GC (2021)
Angular Grid (max. ang.)         AngularGrid ... 1 (Lebedev-50)
Angular grid pruning method      GridPruning ... 4 (adaptive)
Weight generation scheme         WeightScheme... Becke
Basis function cutoff            BFCut       ... 1.0000e-11
Integration weight cutoff        WCut        ... 1.0000e-14
Angular grids for H and He will be reduced by one unit
Partially contracted basis set               ... on
Rotationally invariant grid construction     ... off

Total number of grid points                  ...    26842
Total number of batches                      ...      442
Average number of points per batch           ...       60
Average number of grid points per atom       ...      610
UseSFitting                                  ... on

GRIDX 2
-------
General Integration Accuracy     IntAcc      ... 4.020
Radial Grid Type                 RadialGrid  ... OptM3 with GC (2021)
Angular Grid (max. ang.)         AngularGrid ... 2 (Lebedev-110)
Angular grid pruning method      GridPruning ... 4 (adaptive)
Weight generation scheme         WeightScheme... Becke
Basis function cutoff            BFCut       ... 1.0000e-11
Integration weight cutoff        WCut        ... 1.0000e-14
Angular grids for H and He will be reduced by one unit
Partially contracted basis set               ... on
Rotationally invariant grid construction     ... off

Total number of grid points                  ...    58240
Total number of batches                      ...      935
Average number of points per batch           ...       62
Average number of grid points per atom       ...     1324
UseSFitting                                  ... on

GRIDX 3
-------
General Integration Accuracy     IntAcc      ... 4.338
Radial Grid Type                 RadialGrid  ... OptM3 with GC (2021)
Angular Grid (max. ang.)         AngularGrid ... 3 (Lebedev-194)
Angular grid pruning method      GridPruning ... 4 (adaptive)
Weight generation scheme         WeightScheme... Becke
Basis function cutoff            BFCut       ... 1.0000e-11
Integration weight cutoff        WCut        ... 1.0000e-14
Angular grids for H and He will be reduced by one unit
Partially contracted basis set               ... on
Rotationally invariant grid construction     ... off

Total number of grid points                  ...   127151
Total number of batches                      ...     2008
Average number of points per batch           ...       63
Average number of grid points per atom       ...     2890
UseSFitting                                  ... on

Time for X-Grid setup             =    2.649 sec


--------------------
CPCM SOLVATION MODEL
--------------------
CPCM parameters:
  Epsilon                                         ...      47.2000
  Refrac                                          ...       1.4790
  Rsolv                                           ...       1.3000
  Surface type                                    ... GAUSSIAN VDW
  Epsilon function type                           ...         CPCM
Radii:
 Radius for C  used is    3.8550 Bohr (=   2.0400 Ang.)
 Radius for N  used is    3.5149 Bohr (=   1.8600 Ang.)
 Radius for O  used is    3.4469 Bohr (=   1.8240 Ang.)
 Radius for H  used is    2.4944 Bohr (=   1.3200 Ang.)
Calculating surface                               ...        done! (  0.0s)
GEPOL surface points                              ...         2224
GEPOL Volume                                      ...    2702.8008
GEPOL Surface-area                                ...    1304.2772
Calculating surface distance matrix               ...        done! (  0.1s)
Performing Cholesky decomposition & store         ...        done! (  0.3s)
Overall time for CPCM initialization              ...                 0.5s
--------------
SCF ITERATIONS
--------------
ITER       Energy         Delta-E        Max-DP      RMS-DP      [F,P]     Damp
               ***  Starting incremental Fock matrix formation  ***
  0  -1218.7820579802   0.000000000000 0.16452792  0.00087576  0.2632117 0.7000
  1  -1219.0472886895  -0.265230709337 0.17567624  0.00070042  0.1035725 0.7000
                               ***Turning on DIIS***
  2  -1219.1534291895  -0.106140499974 0.27090858  0.00122763  0.0333578 0.0000
  3  -1219.3299711138  -0.176541924327 0.18506475  0.00058340  0.0530235 0.0000
  4  -1219.3608878954  -0.030916781574 0.06466831  0.00021375  0.0171726 0.0000
  5  -1219.3632608687  -0.002372973253 0.04301497  0.00009624  0.0050090 0.0000
                      *** Initiating the SOSCF procedure ***
                           *** Shutting down DIIS ***
                      *** Re-Reading the Fockian *** 
                      *** Removing any level shift *** 
ITER      Energy       Delta-E        Grad      Rot      Max-DP    RMS-DP
  6  -1219.36341863  -0.0001577606  0.000176  0.000176  0.020789  0.000051
               *** Restarting incremental Fock matrix formation ***
  7  -1219.36346715  -0.0000485162  0.000303  0.000938  0.003766  0.000025
  8  -1219.36345760   0.0000095423  0.000605  0.000681  0.001705  0.000008
  9  -1219.36347265  -0.0000150458  0.000092  0.000226  0.001477  0.000005
 10  -1219.36347205   0.0000005945  0.000154  0.000144  0.000915  0.000003
 11  -1219.36347291  -0.0000008590  0.000013  0.000044  0.002080  0.000005
 12  -1219.36347289   0.0000000227  0.000020  0.000027  0.001351  0.000003
                  ***Gradient check signals convergence***
              ***Rediagonalizing the Fockian in SOSCF/NRSCF***

               *****************************************************
               *                     SUCCESS                       *
               *           SCF CONVERGED AFTER  13 CYCLES          *
               *****************************************************

Old exchange energy                            =    -39.797944620 Eh
New exchange energy                            =    -39.797915629 Eh
Exchange energy change after final integration =      0.000028991 Eh
Total energy after final integration           =  -1219.363443954 Eh
Final COS-X integration done in                =    18.015 sec

----------------
TOTAL SCF ENERGY
----------------

Total Energy       :        -1219.36344395 Eh          -33180.56618 eV

Components:
Nuclear Repulsion  :         2541.68398108 Eh           69162.73729 eV
Electronic Energy  :        -3761.04742504 Eh         -102343.30347 eV
One Electron Energy:        -6717.36684128 Eh         -182788.84456 eV
Two Electron Energy:         2956.31941624 Eh           80445.54109 eV
Max COSX asymmetry :            0.00000231 Eh               0.00006 eV
CPCM Dielectric    :           -0.03226622 Eh              -0.87801 eV

Virial components:
Potential Energy   :        -2432.92934884 Eh          -66203.37330 eV
Kinetic Energy     :         1213.56590489 Eh           33022.80712 eV
Virial Ratio       :            2.00477728


DFT components:
N(Alpha)           :       93.000047960165 electrons
N(Beta)            :       93.000047960165 electrons
N(Total)           :      186.000095920329 electrons
E(X)               :     -119.201632838903 Eh       
E(C)               :       -6.292751829284 Eh       
E(XC)              :     -125.494384668187 Eh       
DFET-embed. en.    :        0.000000000000 Eh       
CPCM Solvation Model Properties:
Surface-charge          :           -0.03072108
Charge-correction       :           -0.00008870 Eh              -0.00241 eV
Free-energy (cav+disp)  :  This term is not implemented in the current solvation scheme

---------------
SCF CONVERGENCE
---------------

  Last Energy change         ...   -5.4674e-08  Tolerance :   1.0000e-08
  Last MAX-Density change    ...    2.8866e-15  Tolerance :   1.0000e-07
  Last RMS-Density change    ...    1.5413e-17  Tolerance :   5.0000e-09
  Last Orbital Gradient      ...    2.2610e-06  Tolerance :   1.0000e-05
  Last Orbital Rotation      ...    7.1670e-06  Tolerance :   1.0000e-05

             **** THE GBW FILE WAS UPDATED (3_CCH/3_CCH.gbw) ****
             **** DENSITY 3_CCH/3_CCH.scfp WAS UPDATED ****
             **** ENERGY FILE WAS UPDATED (3_CCH/3_CCH.en.tmp) ****
             **** THE GBW FILE WAS UPDATED (3_CCH/3_CCH.gbw) ****
             **** DENSITY 3_CCH/3_CCH.scfp WAS UPDATED ****
----------------
ORBITAL ENERGIES
----------------

  NO   OCC          E(Eh)            E(eV) 
   0   2.0000     -19.263392      -524.1836 
   1   2.0000     -19.254464      -523.9406 
   2   2.0000     -19.253679      -523.9193 
   3   2.0000     -19.249795      -523.8136 
   4   2.0000     -19.201932      -522.5111 
   5   2.0000     -14.628039      -398.0492 
   6   2.0000     -14.429637      -392.6504 
   7   2.0000     -10.359753      -281.9032 
   8   2.0000     -10.326118      -280.9879 
   9   2.0000     -10.294656      -280.1318 
  10   2.0000     -10.294052      -280.1154 
  11   2.0000     -10.291879      -280.0563 
  12   2.0000     -10.272814      -279.5375 
  13   2.0000     -10.271268      -279.4954 
  14   2.0000     -10.270921      -279.4860 
  15   2.0000     -10.270231      -279.4672 
  16   2.0000     -10.247872      -278.8588 
  17   2.0000     -10.244028      -278.7542 
  18   2.0000     -10.239327      -278.6262 
  19   2.0000     -10.235654      -278.5263 
  20   2.0000     -10.234179      -278.4862 
  21   2.0000     -10.233897      -278.4785 
  22   2.0000     -10.229394      -278.3560 
  23   2.0000     -10.228077      -278.3201 
  24   2.0000     -10.225021      -278.2370 
  25   2.0000     -10.211913      -277.8803 
  26   2.0000      -1.288127       -35.0517 
  27   2.0000      -1.154424       -31.4135 
  28   2.0000      -1.115233       -30.3470 
  29   2.0000      -1.109541       -30.1921 
  30   2.0000      -1.061841       -28.8942 
  31   2.0000      -1.023208       -27.8429 
  32   2.0000      -0.905845       -24.6493 
  33   2.0000      -0.883011       -24.0280 
  34   2.0000      -0.855907       -23.2904 
  35   2.0000      -0.811592       -22.0845 
  36   2.0000      -0.796951       -21.6861 
  37   2.0000      -0.783380       -21.3169 
  38   2.0000      -0.780327       -21.2338 
  39   2.0000      -0.772924       -21.0323 
  40   2.0000      -0.747036       -20.3279 
  41   2.0000      -0.721511       -19.6333 
  42   2.0000      -0.706107       -19.2142 
  43   2.0000      -0.669390       -18.2150 
  44   2.0000      -0.653287       -17.7768 
  45   2.0000      -0.644245       -17.5308 
  46   2.0000      -0.630230       -17.1494 
  47   2.0000      -0.612620       -16.6702 
  48   2.0000      -0.596618       -16.2348 
  49   2.0000      -0.595046       -16.1920 
  50   2.0000      -0.577596       -15.7172 
  51   2.0000      -0.563980       -15.3467 
  52   2.0000      -0.552506       -15.0344 
  53   2.0000      -0.549527       -14.9534 
  54   2.0000      -0.542147       -14.7526 
  55   2.0000      -0.535115       -14.5612 
  56   2.0000      -0.521473       -14.1900 
  57   2.0000      -0.517391       -14.0789 
  58   2.0000      -0.510078       -13.8799 
  59   2.0000      -0.503741       -13.7075 
  60   2.0000      -0.499224       -13.5846 
  61   2.0000      -0.486116       -13.2279 
  62   2.0000      -0.482816       -13.1381 
  63   2.0000      -0.474415       -12.9095 
  64   2.0000      -0.462480       -12.5847 
  65   2.0000      -0.459911       -12.5148 
  66   2.0000      -0.453224       -12.3328 
  67   2.0000      -0.443080       -12.0568 
  68   2.0000      -0.440620       -11.9899 
  69   2.0000      -0.433206       -11.7881 
  70   2.0000      -0.422941       -11.5088 
  71   2.0000      -0.407082       -11.0773 
  72   2.0000      -0.401418       -10.9231 
  73   2.0000      -0.394863       -10.7448 
  74   2.0000      -0.387539       -10.5455 
  75   2.0000      -0.379883       -10.3371 
  76   2.0000      -0.378471       -10.2987 
  77   2.0000      -0.370559       -10.0834 
  78   2.0000      -0.366944        -9.9851 
  79   2.0000      -0.361353        -9.8329 
  80   2.0000      -0.349773        -9.5178 
  81   2.0000      -0.346661        -9.4331 
  82   2.0000      -0.343530        -9.3479 
  83   2.0000      -0.340358        -9.2616 
  84   2.0000      -0.331881        -9.0309 
  85   2.0000      -0.328341        -8.9346 
  86   2.0000      -0.310957        -8.4616 
  87   2.0000      -0.304596        -8.2885 
  88   2.0000      -0.302199        -8.2232 
  89   2.0000      -0.296769        -8.0755 
  90   2.0000      -0.271731        -7.3942 
  91   2.0000      -0.240508        -6.5445 
  92   2.0000      -0.201700        -5.4885 
  93   0.0000      -0.073625        -2.0034 
  94   0.0000      -0.030129        -0.8198 
  95   0.0000      -0.018481        -0.5029 
  96   0.0000      -0.002350        -0.0639 
  97   0.0000       0.003075         0.0837 
  98   0.0000       0.009636         0.2622 
  99   0.0000       0.018529         0.5042 
 100   0.0000       0.044210         1.2030 
 101   0.0000       0.057223         1.5571 
 102   0.0000       0.062061         1.6888 
 103   0.0000       0.069930         1.9029 
 104   0.0000       0.076603         2.0845 
 105   0.0000       0.082243         2.2379 
 106   0.0000       0.088305         2.4029 
 107   0.0000       0.088524         2.4089 
 108   0.0000       0.092876         2.5273 
 109   0.0000       0.098582         2.6826 
 110   0.0000       0.105771         2.8782 
 111   0.0000       0.108373         2.9490 
 112   0.0000       0.109527         2.9804 
 113   0.0000       0.115310         3.1377 
 114   0.0000       0.124779         3.3954 
 115   0.0000       0.126613         3.4453 
 116   0.0000       0.129731         3.5302 
 117   0.0000       0.136546         3.7156 
 118   0.0000       0.138800         3.7769 
 119   0.0000       0.142743         3.8842 
 120   0.0000       0.147818         4.0223 
 121   0.0000       0.148490         4.0406 
 122   0.0000       0.154237         4.1970 
 123   0.0000       0.158397         4.3102 
 124   0.0000       0.164139         4.4664 
 125   0.0000       0.168272         4.5789 
 126   0.0000       0.179431         4.8826 
 127   0.0000       0.184112         5.0100 
 128   0.0000       0.188992         5.1427 
 129   0.0000       0.196513         5.3474 
 130   0.0000       0.201570         5.4850 
 131   0.0000       0.205101         5.5811 
 132   0.0000       0.209168         5.6918 
 133   0.0000       0.214258         5.8303 
 134   0.0000       0.215600         5.8668 
 135   0.0000       0.220478         5.9995 
 136   0.0000       0.224424         6.1069 
 137   0.0000       0.229358         6.2412 
 138   0.0000       0.233872         6.3640 
 139   0.0000       0.236283         6.4296 
 140   0.0000       0.238736         6.4963 
 141   0.0000       0.247090         6.7237 
 142   0.0000       0.252786         6.8787 
 143   0.0000       0.258265         7.0278 
 144   0.0000       0.259704         7.0669 
 145   0.0000       0.266108         7.2412 
 146   0.0000       0.268288         7.3005 
 147   0.0000       0.275020         7.4837 
 148   0.0000       0.275499         7.4967 
 149   0.0000       0.280628         7.6363 
 150   0.0000       0.285436         7.7671 
 151   0.0000       0.292081         7.9479 
 152   0.0000       0.294728         8.0199 
 153   0.0000       0.304028         8.2730 
 154   0.0000       0.306385         8.3372 
 155   0.0000       0.312798         8.5117 
 156   0.0000       0.315722         8.5912 
 157   0.0000       0.316530         8.6132 
 158   0.0000       0.321574         8.7505 
 159   0.0000       0.322860         8.7855 
 160   0.0000       0.325155         8.8479 
 161   0.0000       0.334086         9.0909 
 162   0.0000       0.338902         9.2220 
 163   0.0000       0.339494         9.2381 
 164   0.0000       0.343481         9.3466 
 165   0.0000       0.349995         9.5238 
 166   0.0000       0.351167         9.5557 
 167   0.0000       0.357733         9.7344 
 168   0.0000       0.359765         9.7897 
 169   0.0000       0.362700         9.8696 
 170   0.0000       0.365301         9.9403 
 171   0.0000       0.369901        10.0655 
 172   0.0000       0.373332        10.1589 
 173   0.0000       0.377037        10.2597 
 174   0.0000       0.382548        10.4097 
 175   0.0000       0.387075        10.5329 
 176   0.0000       0.391423        10.6512 
 177   0.0000       0.392927        10.6921 
 178   0.0000       0.396277        10.7832 
 179   0.0000       0.397334        10.8120 
 180   0.0000       0.403544        10.9810 
 181   0.0000       0.404450        11.0057 
 182   0.0000       0.412092        11.2136 
 183   0.0000       0.416130        11.3235 
 184   0.0000       0.421089        11.4584 
 185   0.0000       0.423599        11.5267 
 186   0.0000       0.426147        11.5960 
 187   0.0000       0.431387        11.7386 
 188   0.0000       0.434881        11.8337 
 189   0.0000       0.437901        11.9159 
 190   0.0000       0.441502        12.0139 
 191   0.0000       0.445664        12.1271 
 192   0.0000       0.452686        12.3182 
 193   0.0000       0.454180        12.3589 
 194   0.0000       0.459043        12.4912 
 195   0.0000       0.461826        12.5669 
 196   0.0000       0.465799        12.6750 
 197   0.0000       0.468654        12.7527 
 198   0.0000       0.472363        12.8537 
 199   0.0000       0.474545        12.9130 
 200   0.0000       0.484384        13.1808 
 201   0.0000       0.486928        13.2500 
 202   0.0000       0.488150        13.2832 
 203   0.0000       0.488775        13.3002 
 204   0.0000       0.494720        13.4620 
 205   0.0000       0.499982        13.6052 
 206   0.0000       0.503141        13.6912 
 207   0.0000       0.510139        13.8816 
 208   0.0000       0.512163        13.9367 
 209   0.0000       0.517143        14.0722 
 210   0.0000       0.523566        14.2469 
 211   0.0000       0.525160        14.2903 
 212   0.0000       0.528763        14.3884 
 213   0.0000       0.534870        14.5546 
 214   0.0000       0.538732        14.6596 
 215   0.0000       0.545958        14.8563 
 216   0.0000       0.550394        14.9770 
 217   0.0000       0.553336        15.0570 
 218   0.0000       0.557860        15.1801 
 219   0.0000       0.564150        15.3513 
 220   0.0000       0.565519        15.3886 
 221   0.0000       0.571889        15.5619 
 222   0.0000       0.575666        15.6647 
 223   0.0000       0.583843        15.8872 
 224   0.0000       0.591788        16.1034 
 225   0.0000       0.595434        16.2026 
 226   0.0000       0.602163        16.3857 
 227   0.0000       0.614849        16.7309 
 228   0.0000       0.620703        16.8902 
 229   0.0000       0.622199        16.9309 
 230   0.0000       0.632543        17.2124 
 231   0.0000       0.639071        17.3900 
 232   0.0000       0.645545        17.5662 
 233   0.0000       0.651838        17.7374 
 234   0.0000       0.660990        17.9865 
 235   0.0000       0.667138        18.1538 
 236   0.0000       0.667751        18.1704 
 237   0.0000       0.673880        18.3372 
 238   0.0000       0.679449        18.4888 
 239   0.0000       0.685388        18.6504 
 240   0.0000       0.693586        18.8734 
 241   0.0000       0.698118        18.9967 
 242   0.0000       0.702560        19.1176 
 243   0.0000       0.707795        19.2601 
 244   0.0000       0.714315        19.4375 
 245   0.0000       0.717175        19.5153 
 246   0.0000       0.719014        19.5654 
 247   0.0000       0.725525        19.7425 
 248   0.0000       0.729748        19.8575 
 249   0.0000       0.738409        20.0931 
 250   0.0000       0.742123        20.1942 
 251   0.0000       0.745223        20.2785 
 252   0.0000       0.752465        20.4756 
 253   0.0000       0.756113        20.5749 
 254   0.0000       0.764608        20.8060 
 255   0.0000       0.769596        20.9418 
 256   0.0000       0.775826        21.1113 
 257   0.0000       0.780394        21.2356 
 258   0.0000       0.788877        21.4664 
 259   0.0000       0.799487        21.7552 
 260   0.0000       0.809281        22.0217 
 261   0.0000       0.811605        22.0849 
 262   0.0000       0.812596        22.1119 
 263   0.0000       0.826723        22.4963 
 264   0.0000       0.829115        22.5614 
 265   0.0000       0.838490        22.8165 
 266   0.0000       0.841841        22.9077 
 267   0.0000       0.845625        23.0106 
 268   0.0000       0.850552        23.1447 
 269   0.0000       0.857088        23.3225 
 270   0.0000       0.867797        23.6140 
 271   0.0000       0.871679        23.7196 
 272   0.0000       0.881271        23.9806 
 273   0.0000       0.884542        24.0696 
 274   0.0000       0.889339        24.2001 
 275   0.0000       0.897019        24.4091 
 276   0.0000       0.908487        24.7212 
 277   0.0000       0.911305        24.7979 
 278   0.0000       0.920070        25.0364 
 279   0.0000       0.925067        25.1723 
 280   0.0000       0.938276        25.5318 
 281   0.0000       0.943464        25.6729 
 282   0.0000       0.945887        25.7389 
 283   0.0000       0.948453        25.8087 
 284   0.0000       0.963142        26.2084 
 285   0.0000       0.968839        26.3635 
 286   0.0000       0.970891        26.4193 
[...]
 24:    249.12   0.000500    2.53  0.000627  (-0.012414  0.013022 -0.017408)
 25:    274.44   0.002295   11.60  0.002610  (-0.048764  0.012350 -0.008913)
 26:    288.72   0.000035    0.18  0.000038  ( 0.001049 -0.003812 -0.004742)
 27:    301.33   0.000344    1.74  0.000356  (-0.003128  0.017748 -0.005611)
 28:    305.68   0.003402   17.19  0.003473  (-0.052291 -0.026281 -0.006945)
 29:    337.27   0.001644    8.31  0.001521  (-0.038702 -0.004706 -0.001017)
 30:    373.98   0.001211    6.12  0.001011  (-0.029289  0.005644 -0.010993)
 31:    387.93   0.012116   61.23  0.009747  ( 0.016720  0.094913  0.021411)
 32:    421.67   0.002267   11.46  0.001678  ( 0.008748 -0.038698 -0.010176)
 33:    469.07   0.001465    7.40  0.000974  (-0.021246 -0.002118  0.022772)
 34:    478.93   0.000881    4.45  0.000574  (-0.005447 -0.020295  0.011521)
 35:    486.52   0.001189    6.01  0.000763  ( 0.022048  0.007512 -0.014845)
 36:    493.21   0.001274    6.44  0.000806  ( 0.002039 -0.026579  0.009769)
 37:    516.97   0.001308    6.61  0.000790  ( 0.015621  0.017932 -0.014966)
 38:    554.34   0.001818    9.19  0.001023  ( 0.000090  0.026521 -0.017890)
 39:    567.65   0.004687   23.69  0.002577  (-0.045299 -0.000846 -0.022888)
 40:    575.12   0.001543    7.80  0.000837  (-0.018558 -0.008725  0.020409)
 41:    590.49   0.004934   24.93  0.002607  ( 0.002059 -0.005819  0.050687)
 42:    610.21   0.002642   13.35  0.001351  (-0.025225  0.015534 -0.021761)
 43:    631.53   0.001420    7.18  0.000702  (-0.025659 -0.006344  0.001776)
 44:    646.84   0.003203   16.19  0.001545  ( 0.001819  0.039266  0.000378)
 45:    671.46   0.012238   61.84  0.005687  (-0.043359  0.061170  0.008103)
 46:    697.49   0.013538   68.41  0.006057  ( 0.054216  0.029040  0.047689)
 47:    710.00   0.010731   54.23  0.004717  (-0.014552 -0.050286 -0.044454)
 48:    711.64   0.007671   38.77  0.003364  (-0.014211  0.045615  0.032883)
 49:    718.63   0.011139   56.29  0.004837  ( 0.043843 -0.049546 -0.021446)
 50:    752.02   0.006208   31.37  0.002576  ( 0.000211  0.050711 -0.002124)
 51:    764.68   0.008847   44.71  0.003610  ( 0.018358 -0.054173  0.018400)
 52:    769.95   0.012618   63.77  0.005114  (-0.021161  0.041943 -0.053920)
 53:    784.04   0.014406   72.80  0.005734  ( 0.010475 -0.072756 -0.018186)
 54:    799.08   0.001345    6.80  0.000525  ( 0.006442 -0.021119 -0.006144)
 55:    827.09   0.029974  151.48  0.011309  ( 0.038084  0.099167  0.004978)
 56:    830.83   0.010183   51.46  0.003825  ( 0.044650  0.038611  0.018451)
 57:    862.81   0.001497    7.57  0.000541  ( 0.019411  0.004871  0.011873)
 58:    872.37   0.003070   15.52  0.001098  ( 0.025592 -0.019506 -0.007930)
 59:    881.69   0.004635   23.43  0.001641  ( 0.015177 -0.008532 -0.036572)
 60:    929.27   0.007534   38.07  0.002530  (-0.008333  0.048239 -0.011554)
 61:    936.63   0.004963   25.08  0.001653  (-0.017046  0.034244  0.013791)
 62:    949.75   0.002562   12.95  0.000842  ( 0.010536  0.025872  0.007845)
 63:    958.35   0.003008   15.20  0.000980  ( 0.005522 -0.030709  0.002457)
 64:    984.42   0.004714   23.82  0.001494  (-0.016155  0.035036 -0.002399)
 65:    989.13   0.000068    0.34  0.000022  (-0.002411  0.003573 -0.001718)
 66:   1000.49   0.000657    3.32  0.000205  ( 0.011191 -0.006548 -0.006074)
 67:   1012.85   0.004767   24.09  0.001469  ( 0.028502 -0.001586 -0.025568)
 68:   1018.26   0.001017    5.14  0.000312  (-0.008705 -0.015138 -0.002592)
 69:   1032.68   0.005519   27.89  0.001668  ( 0.016063 -0.029098  0.023727)
 70:   1045.61   0.010017   50.62  0.002990  (-0.046567  0.028223 -0.004954)
 71:   1072.43   0.011132   56.26  0.003239  ( 0.029930 -0.016292 -0.045585)
 72:   1081.48   0.000986    4.98  0.000284  ( 0.008311  0.009486  0.011196)
 73:   1087.37   0.009835   49.70  0.002823  (-0.006593 -0.028324 -0.044462)
 74:   1147.72   0.013668   69.07  0.003716  ( 0.012351 -0.028687 -0.052353)
 75:   1155.90   0.004505   22.77  0.001216  (-0.013067  0.030383 -0.011060)
 76:   1171.64   0.000268    1.35  0.000071  (-0.000902 -0.004627  0.007013)
 77:   1172.74   0.000123    0.62  0.000033  ( 0.002075 -0.005286  0.000739)
 78:   1174.32   0.000786    3.97  0.000209  ( 0.004302 -0.005993 -0.012425)
 79:   1194.18   0.005424   27.41  0.001417  ( 0.036753 -0.007196  0.003837)
 80:   1206.53   0.002888   14.59  0.000747  (-0.021998  0.008110 -0.014044)
 81:   1206.93   0.003105   15.69  0.000803  ( 0.019637 -0.018543 -0.008560)
 82:   1214.81   0.004378   22.12  0.001125  ( 0.010756  0.006141 -0.031164)
 83:   1239.79   0.005205   26.31  0.001310  (-0.033459 -0.006006 -0.012436)
 84:   1241.48   0.009445   47.73  0.002374  (-0.004670 -0.047889  0.007679)
 85:   1245.73   0.059751  301.96  0.014968  (-0.104271  0.054046 -0.034274)
 86:   1263.37   0.056945  287.78  0.014066  ( 0.104924 -0.047573  0.028174)
 87:   1274.71   0.015797   79.83  0.003867  ( 0.060367  0.002461 -0.014731)
 88:   1309.48   0.070446  356.01  0.016788  ( 0.060376  0.074176  0.087411)
 89:   1315.12   0.003501   17.69  0.000831  ( 0.019402  0.005932  0.020472)
 90:   1326.84   0.006155   31.10  0.001448  ( 0.033629  0.015585  0.008584)
 91:   1352.42   0.021219  107.23  0.004896  ( 0.066428 -0.020922 -0.006772)
 92:   1357.54   0.006456   32.63  0.001484  ( 0.003033 -0.029462 -0.024634)
 93:   1369.17   0.018423   93.10  0.004199  (-0.062563 -0.000267 -0.016873)
 94:   1390.15   0.006442   32.55  0.001446  ( 0.021941 -0.009294 -0.029636)
 95:   1400.24   0.002474   12.50  0.000551  (-0.003974 -0.020045 -0.011565)
 96:   1426.93   0.043053  217.57  0.009416  ( 0.049695 -0.067391 -0.049035)
 97:   1441.65   0.016659   84.19  0.003606  (-0.057545  0.003825  0.016732)
 98:   1465.20   0.004076   20.60  0.000868  ( 0.004340 -0.023358  0.017428)
 99:   1465.63   0.004392   22.19  0.000935  (-0.000462 -0.025911 -0.016233)
100:   1469.04   0.005729   28.95  0.001217  (-0.034763  0.002569  0.001349)
101:   1472.63   0.004801   24.26  0.001017  ( 0.020047 -0.009710  0.022832)
102:   1474.98   0.002470   12.48  0.000523  ( 0.003397  0.018201  0.013407)
103:   1483.23   0.003742   18.91  0.000787  (-0.019616 -0.016145 -0.011913)
104:   1499.90   0.010726   54.20  0.002232  (-0.013463 -0.029119 -0.034675)
105:   1502.68   0.033011  166.83  0.006856  (-0.072418 -0.031894  0.024369)
106:   1543.20   0.032349  163.48  0.006542  ( 0.038840  0.050017  0.050313)
107:   1619.06   0.022584  114.13  0.004353  ( 0.058153 -0.020476  0.023492)
108:   1643.93   0.118180  597.23  0.022434  (-0.037702  0.097838 -0.106958)
109:   1652.83   0.022069  111.53  0.004167  ( 0.013411 -0.005261  0.062922)
110:   1665.78   0.013187   66.64  0.002470  (-0.036276 -0.026310 -0.021499)
111:   1706.59   0.040826  206.32  0.007465  ( 0.083313  0.022379 -0.004849)
112:   1794.48   0.107532  543.42  0.018700  (-0.070030 -0.089109 -0.076521)
113:   2239.54   0.000579    2.93  0.000081  ( 0.005060  0.007414  0.000302)
114:   3028.76   0.003030   15.31  0.000312  (-0.008862 -0.001824  0.015176)
115:   3039.99   0.011616   58.70  0.001192  ( 0.010485 -0.013425 -0.030038)
116:   3072.64   0.006571   33.21  0.000667  (-0.018238  0.017868  0.003933)
117:   3089.99   0.002156   10.90  0.000218  ( 0.012594 -0.006232  0.004505)
118:   3112.86   0.007104   35.90  0.000712  (-0.008823  0.021590 -0.012971)
119:   3143.82   0.000248    1.26  0.000025  ( 0.004595  0.001202 -0.001449)
120:   3156.36   0.003981   20.12  0.000394  (-0.006389 -0.011617  0.014760)
121:   3167.10   0.003437   17.37  0.000339  ( 0.014467  0.009770  0.005821)
122:   3185.97   0.000927    4.68  0.000091  ( 0.005507 -0.002115 -0.007481)
123:   3188.17   0.002891   14.61  0.000283  (-0.014749  0.003547 -0.007268)
124:   3188.79   0.002153   10.88  0.000211  ( 0.010447  0.004420  0.009058)
125:   3196.44   0.001722    8.70  0.000168  (-0.010914 -0.000267  0.006995)
126:   3212.09   0.000230    1.16  0.000022  ( 0.003415  0.003142 -0.000902)
127:   3214.82   0.003183   16.09  0.000309  (-0.011328 -0.009242 -0.009761)
128:   3215.54   0.000693    3.50  0.000067  (-0.005646  0.001393 -0.005779)
129:   3230.59   0.000332    1.68  0.000032  (-0.003188  0.001652  0.004377)
130:   3246.96   0.000605    3.06  0.000058  ( 0.001740  0.004972 -0.005517)
131:   3450.29   0.031390  158.63  0.002839  ( 0.017826  0.031354 -0.039220)

* The epsilon (eps) is given for a Dirac delta lineshape.
** The dipole moment derivative (T) already includes vibrational overlap.

The first frequency considered to be a vibration is 6
The total number of vibrations considered is 126


--------------------------
THERMOCHEMISTRY AT 298.15K
--------------------------

Temperature         ... 298.15 K
Pressure            ... 1.00 atm
Total Mass          ... 354.36 AMU

Throughout the following assumptions are being made:
  (1) The electronic state is orbitally nondegenerate
  (2) There are no thermally accessible electronically excited states
  (3) Hindered rotations indicated by low frequency modes are not
      treated as such but are treated as vibrations and this may
      cause some error
  (4) All equations used are the standard statistical mechanics
      equations for an ideal gas
  (5) All vibrations are strictly harmonic

freq.      26.18  E(vib)   ...       0.56 
freq.      48.38  E(vib)   ...       0.53 
freq.      61.39  E(vib)   ...       0.51 
freq.      69.87  E(vib)   ...       0.50 
freq.      71.95  E(vib)   ...       0.50 
freq.      86.89  E(vib)   ...       0.48 
freq.      97.95  E(vib)   ...       0.46 
freq.     100.27  E(vib)   ...       0.46 
freq.     111.40  E(vib)   ...       0.45 
freq.     120.26  E(vib)   ...       0.44 
freq.     123.43  E(vib)   ...       0.43 
freq.     145.25  E(vib)   ...       0.41 
freq.     149.65  E(vib)   ...       0.40 
freq.     160.74  E(vib)   ...       0.39 
freq.     191.94  E(vib)   ...       0.36 
freq.     200.18  E(vib)   ...       0.35 
freq.     213.63  E(vib)   ...       0.34 
freq.     236.69  E(vib)   ...       0.32 
freq.     249.12  E(vib)   ...       0.31 
freq.     274.44  E(vib)   ...       0.28 
freq.     288.72  E(vib)   ...       0.27 
freq.     301.33  E(vib)   ...       0.26 
freq.     305.68  E(vib)   ...       0.26 
freq.     337.27  E(vib)   ...       0.24 
freq.     373.98  E(vib)   ...       0.21 
freq.     387.93  E(vib)   ...       0.20 
freq.     421.67  E(vib)   ...       0.18 
freq.     469.07  E(vib)   ...       0.16 
freq.     478.93  E(vib)   ...       0.15 
freq.     486.52  E(vib)   ...       0.15 
freq.     493.21  E(vib)   ...       0.14 
freq.     516.97  E(vib)   ...       0.13 
freq.     554.34  E(vib)   ...       0.12 
freq.     567.65  E(vib)   ...       0.11 
freq.     575.12  E(vib)   ...       0.11 
freq.     590.49  E(vib)   ...       0.10 
freq.     610.21  E(vib)   ...       0.10 
freq.     631.53  E(vib)   ...       0.09 
freq.     646.84  E(vib)   ...       0.09 
freq.     671.46  E(vib)   ...       0.08 
freq.     697.49  E(vib)   ...       0.07 
freq.     710.00  E(vib)   ...       0.07 
freq.     711.64  E(vib)   ...       0.07 
freq.     718.63  E(vib)   ...       0.07 
freq.     752.02  E(vib)   ...       0.06 
freq.     764.68  E(vib)   ...       0.06 
freq.     769.95  E(vib)   ...       0.05 
freq.     784.04  E(vib)   ...       0.05 
freq.     799.08  E(vib)   ...       0.05 
freq.     827.09  E(vib)   ...       0.04 
freq.     830.83  E(vib)   ...       0.04 
freq.     862.81  E(vib)   ...       0.04 
freq.     872.37  E(vib)   ...       0.04 
freq.     881.69  E(vib)   ...       0.04 
freq.     929.27  E(vib)   ...       0.03 
freq.     936.63  E(vib)   ...       0.03 
freq.     949.75  E(vib)   ...       0.03 
freq.     958.35  E(vib)   ...       0.03 
freq.     984.42  E(vib)   ...       0.02 
freq.     989.13  E(vib)   ...       0.02 
freq.    1000.49  E(vib)   ...       0.02 
freq.    1012.85  E(vib)   ...       0.02 
freq.    1018.26  E(vib)   ...       0.02 
freq.    1032.68  E(vib)   ...       0.02 
freq.    1045.61  E(vib)   ...       0.02 
freq.    1072.43  E(vib)   ...       0.02 
freq.    1081.48  E(vib)   ...       0.02 
freq.    1087.37  E(vib)   ...       0.02 
freq.    1147.72  E(vib)   ...       0.01 
freq.    1155.90  E(vib)   ...       0.01 
freq.    1171.64  E(vib)   ...       0.01 
freq.    1172.74  E(vib)   ...       0.01 
freq.    1174.32  E(vib)   ...       0.01 
freq.    1194.18  E(vib)   ...       0.01 
freq.    1206.53  E(vib)   ...       0.01 
freq.    1206.93  E(vib)   ...       0.01 
freq.    1214.81  E(vib)   ...       0.01 
freq.    1239.79  E(vib)   ...       0.01 
freq.    1241.48  E(vib)   ...       0.01 
freq.    1245.73  E(vib)   ...       0.01 
freq.    1263.37  E(vib)   ...       0.01 
freq.    1274.71  E(vib)   ...       0.01 
freq.    1309.48  E(vib)   ...       0.01 
freq.    1315.12  E(vib)   ...       0.01 
freq.    1326.84  E(vib)   ...       0.01 
freq.    1352.42  E(vib)   ...       0.01 
freq.    1357.54  E(vib)   ...       0.01 
freq.    1369.17  E(vib)   ...       0.01 
freq.    1390.15  E(vib)   ...       0.00 
freq.    1400.24  E(vib)   ...       0.00 
freq.    1426.93  E(vib)   ...       0.00 
freq.    1441.65  E(vib)   ...       0.00 
freq.    1465.20  E(vib)   ...       0.00 
freq.    1465.63  E(vib)   ...       0.00 
freq.    1469.04  E(vib)   ...       0.00 
freq.    1472.63  E(vib)   ...       0.00 
freq.    1474.98  E(vib)   ...       0.00 
freq.    1483.23  E(vib)   ...       0.00 
freq.    1499.90  E(vib)   ...       0.00 
freq.    1502.68  E(vib)   ...       0.00 
freq.    1543.20  E(vib)   ...       0.00 
freq.    1619.06  E(vib)   ...       0.00 
freq.    1643.93  E(vib)   ...       0.00 
freq.    1652.83  E(vib)   ...       0.00 
freq.    1665.78  E(vib)   ...       0.00 
freq.    1706.59  E(vib)   ...       0.00 
freq.    1794.48  E(vib)   ...       0.00 
freq.    2239.54  E(vib)   ...       0.00 
freq.    3028.76  E(vib)   ...       0.00 
freq.    3039.99  E(vib)   ...       0.00 
freq.    3072.64  E(vib)   ...       0.00 
freq.    3089.99  E(vib)   ...       0.00 
freq.    3112.86  E(vib)   ...       0.00 
freq.    3143.82  E(vib)   ...       0.00 
freq.    3156.36  E(vib)   ...       0.00 
freq.    3167.10  E(vib)   ...       0.00 
freq.    3185.97  E(vib)   ...       0.00 
freq.    3188.17  E(vib)   ...       0.00 
freq.    3188.79  E(vib)   ...       0.00 
freq.    3196.44  E(vib)   ...       0.00 
freq.    3212.09  E(vib)   ...       0.00 
freq.    3214.82  E(vib)   ...       0.00 
freq.    3215.54  E(vib)   ...       0.00 
freq.    3230.59  E(vib)   ...       0.00 
freq.    3246.96  E(vib)   ...       0.00 
freq.    3450.29  E(vib)   ...       0.00 

------------
INNER ENERGY
------------

The inner energy is: U= E(el) + E(ZPE) + E(vib) + E(rot) + E(trans)
    E(el)   - is the total energy from the electronic structure calculation
              = E(kin-el) + E(nuc-el) + E(el-el) + E(nuc-nuc)
    E(ZPE)  - the the zero temperature vibrational energy from the frequency calculation
    E(vib)  - the the finite temperature correction to E(ZPE) due to population
              of excited vibrational states
    E(rot)  - is the rotational thermal energy
    E(trans)- is the translational thermal energy

Summary of contributions to the inner energy U:
Electronic energy                ...  -1219.42643231 Eh
Zero point energy                ...      0.34393231 Eh     215.82 kcal/mol
Thermal vibrational correction   ...      0.02058443 Eh      12.92 kcal/mol
Thermal rotational correction    ...      0.00141627 Eh       0.89 kcal/mol
Thermal translational correction ...      0.00141627 Eh       0.89 kcal/mol
-----------------------------------------------------------------------
Total thermal energy                  -1219.05908304 Eh


Summary of corrections to the electronic energy:
(perhaps to be used in another calculation)
Total thermal correction                  0.02341697 Eh      14.69 kcal/mol
Non-thermal (ZPE) correction              0.34393231 Eh     215.82 kcal/mol
-----------------------------------------------------------------------
Total correction                          0.36734927 Eh     230.51 kcal/mol


--------
ENTHALPY
--------

The enthalpy is H = U + kB*T
                kB is Boltzmann's constant
Total free energy                 ...  -1219.05908304 Eh 
Thermal Enthalpy correction       ...      0.00094421 Eh       0.59 kcal/mol
-----------------------------------------------------------------------
Total Enthalpy                    ...  -1219.05813883 Eh


Note: Only C1 symmetry has been detected, increase convergence thresholds 
      if your molecule has a higher symmetry. Symmetry factor of 1.0 is   
      used for the rotational entropy correction. 
 

Note: Rotational entropy computed according to Herzberg 
Infrared and Raman Spectra, Chapter V,1, Van Nostrand Reinhold, 1945 
Point Group:  C1, Symmetry Number:   1  
Rotational constants in cm-1:     0.011368     0.006899     0.005623 

Vibrational entropy computed according to the QRRHO of S. Grimme
Chem.Eur.J. 2012 18 9955


-------
ENTROPY
-------

The entropy contributions are T*S = T*(S(el)+S(vib)+S(rot)+S(trans))
     S(el)   - electronic entropy
     S(vib)  - vibrational entropy
     S(rot)  - rotational entropy
     S(trans)- translational entropy
The entropies will be listed as multiplied by the temperature to get
units of energy

Electronic entropy                ...      0.00000000 Eh      0.00 kcal/mol
Vibrational entropy               ...      0.03650663 Eh     22.91 kcal/mol
Rotational entropy                ...      0.01641952 Eh     10.30 kcal/mol
Translational entropy             ...      0.02066304 Eh     12.97 kcal/mol
-----------------------------------------------------------------------
Final entropy term                ...      0.07358918 Eh     46.18 kcal/mol

In case the symmetry of your molecule has not been determined correctly
or in case you have a reason to use a different symmetry number we print 
out the resulting rotational entropy values for sn=1,12 :
 --------------------------------------------------------
|  sn= 1 | S(rot)=       0.01641952 Eh     10.30 kcal/mol|
|  sn= 2 | S(rot)=       0.01576506 Eh      9.89 kcal/mol|
|  sn= 3 | S(rot)=       0.01538223 Eh      9.65 kcal/mol|
|  sn= 4 | S(rot)=       0.01511060 Eh      9.48 kcal/mol|
|  sn= 5 | S(rot)=       0.01489991 Eh      9.35 kcal/mol|
|  sn= 6 | S(rot)=       0.01472777 Eh      9.24 kcal/mol|
|  sn= 7 | S(rot)=       0.01458222 Eh      9.15 kcal/mol|
|  sn= 8 | S(rot)=       0.01445615 Eh      9.07 kcal/mol|
|  sn= 9 | S(rot)=       0.01434494 Eh      9.00 kcal/mol|
|  sn=10 | S(rot)=       0.01424546 Eh      8.94 kcal/mol|
|  sn=11 | S(rot)=       0.01415547 Eh      8.88 kcal/mol|
|  sn=12 | S(rot)=       0.01407331 Eh      8.83 kcal/mol|
 --------------------------------------------------------


-------------------
GIBBS FREE ENERGY
-------------------

The Gibbs free energy is G = H - T*S

Total enthalpy                    ...  -1219.05813883 Eh 
Total entropy correction          ...     -0.07358918 Eh    -46.18 kcal/mol
-----------------------------------------------------------------------
Final Gibbs free energy         ...  -1219.13172801 Eh

For completeness - the Gibbs free energy minus the electronic energy
G-E(el)                           ...      0.29470430 Eh    184.93 kcal/mol


Timings for individual modules:

Sum of individual times         ...     5916.755 sec (=  98.613 min)
GTO integral calculation        ...       39.956 sec (=   0.666 min)   0.7 %
SCF iterations                  ...     1759.023 sec (=  29.317 min)  29.7 %
SCF Gradient evaluation         ...      435.582 sec (=   7.260 min)   7.4 %
Geometry relaxation             ...        1.907 sec (=   0.032 min)   0.0 %
Analytical frequency calculation...     3680.287 sec (=  61.338 min)  62.2 %
                             ****ORCA TERMINATED NORMALLY****
TOTAL RUN TIME: 0 days 1 hours 39 minutes 24 seconds 123 msec
