
                                 *****************
                                 * O   R   C   A *
                                 *****************

                                            #,                                       
                                            ###                                      
                                            ####                                     
                                            #####                                    
                                            ######                                   
                                           ########,                                 
                                     ,,################,,,,,                         
                               ,,#################################,,                 
                          ,,##########################################,,             
                       ,#########################################, ''#####,          
                    ,#############################################,,   '####,        
                  ,##################################################,,,,####,       
                ,###########''''           ''''###############################       
              ,#####''   ,,,,##########,,,,          '''####'''          '####       
            ,##' ,,,,###########################,,,                        '##       
           ' ,,###''''                  '''############,,,                           
         ,,##''                                '''############,,,,        ,,,,,,###''
      ,#''                                            '''#######################'''  
     '                                                          ''''####''''         
             ,#######,   #######,   ,#######,      ##                                
            ,#'     '#,  ##    ##  ,#'     '#,    #''#        ######   ,####,        
            ##       ##  ##   ,#'  ##            #'  '#       #        #'  '#        
            ##       ##  #######   ##           ,######,      #####,   #    #        
            '#,     ,#'  ##    ##  '#,     ,#' ,#      #,         ##   #,  ,#        
             '#######'   ##     ##  '#######'  #'      '#     #####' # '####'        



                  #######################################################
                  #                        -***-                        #
                  #          Department of theory and spectroscopy      #
                  #    Directorship and core code : Frank Neese         #
                  #        Max Planck Institute fuer Kohlenforschung    #
                  #                Kaiser Wilhelm Platz 1               #
                  #                 D-45470 Muelheim/Ruhr               #
                  #                      Germany                        #
                  #                                                     #
                  #                  All rights reserved                #
                  #                        -***-                        #
                  #######################################################


                         Program Version 5.0.4 -  RELEASE  -


 With contributions from (in alphabetic order):
   Daniel Aravena         : Magnetic Suceptibility
   Michael Atanasov       : Ab Initio Ligand Field Theory (pilot matlab implementation)
   Alexander A. Auer      : GIAO ZORA, VPT2 properties, NMR spectrum
   Ute Becker             : Parallelization
   Giovanni Bistoni       : ED, misc. LED, open-shell LED, HFLD
   Martin Brehm           : Molecular dynamics
   Dmytro Bykov           : SCF Hessian
   Vijay G. Chilkuri      : MRCI spin determinant printing, contributions to CSF-ICE
   Dipayan Datta          : RHF DLPNO-CCSD density
   Achintya Kumar Dutta   : EOM-CC, STEOM-CC
   Dmitry Ganyushin       : Spin-Orbit,Spin-Spin,Magnetic field MRCI
   Miquel Garcia          : C-PCM and meta-GGA Hessian, CC/C-PCM, Gaussian charge scheme
   Yang Guo               : DLPNO-NEVPT2, F12-NEVPT2, CIM, IAO-localization
   Andreas Hansen         : Spin unrestricted coupled pair/coupled cluster methods
   Benjamin Helmich-Paris : MC-RPA, TRAH-SCF, COSX integrals
   Lee Huntington         : MR-EOM, pCC
   Robert Izsak           : Overlap fitted RIJCOSX, COSX-SCS-MP3, EOM
   Marcus Kettner         : VPT2
   Christian Kollmar      : KDIIS, OOCD, Brueckner-CCSD(T), CCSD density, CASPT2, CASPT2-K
   Simone Kossmann        : Meta GGA functionals, TD-DFT gradient, OOMP2, MP2 Hessian
   Martin Krupicka        : Initial AUTO-CI
   Lucas Lang             : DCDCAS
   Marvin Lechner         : AUTO-CI (C++ implementation), FIC-MRCC
   Dagmar Lenk            : GEPOL surface, SMD
   Dimitrios Liakos       : Extrapolation schemes; Compound Job, initial MDCI parallelization
   Dimitrios Manganas     : Further ROCIS development; embedding schemes
   Dimitrios Pantazis     : SARC Basis sets
   Anastasios Papadopoulos: AUTO-CI, single reference methods and gradients
   Taras Petrenko         : DFT Hessian,TD-DFT gradient, ASA, ECA, R-Raman, ABS, FL, XAS/XES, NRVS
   Peter Pinski           : DLPNO-MP2, DLPNO-MP2 Gradient
   Christoph Reimann      : Effective Core Potentials
   Marius Retegan         : Local ZFS, SOC
   Christoph Riplinger    : Optimizer, TS searches, QM/MM, DLPNO-CCSD(T), (RO)-DLPNO pert. Triples
   Tobias Risthaus        : Range-separated hybrids, TD-DFT gradient, RPA, STAB
   Michael Roemelt        : Original ROCIS implementation
   Masaaki Saitow         : Open-shell DLPNO-CCSD energy and density
   Barbara Sandhoefer     : DKH picture change effects
   Avijit Sen             : IP-ROCIS
   Kantharuban Sivalingam : CASSCF convergence, NEVPT2, FIC-MRCI
   Bernardo de Souza      : ESD, SOC TD-DFT
   Georgi Stoychev        : AutoAux, RI-MP2 NMR, DLPNO-MP2 response
   Willem Van den Heuvel  : Paramagnetic NMR
   Boris Wezisla          : Elementary symmetry handling
   Frank Wennmohs         : Technical directorship


 We gratefully acknowledge several colleagues who have allowed us to
 interface, adapt or use parts of their codes:
   Stefan Grimme, W. Hujo, H. Kruse, P. Pracht,  : VdW corrections, initial TS optimization,
                  C. Bannwarth, S. Ehlert          DFT functionals, gCP, sTDA/sTD-DF
   Ed Valeev, F. Pavosevic, A. Kumar             : LibInt (2-el integral package), F12 methods
   Garnet Chan, S. Sharma, J. Yang, R. Olivares  : DMRG
   Ulf Ekstrom                                   : XCFun DFT Library
   Mihaly Kallay                                 : mrcc  (arbitrary order and MRCC methods)
   Jiri Pittner, Ondrej Demel                    : Mk-CCSD
   Frank Weinhold                                : gennbo (NPA and NBO analysis)
   Christopher J. Cramer and Donald G. Truhlar   : smd solvation model
   Lars Goerigk                                  : TD-DFT with DH, B97 family of functionals
   V. Asgeirsson, H. Jonsson                     : NEB implementation
   FAccTs GmbH                                   : IRC, NEB, NEB-TS, DLPNO-Multilevel, CI-OPT
                                                   MM, QMMM, 2- and 3-layer-ONIOM, Crystal-QMMM,
                                                   LR-CPCM, SF, NACMEs, symmetry and pop. for TD-DFT,
                                                   nearIR, NL-DFT gradient (VV10), updates on ESD,
                                                   ML-optimized integration grids
   S Lehtola, MJT Oliveira, MAL Marques          : LibXC Library
   Liviu Ungur et al                             : ANISO software


 Your calculation uses the libint2 library for the computation of 2-el integrals
 For citations please refer to: http://libint.valeyev.net

 Your ORCA version has been built with support for libXC version: 5.1.0
 For citations please refer to: https://tddft.org/programs/libxc/

 This ORCA versions uses:
   CBLAS   interface :  Fast vector & matrix operations
   LAPACKE interface :  Fast linear algebra routines
   SCALAPACK package :  Parallel linear algebra routines
   Shared memory     :  Shared parallel matrices
   BLAS/LAPACK       :  OpenBLAS 0.3.15  USE64BITINT DYNAMIC_ARCH NO_AFFINITY Haswell SINGLE_THREADED
        Core in use  :  Haswell
   Copyright (c) 2011-2014, The OpenBLAS Project


Your calculation utilizes the atom-pairwise dispersion correction
with the Becke-Johnson damping scheme (D3BJ)
Cite in your paper:
S.Grimme, S.Ehrlich, L.Goerigk, J Comput Chem, (2011), 32, 1456–1465 
S.Grimme, J.Antony, S.Ehrlich and H.Krieg, J.Chem.Phys., 132, (2010), 154104 
   

================================================================================

----- Orbital basis set information -----
Your calculation utilizes the basis: def2-TZVP
   F. Weigend and R. Ahlrichs, Phys. Chem. Chem. Phys. 7, 3297 (2005).

----- AuxJ basis set information -----
Your calculation utilizes the auxiliary basis: def2/J
   F. Weigend, Phys. Chem. Chem. Phys. 8, 1057 (2006).

================================================================================
                                        WARNINGS
                       Please study these warnings very carefully!
================================================================================


WARNING: Geometry Optimization
  ===> : Switching off AutoStart
         For restart on a previous wavefunction, please use MOREAD

INFO   : the flag for use of the SHARK integral package has been found!

================================================================================
                                       INPUT FILE
================================================================================
NAME = 3_CHCHCO2Me/3_CHCHCO2Me.inp
|  1> %pal nprocs 24 end
|  2> ! PBE0 D3BJ def2-TZVP TightSCF OPT FREQ TightOpt
|  3> ! CPCM(dmso)
|  4> %scf
|  5> MaxIter 800
|  6> end
|  7> 
|  8> %geom
|  9> MaxIter 800
| 10> MaxStep 0.15
| 11> end
| 12> 
| 13> *xyz 0 1
| 14> C       3.51578400      2.81930700     -0.78722400
| 15> C       4.38765600      1.99704000      0.02007000
| 16> C       3.92146500      0.78996000      0.42941400
| 17> N       2.69296700      0.33281600      0.06351900
| 18> C       1.72793400      1.10796700     -0.67605200
| 19> C       2.27399100      2.41761000     -1.13442700
| 20> C       2.02868700     -0.78813800      0.65383300
| 21> C       2.03159700     -1.97914000     -0.29866900
| 22> O       2.50296500     -1.97263700     -1.40777400
| 23> O       1.52576500     -3.05170900      0.29348400
| 24> C       1.44375800     -4.23779700     -0.48701400
| 25> H       3.88142800      3.78681900     -1.14360400
| 26> H       4.49923500      0.10960300      1.06029900
| 27> H       1.34459900      0.51604700     -1.52987900
| 28> H       1.63082100      3.03371800     -1.76575800
| 29> H       2.56593300     -1.12463600      1.55277600
| 30> H       1.02049600     -5.00724000      0.16764100
| 31> H       2.44034600     -4.54043900     -0.83784200
| 32> C       0.46645700      1.11436400      0.29099000
| 33> C       0.62318400     -0.21952100      1.08929400
| 34> C      -0.55022800     -1.15567300      1.07772800
| 35> C      -1.16232300     -1.53294800      2.27097600
| 36> C      -2.27426300     -2.37855700      2.28133700
| 37> C      -2.78642400     -2.84646200      1.07513700
| 38> C      -2.19357800     -2.48472700     -0.13754000
| 39> C      -1.07363200     -1.65403400     -0.13088000
| 40> O      -0.41372500     -1.25790500     -1.23583300
| 41> C      -0.90880400     -1.59645500     -2.51134900
| 42> N       0.70665100      2.28734000      1.22058000
| 43> O       1.40620300      2.12282000      2.19575700
| 44> H       0.76578500      0.08811400      2.13042700
| 45> H      -0.76014300     -1.14771100      3.21213000
| 46> H      -2.73897300     -2.66103000      3.22838300
| 47> H      -3.66093500     -3.50196500      1.06568500
| 48> H      -2.60326000     -2.85666800     -1.07710800
| 49> H      -0.21244000     -1.15985700     -3.23734600
| 50> H      -1.91469500     -1.17459300     -2.66734700
| 51> H      -0.94170100     -2.68873000     -2.65184600
| 52> O       0.28974500      3.36481400      0.85768500
| 53> H       0.78826000     -4.07895200     -1.35548000
| 54> H       5.38664600      2.32848800      0.30046000
| 55> C      -0.81051700      1.34121000     -0.45456400
| 56> H      -0.73543500      1.47658400     -1.53804500
| 57> C      -2.02170700      1.34580100      0.10889100
| 58> H      -2.16997400      1.21542000      1.18326100
| 59> C      -3.22865300      1.49939400     -0.72731700
| 60> O      -3.23956700      1.59708400     -1.93530900
| 61> O      -4.33275100      1.50053000      0.01786500
| 62> C      -5.56739000      1.61357400     -0.67654500
| 63> H      -6.35242700      1.59341700      0.08740400
| 64> H      -5.61157400      2.55675000     -1.24025400
| 65> H      -5.69710400      0.77414100     -1.37517500
| 66> *
| 67> 
| 68>                          ****END OF INPUT****
================================================================================

                       *****************************
                       * Geometry Optimization Run *
                       *****************************

Geometry optimization settings:
Update method            Update   .... BFGS
Choice of coordinates    CoordSys .... Z-matrix Internals
Initial Hessian          InHess   .... Almoef's Model

Convergence Tolerances:
Energy Change            TolE     ....  1.0000e-06 Eh
Max. Gradient            TolMAXG  ....  1.0000e-04 Eh/bohr
RMS Gradient             TolRMSG  ....  3.0000e-05 Eh/bohr
Max. Displacement        TolMAXD  ....  1.0000e-03 bohr
RMS Displacement         TolRMSD  ....  6.0000e-04 bohr
Strict Convergence                ....  False
------------------------------------------------------------------------------
                        ORCA OPTIMIZATION COORDINATE SETUP
------------------------------------------------------------------------------

The optimization will be done in new redundant internal coordinates
Making redundant internal coordinates   ...  (new redundants) done
Evaluating the initial hessian          ...  (Almloef) done
Evaluating the coordinates              ...  done
Calculating the B-matrix                .... done
Calculating the G-matrix                .... done
Diagonalizing the G-matrix              .... done
Small eigenvalue found = 2.576e-03
Small eigenvalue found = 4.587e-03
Small eigenvalue found = 7.097e-03
Small eigenvalue found = 8.314e-03
Small eigenvalue found = 1.676e-02
Small eigenvalue found = 1.943e-02
Small eigenvalue found = 2.766e-02
The first mode is                       ....  130
The number of degrees of freedom        ....  150

    -----------------------------------------------------------------
                    Redundant Internal Coordinates


    -----------------------------------------------------------------
         Definition                    Initial Value    Approx d2E/dq
    -----------------------------------------------------------------
      1. B(C   1,C   0)                  1.4450         0.510504   
      2. B(C   2,C   1)                  1.3572         0.704856   
      3. B(N   3,C   2)                  1.3609         0.622719   
      4. B(C   4,N   3)                  1.4419         0.462436   
      5. B(C   5,C   4)                  1.4911         0.430925   
      6. B(C   5,C   0)                  1.3505         0.722260   
      7. B(C   6,N   3)                  1.4305         0.482270   
      8. B(C   7,C   6)                  1.5250         0.380441   
      9. B(O   8,C   7)                  1.2051         1.103621   
     10. B(O   9,C   7)                  1.3255         0.709254   
     11. B(C  10,O   9)                  1.4222         0.497132   
     12. B(H  11,C   0)                  1.0940         0.354880   
     13. B(H  12,C   2)                  1.0930         0.356111   
     14. B(H  13,C   4)                  1.1074         0.337802   
     15. B(H  14,C   5)                  1.0917         0.357842   
     16. B(H  15,C   6)                  1.1000         0.347133   
     17. B(H  16,C  10)                  1.0953         0.353107   
     18. B(H  17,C  10)                  1.0990         0.348354   
     19. B(C  18,C   4)                  1.5895         0.300218   
     20. B(C  19,C  18)                  1.5624         0.331651   
     21. B(C  19,C   6)                  1.5775         0.313800   
     22. B(C  20,C  19)                  1.5011         0.415363   
     23. B(C  21,C  20)                  1.3931         0.617632   
     24. B(C  22,C  21)                  1.3970         0.608964   
     25. B(C  23,C  22)                  1.3915         0.621453   
     26. B(C  24,C  23)                  1.3975         0.607899   
     27. B(C  25,C  24)                  1.3944         0.614760   
     28. B(C  25,C  20)                  1.4082         0.584372   
     29. B(O  26,C  25)                  1.3466         0.656336   
     30. B(C  27,O  26)                  1.4095         0.520932   
     31. B(N  28,C  18)                  1.5158         0.352486   
     32. B(O  29,N  28)                  1.2114         0.966073   
     33. B(H  30,C  19)                  1.0950         0.353601   
     34. B(H  31,C  21)                  1.0936         0.355389   
     35. B(H  32,C  22)                  1.0921         0.357357   
     36. B(H  33,C  23)                  1.0930         0.356217   
     37. B(H  34,C  24)                  1.0904         0.359574   
     38. B(H  35,C  27)                  1.0966         0.351427   
     39. B(H  36,C  27)                  1.1019         0.344734   
     40. B(H  37,C  27)                  1.1018         0.344868   
     41. B(O  38,N  28)                  1.2110         0.967475   
     42. B(H  39,C  10)                  1.0996         0.347609   
     43. B(H  40,C   1)                  1.0892         0.361099   
     44. B(C  41,C  18)                  1.4960         0.423297   
     45. B(H  42,C  41)                  1.0945         0.354217   
     46. B(C  43,C  41)                  1.3358         0.762322   
     47. B(H  44,C  43)                  1.0924         0.356990   
     48. B(C  45,C  43)                  1.4763         0.454991   
     49. B(O  46,C  45)                  1.2120         1.076186   
     50. B(O  47,C  45)                  1.3320         0.692385   
     51. B(C  48,O  47)                  1.4210         0.499314   
     52. B(H  49,C  48)                  1.0956         0.352786   
     53. B(H  50,C  48)                  1.0997         0.347517   
     54. B(H  51,H  36)                  4.4468         0.000000   
     55. B(H  51,C  48)                  1.0998         0.347368   
     56. A(C   5,C   0,H  11)          119.1188         0.361286   
     57. A(C   1,C   0,H  11)          118.9205         0.340720   
     58. A(C   1,C   0,C   5)          121.9490         0.430828   
     59. A(C   0,C   1,C   2)          117.8629         0.428946   
     60. A(C   2,C   1,H  40)          120.5330         0.360854   
     61. A(C   0,C   1,H  40)          121.6034         0.341712   
     62. A(N   3,C   2,H  12)          115.0406         0.350337   
     63. A(C   1,C   2,N   3)          121.8534         0.441657   
     64. A(C   1,C   2,H  12)          123.1015         0.359999   
     65. A(C   2,N   3,C   4)          124.1580         0.406932   
     66. A(C   2,N   3,C   6)          124.8528         0.409968   
     67. A(C   4,N   3,C   6)          108.7918         0.389061   
     68. A(H  13,C   4,C  18)          101.3331         0.309742   
     69. A(N   3,C   4,C  18)          102.7835         0.360773   
     70. A(N   3,C   4,C   5)          112.6273         0.383939   
     71. A(N   3,C   4,H  13)          109.8641         0.330413   
     72. A(C   5,C   4,H  13)          111.0517         0.328559   
     73. A(C   5,C   4,C  18)          118.3018         0.358685   
     74. A(C   4,C   5,H  14)          117.2380         0.331704   
     75. A(C   0,C   5,H  14)          121.5010         0.361799   
     76. A(C   0,C   5,C   4)          121.2601         0.417965   
     77. A(C   7,C   6,C  19)          117.1050         0.353825   
     78. A(N   3,C   6,C  19)          104.1939         0.366130   
     79. A(C   7,C   6,H  15)          105.6991         0.323338   
     80. A(N   3,C   6,H  15)          110.4970         0.334226   
     81. A(N   3,C   6,C   7)          110.6924         0.378476   
     82. A(H  15,C   6,C  19)          108.6534         0.313343   
     83. A(C   6,C   7,O   9)          110.6216         0.404884   
     84. A(C   6,C   7,O   8)          124.8437         0.438131   
     85. A(O   8,C   7,O   9)          124.3868         0.487683   
     86. A(C   7,O   9,C  10)          116.8513         0.421840   
     87. A(H  16,C  10,H  39)          110.0697         0.288346   
     88. A(H  16,C  10,H  17)          110.3497         0.288443   
     89. A(O   9,C  10,H  17)          110.6433         0.336113   
     90. A(H  17,C  10,H  39)          109.1607         0.287736   
     91. A(O   9,C  10,H  39)          110.3242         0.335993   
     92. A(O   9,C  10,H  16)          106.2676         0.336872   
     93. A(C  19,C  18,N  28)          109.3541         0.350400   
     94. A(C   4,C  18,N  28)          104.5047         0.344575   
     95. A(C  19,C  18,C  41)          118.0164         0.363719   
     96. A(C   4,C  18,C  41)          112.0149         0.357597   
     97. A(C   4,C  18,C  19)          103.1681         0.343166   
     98. A(N  28,C  18,C  41)          108.8778         0.365242   
     99. A(C  20,C  19,H  30)          106.5194         0.329043   
    100. A(C  18,C  19,H  30)          105.0125         0.317121   
    101. A(C   6,C  19,H  30)          104.3425         0.314282   
    102. A(C  18,C  19,C  20)          116.7481         0.362545   
    103. A(C   6,C  19,C  20)          118.0050         0.359141   
    104. A(C   6,C  19,C  18)          104.8370         0.345724   
    105. A(C  21,C  20,C  25)          118.4227         0.429180   
    106. A(C  19,C  20,C  25)          121.1881         0.399964   
    107. A(C  19,C  20,C  21)          120.3797         0.403885   
    108. A(C  22,C  21,H  31)          119.9717         0.351056   
    109. A(C  20,C  21,H  31)          118.6953         0.351896   
    110. A(C  20,C  21,C  22)          121.3316         0.432369   
    111. A(C  23,C  22,H  32)          120.5394         0.352592   
    112. A(C  21,C  22,H  32)          120.1125         0.351384   
    113. A(C  21,C  22,C  23)          119.3464         0.432848   
    114. A(C  24,C  23,H  33)          119.1557         0.351090   
    115. A(C  22,C  23,H  33)          120.2441         0.352402   
    116. A(C  22,C  23,C  24)          120.6001         0.432712   
    117. A(C  25,C  24,H  34)          120.6031         0.352315   
    118. A(C  23,C  24,H  34)          120.0032         0.351647   
    119. A(C  23,C  24,C  25)          119.3925         0.431871   
    120. A(C  24,C  25,O  26)          124.3972         0.435001   
    121. A(C  20,C  25,O  26)          114.7082         0.431054   
    122. A(C  20,C  25,C  24)          120.8939         0.428821   
    123. A(C  25,O  26,C  27)          119.9848         0.419530   
    124. A(O  26,C  27,H  36)          110.9044         0.338153   
    125. A(O  26,C  27,H  35)          106.2857         0.339239   
    126. A(H  36,C  27,H  37)          109.5270         0.286911   
    127. A(H  35,C  27,H  37)          109.2223         0.287775   
    128. A(O  26,C  27,H  37)          111.3467         0.338175   
    129. A(H  35,C  27,H  36)          109.4835         0.287757   
    130. A(C  18,N  28,O  29)          118.6919         0.416456   
    131. A(O  29,N  28,O  38)          124.1180         0.497076   
    132. A(C  18,N  28,O  38)          116.7557         0.416563   
    133. A(H  42,C  41,C  43)          118.6417         0.364517   
    134. A(C  18,C  41,C  43)          124.3507         0.420666   
    135. A(C  18,C  41,H  42)          116.9722         0.330168   
    136. A(H  44,C  43,C  45)          117.2926         0.334575   
    137. A(C  41,C  43,C  45)          120.1781         0.426130   
    138. A(C  41,C  43,H  44)          122.5139         0.365003   
    139. A(O  46,C  45,O  47)          123.3707         0.483263   
    140. A(C  43,C  45,O  47)          111.1528         0.416153   
    141. A(C  43,C  45,O  46)          125.4710         0.450496   
    142. A(C  45,O  47,C  48)          116.5418         0.420360   
    143. A(H  50,C  48,H  51)          108.9212         0.287596   
    144. A(H  49,C  48,H  51)          110.1447         0.288274   
    145. A(O  47,C  48,H  51)          110.6203         0.336199   
    146. A(H  49,C  48,H  50)          110.1471         0.288293   
    147. A(O  47,C  48,H  50)          110.7098         0.336223   
    148. A(O  47,C  48,H  49)          106.2811         0.337067   
    149. D(H  40,C   1,C   0,C   5)   -179.7286         0.017761   
    150. D(H  40,C   1,C   0,H  11)      1.5229         0.017761   
    151. D(C   2,C   1,C   0,H  11)   -178.7753         0.017761   
    152. D(C   2,C   1,C   0,C   5)     -0.0268         0.017761   
    153. D(H  12,C   2,C   1,H  40)      1.0904         0.035032   
    154. D(N   3,C   2,C   1,H  40)   -178.0958         0.035032   
    155. D(H  12,C   2,C   1,C   0)   -178.6148         0.035032   
    156. D(N   3,C   2,C   1,C   0)      2.1991         0.035032   
    157. D(C   6,N   3,C   2,C   1)   -167.0615         0.031422   
    158. D(C   6,N   3,C   2,H  12)     13.6909         0.031422   
    159. D(C   4,N   3,C   2,C   1)     -5.8178         0.031422   
    160. D(C   4,N   3,C   2,H  12)    174.9347         0.031422   
    161. D(C   5,C   4,N   3,C   6)    170.2580         0.018258   
    162. D(C   5,C   4,N   3,C   2)      6.4420         0.018258   
    163. D(H  13,C   4,N   3,C   2)    130.8010         0.018258   
    164. D(C  18,C   4,N   3,C   6)     41.8482         0.018258   
    165. D(C  18,C   4,N   3,C   2)   -121.9678         0.018258   
    166. D(H  13,C   4,N   3,C   6)    -65.3829         0.018258   
    167. D(H  14,C   5,C   4,H  13)     51.8503         0.013713   
    168. D(C   0,C   5,C   4,C  18)    115.6747         0.013713   
    169. D(H  14,C   5,C   4,N   3)    175.5532         0.013713   
    170. D(H  14,C   5,C   0,H  11)      0.3233         0.036942   
    171. D(C   0,C   5,C   4,N   3)     -4.1083         0.013713   
    172. D(C   0,C   5,C   4,H  13)   -127.8113         0.013713   
    173. D(H  14,C   5,C   4,C  18)    -64.6638         0.013713   
    174. D(C   4,C   5,C   0,H  11)    179.9704         0.036942   
    175. D(H  14,C   5,C   0,C   1)   -178.4229         0.036942   
    176. D(C   4,C   5,C   0,C   1)      1.2242         0.036942   
    177. D(C   7,C   6,N   3,C   4)     89.1548         0.019899   
    178. D(C   7,C   6,N   3,C   2)   -107.1684         0.019899   
    179. D(H  15,C   6,N   3,C   2)      9.5748         0.019899   
    180. D(C  19,C   6,N   3,C   4)    -37.5658         0.019899   
    181. D(C  19,C   6,N   3,C   2)    126.1110         0.019899   
    182. D(H  15,C   6,N   3,C   4)   -154.1019         0.019899   
    183. D(O   9,C   7,C   6,C  19)    -66.5063         0.010799   
    184. D(O   9,C   7,C   6,N   3)    174.2988         0.010799   
    185. D(O   9,C   7,C   6,H  15)     54.6308         0.010799   
    186. D(O   8,C   7,C   6,C  19)    117.7609         0.010799   
    187. D(O   8,C   7,C   6,H  15)   -121.1019         0.010799   
    188. D(O   8,C   7,C   6,N   3)     -1.4340         0.010799   
    189. D(C  10,O   9,C   7,O   8)     -5.3141         0.037767   
    190. D(C  10,O   9,C   7,C   6)    178.9297         0.037767   
    191. D(H  39,C  10,O   9,C   7)    -61.5070         0.019531   
    192. D(H  17,C  10,O   9,C   7)     59.3945         0.019531   
    193. D(H  16,C  10,O   9,C   7)    179.1990         0.019531   
    194. D(C  41,C  18,C   4,H  13)    -42.2989         0.007509   
    195. D(C  41,C  18,C   4,C   5)     79.3031         0.007509   
    196. D(C  41,C  18,C   4,N   3)   -155.9290         0.007509   
    197. D(N  28,C  18,C   4,C   5)    -38.4128         0.007509   
    198. D(N  28,C  18,C   4,N   3)     86.3551         0.007509   
    199. D(C  19,C  18,C   4,H  13)     85.6491         0.007509   
    200. D(N  28,C  18,C   4,H  13)   -160.0149         0.007509   
    201. D(C  19,C  18,C   4,N   3)    -27.9809         0.007509   
    202. D(C  19,C  18,C   4,C   5)   -152.7489         0.007509   
    203. D(H  30,C  19,C   6,C   7)    144.2784         0.008109   
    204. D(H  30,C  19,C   6,N   3)    -93.1126         0.008109   
    205. D(C  20,C  19,C   6,H  15)    -93.2293         0.008109   
    206. D(C  20,C  19,C   6,C   7)     26.3485         0.008109   
    207. D(C  20,C  19,C   6,N   3)    148.9575         0.008109   
    208. D(C  18,C  19,C   6,H  15)    134.8408         0.008109   
    209. D(C  18,C  19,C   6,C   7)   -105.5814         0.008109   
    210. D(H  30,C  19,C   6,H  15)     24.7006         0.008109   
    211. D(C  18,C  19,C   6,N   3)     17.0275         0.008109   
    212. D(H  30,C  19,C  18,C  41)   -119.5682         0.008948   
    213. D(H  30,C  19,C  18,C   4)    116.3375         0.008948   
    214. D(C  20,C  19,C  18,C  41)     -1.8691         0.008948   
    215. D(C  20,C  19,C  18,N  28)    123.2548         0.008948   
    216. D(C  20,C  19,C  18,C   4)   -125.9634         0.008948   
    217. D(C   6,C  19,C  18,C  41)    130.7765         0.008948   
    218. D(H  30,C  19,C  18,N  28)      5.5557         0.008948   
    219. D(C   6,C  19,C  18,N  28)   -104.0996         0.008948   
    220. D(C   6,C  19,C  18,C   4)      6.6822         0.008948   
    221. D(C  25,C  20,C  19,H  30)    174.7045         0.012766   
    222. D(C  25,C  20,C  19,C  18)     57.8302         0.012766   
    223. D(C  25,C  20,C  19,C   6)    -68.5274         0.012766   
    224. D(C  21,C  20,C  19,H  30)     -4.1582         0.012766   
    225. D(C  21,C  20,C  19,C  18)   -121.0325         0.012766   
    226. D(C  21,C  20,C  19,C   6)    112.6099         0.012766   
    227. D(H  31,C  21,C  20,C  25)   -179.9378         0.026384   
    228. D(H  31,C  21,C  20,C  19)     -1.0441         0.026384   
    229. D(C  22,C  21,C  20,C  25)     -0.3742         0.026384   
    230. D(C  22,C  21,C  20,C  19)    178.5195         0.026384   
    231. D(H  32,C  22,C  21,H  31)     -0.3984         0.025607   
    232. D(H  32,C  22,C  21,C  20)   -179.9564         0.025607   
    233. D(C  23,C  22,C  21,H  31)    179.1252         0.025607   
    234. D(C  23,C  22,C  21,C  20)     -0.4328         0.025607   
    235. D(H  33,C  23,C  22,H  32)      0.0368         0.026732   
    236. D(H  33,C  23,C  22,C  21)   -179.4847         0.026732   
    237. D(C  24,C  23,C  22,H  32)    179.9358         0.026732   
    238. D(C  24,C  23,C  22,C  21)      0.4143         0.026732   
    239. D(H  34,C  24,C  23,H  33)     -0.0710         0.025512   
    240. D(H  34,C  24,C  23,C  22)   -179.9711         0.025512   
    241. D(C  25,C  24,C  23,H  33)   -179.6830         0.025512   
    242. D(C  25,C  24,C  23,C  22)      0.4170         0.025512   
    243. D(O  26,C  25,C  24,H  34)     -0.5292         0.026125   
    244. D(O  26,C  25,C  24,C  23)    179.0803         0.026125   
    245. D(C  20,C  25,C  24,H  34)    179.1415         0.026125   
    246. D(C  20,C  25,C  24,C  23)     -1.2489         0.026125   
    247. D(O  26,C  25,C  20,C  21)   -179.0768         0.023478   
    248. D(O  26,C  25,C  20,C  19)      2.0389         0.023478   
    249. D(C  24,C  25,C  20,C  21)      1.2223         0.023478   
    250. D(C  24,C  25,C  20,C  19)   -177.6620         0.023478   
    251. D(C  27,O  26,C  25,C  24)      5.1146         0.031888   
    252. D(C  27,O  26,C  25,C  20)   -174.5743         0.031888   
    253. D(H  37,C  27,O  26,C  25)    -61.6120         0.021518   
    254. D(H  36,C  27,O  26,C  25)     60.6257         0.021518   
    255. D(H  35,C  27,O  26,C  25)    179.5431         0.021518   
    256. D(O  38,N  28,C  18,C  41)    -31.0560         0.010716   
    257. D(O  38,N  28,C  18,C  19)   -161.3171         0.010716   
    258. D(O  38,N  28,C  18,C   4)     88.7893         0.010716   
    259. D(O  29,N  28,C  18,C  41)    156.1929         0.010716   
    260. D(O  29,N  28,C  18,C  19)     25.9319         0.010716   
    261. D(O  29,N  28,C  18,C   4)    -83.9617         0.010716   
    262. D(C  43,C  41,C  18,N  28)    -67.3987         0.013244   
    263. D(C  43,C  41,C  18,C  19)     57.9589         0.013244   
    264. D(C  43,C  41,C  18,C   4)    177.5283         0.013244   
    265. D(H  42,C  41,C  18,N  28)    114.8033         0.013244   
    266. D(H  42,C  41,C  18,C  19)   -119.8391         0.013244   
    267. D(H  42,C  41,C  18,C   4)     -0.2697         0.013244   
    268. D(C  45,C  43,C  41,H  42)      1.4136         0.041576   
    269. D(C  45,C  43,C  41,C  18)   -176.3502         0.041576   
    270. D(H  44,C  43,C  41,H  42)    179.9466         0.041576   
    271. D(H  44,C  43,C  41,C  18)      2.1827         0.041576   
    272. D(O  47,C  45,C  43,H  44)      2.3831         0.014106   
    273. D(O  47,C  45,C  43,C  41)   -179.0090         0.014106   
    274. D(O  46,C  45,C  43,H  44)   -176.7813         0.014106   
    275. D(O  46,C  45,C  43,C  41)      1.8267         0.014106   
    276. D(C  48,O  47,C  45,O  46)      0.4938         0.035826   
    277. D(C  48,O  47,C  45,C  43)   -178.6913         0.035826   
    278. D(H  51,C  48,O  47,C  45)     60.2383         0.019708   
    279. D(H  50,C  48,O  47,C  45)    -60.6026         0.019708   
    280. D(H  49,C  48,O  47,C  45)    179.7918         0.019708   
    -----------------------------------------------------------------

Number of atoms                         .... 52
Number of degrees of freedom            .... 280

         *************************************************************
         *                GEOMETRY OPTIMIZATION CYCLE   1            *
         *************************************************************
---------------------------------
CARTESIAN COORDINATES (ANGSTROEM)
---------------------------------
  C      3.515784    2.819307   -0.787224
  C      4.387656    1.997040    0.020070
  C      3.921465    0.789960    0.429414
  N      2.692967    0.332816    0.063519
  C      1.727934    1.107967   -0.676052
  C      2.273991    2.417610   -1.134427
  C      2.028687   -0.788138    0.653833
  C      2.031597   -1.979140   -0.298669
  O      2.502965   -1.972637   -1.407774
  O      1.525765   -3.051709    0.293484
  C      1.443758   -4.237797   -0.487014
  H      3.881428    3.786819   -1.143604
  H      4.499235    0.109603    1.060299
  H      1.344599    0.516047   -1.529879
  H      1.630821    3.033718   -1.765758
  H      2.565933   -1.124636    1.552776
  H      1.020496   -5.007240    0.167641
  H      2.440346   -4.540439   -0.837842
  C      0.466457    1.114364    0.290990
  C      0.623184   -0.219521    1.089294
  C     -0.550228   -1.155673    1.077728
  C     -1.162323   -1.532948    2.270976
  C     -2.274263   -2.378557    2.281337
  C     -2.786424   -2.846462    1.075137
  C     -2.193578   -2.484727   -0.137540
  C     -1.073632   -1.654034   -0.130880
  O     -0.413725   -1.257905   -1.235833
  C     -0.908804   -1.596455   -2.511349
  N      0.706651    2.287340    1.220580
  O      1.406203    2.122820    2.195757
  H      0.765785    0.088114    2.130427
  H     -0.760143   -1.147711    3.212130
  H     -2.738973   -2.661030    3.228383
  H     -3.660935   -3.501965    1.065685
  H     -2.603260   -2.856668   -1.077108
  H     -0.212440   -1.159857   -3.237346
  H     -1.914695   -1.174593   -2.667347
  H     -0.941701   -2.688730   -2.651846
  O      0.289745    3.364814    0.857685
  H      0.788260   -4.078952   -1.355480
  H      5.386646    2.328488    0.300460
  C     -0.810517    1.341210   -0.454564
  H     -0.735435    1.476584   -1.538045
  C     -2.021707    1.345801    0.108891
  H     -2.169974    1.215420    1.183261
  C     -3.228653    1.499394   -0.727317
  O     -3.239567    1.597084   -1.935309
  O     -4.332751    1.500530    0.017865
  C     -5.567390    1.613574   -0.676545
  H     -6.352427    1.593417    0.087404
  H     -5.611574    2.556750   -1.240254
  H     -5.697104    0.774141   -1.375175

----------------------------
CARTESIAN COORDINATES (A.U.)
----------------------------
  NO LB      ZA    FRAG     MASS         X           Y           Z
   0 C     6.0000    0    12.011    6.643869    5.327718   -1.487638
   1 C     6.0000    0    12.011    8.291468    3.773859    0.037927
   2 C     6.0000    0    12.011    7.410495    1.492808    0.811475
   3 N     7.0000    0    14.007    5.088970    0.628931    0.120034
   4 C     6.0000    0    12.011    3.265322    2.093754   -1.277553
   5 C     6.0000    0    12.011    4.297220    4.568621   -2.143756
   6 C     6.0000    0    12.011    3.833663   -1.489365    1.235565
   7 C     6.0000    0    12.011    3.839162   -3.740033   -0.564403
   8 O     8.0000    0    15.999    4.729918   -3.727744   -2.660307
   9 O     8.0000    0    15.999    2.883278   -5.766894    0.554604
  10 C     6.0000    0    12.011    2.728307   -8.008276   -0.920323
  11 H     1.0000    0     1.008    7.334836    7.156051   -2.161098
  12 H     1.0000    0     1.008    8.502322    0.207120    2.003675
  13 H     1.0000    0     1.008    2.540924    0.975188   -2.891052
  14 H     1.0000    0     1.008    3.081805    5.732896   -3.336799
  15 H     1.0000    0     1.008    4.848911   -2.125254    2.934321
  16 H     1.0000    0     1.008    1.928458   -9.462312    0.316796
  17 H     1.0000    0     1.008    4.611586   -8.580186   -1.583292
  18 C     6.0000    0    12.011    0.881476    2.105843    0.549891
  19 C     6.0000    0    12.011    1.177647   -0.414835    2.058467
  20 C     6.0000    0    12.011   -1.039780   -2.183905    2.036611
  21 C     6.0000    0    12.011   -2.196472   -2.896852    4.291523
  22 C     6.0000    0    12.011   -4.297734   -4.494821    4.311102
  23 C     6.0000    0    12.011   -5.265578   -5.379034    2.031714
  24 C     6.0000    0    12.011   -4.145262   -4.695454   -0.259913
  25 C     6.0000    0    12.011   -2.028870   -3.125671   -0.247327
  26 O     8.0000    0    15.999   -0.781827   -2.377096   -2.335386
  27 C     6.0000    0    12.011   -1.717391   -3.016863   -4.745762
  28 N     7.0000    0    14.007    1.335377    4.322446    2.306562
  29 O     8.0000    0    15.999    2.657339    4.011548    4.149379
  30 H     1.0000    0     1.008    1.447124    0.166511    4.025924
  31 H     1.0000    0     1.008   -1.436462   -2.168859    6.070046
  32 H     1.0000    0     1.008   -5.175909   -5.028618    6.100760
  33 H     1.0000    0     1.008   -6.918165   -6.617755    2.013853
  34 H     1.0000    0     1.008   -4.919448   -5.398320   -2.035439
  35 H     1.0000    0     1.008   -0.401453   -2.191812   -6.117697
  36 H     1.0000    0     1.008   -3.618249   -2.219659   -5.040555
  37 H     1.0000    0     1.008   -1.779557   -5.080963   -5.011263
  38 O     8.0000    0    15.999    0.547539    6.358577    1.620790
  39 H     1.0000    0     1.008    1.489596   -7.708102   -2.561486
  40 H     1.0000    0     1.008   10.179286    4.400205    0.567787
  41 C     6.0000    0    12.011   -1.531655    2.534520   -0.859001
  42 H     1.0000    0     1.008   -1.389771    2.790339   -2.906484
  43 C     6.0000    0    12.011   -3.820473    2.543195    0.205774
  44 H     1.0000    0     1.008   -4.100657    2.296811    2.236039
  45 C     6.0000    0    12.011   -6.101270    2.833444   -1.374430
  46 O     8.0000    0    15.999   -6.121894    3.018051   -3.657204
  47 O     8.0000    0    15.999   -8.187713    2.835591    0.033760
  48 C     6.0000    0    12.011  -10.520842    3.049213   -1.278485
  49 H     1.0000    0     1.008  -12.004347    3.011122    0.165170
  50 H     1.0000    0     1.008  -10.604338    4.831557   -2.343740
  51 H     1.0000    0     1.008  -10.765966    1.462914   -2.598704

--------------------------------
INTERNAL COORDINATES (ANGSTROEM)
--------------------------------
 C      0   0   0     0.000000000000     0.00000000     0.00000000
 C      1   0   0     1.444993912136     0.00000000     0.00000000
 C      2   1   0     1.357180417342   117.86294146     0.00000000
 N      3   2   1     1.360906728532   121.85337625     2.19907596
 C      4   3   2     1.441912975159   124.15798274   354.18223405
 C      1   2   3     1.350540727956   121.94903801   359.97322168
 C      4   3   2     1.430481180272   124.85283462   192.93845829
 C      7   4   3     1.525042390266   110.69239307   252.83159835
 O      8   7   4     1.205132350183   124.84365089   358.56604620
 O      8   7   4     1.325486871830   110.62155818   174.29880600
 C     10   8   7     1.422219047755   116.85125053   178.92971811
 H      1   2   3     1.093975186775   118.92050034   181.22469012
 H      3   2   1     1.093032343334   123.10149879   181.38523067
 H      5   4   3     1.107400358747   109.86412125   130.80100861
 H      6   1   2     1.091712209387   121.50102367   181.57714340
 H      7   4   3     1.099983038855   110.49698982     9.57484546
 H     11  10   8     1.095338495588   106.26761754   179.19902126
 H     11  10   8     1.099026891160   110.64327266    59.39449920
 C      5   4   3     1.589507902749   102.78347173   238.03216440
 C     19   5   4     1.562402580057   103.16812647   332.01907014
 C     20  19   5     1.501136256708   116.74805986   234.03661514
 C     21  20  19     1.393139441748   120.37969922   238.96748445
 C     22  21  20     1.396986934371   121.33158084   178.51947023
 C     23  22  21     1.391460534455   119.34639660   359.56715693
 C     24  23  22     1.397463450781   120.60006817     0.41427117
 C     25  24  23     1.394408210950   119.39250162     0.41697016
 O     26  25  24     1.346594432448   124.39715045   179.08034910
 C     27  26  25     1.409489405777   119.98481618     5.11460765
 N     19   5   4     1.515817740466   104.50467283    86.35510347
 O     29  19   5     1.211367001545   118.69192569   276.03828512
 H     20  19   5     1.094957653115   105.01254765   116.33749908
 H     22  21  20     1.093584541901   118.69525840   358.95590881
 H     23  22  21     1.092081730433   120.11245583   180.04357758
 H     24  23  22     1.092951514219   120.24414083   180.51530680
 H     25  24  23     1.090397851809   120.00323548   180.02892194
 H     28  27  26     1.096636803189   106.28568730   179.54311549
 H     28  27  26     1.101870966551   110.90438524    60.62574215
 H     28  27  26     1.101765081695   111.34674108   298.38804843
 O     29  19   5     1.210972177441   116.75568583    88.78931366
 H     11  10   8     1.099610183285   110.32419182   298.49296163
 H      2   1   3     1.089246229695   121.60342005   180.29817569
 C     19   5   4     1.495985451570   112.01488248   204.07103744
 H     42  19   5     1.094483670029   116.97219231   359.73034357
 C     42  19   5     1.335845736006   124.35067744   177.52829873
 H     44  42  19     1.092361297992   122.51389420     2.18273127
 C     44  42  19     1.476331018379   120.17813449   183.64978140
 O     46  44  42     1.211984786852   125.47102732     1.82665056
 O     46  44  42     1.332039750617   111.15275238   180.99099411
 C     48  46  44     1.421026971720   116.54184917   181.30870964
 H     49  48  46     1.095585446517   106.28109998   179.79181723
 H     49  48  46     1.099682240246   110.70977716   299.39744401
 H     49  48  46     1.099798781680   110.62033775    60.23826512

---------------------------
INTERNAL COORDINATES (A.U.)
---------------------------
 C      0   0   0     0.000000000000     0.00000000     0.00000000
 C      1   0   0     2.730642759120     0.00000000     0.00000000
 C      2   1   0     2.564699303098   117.86294146     0.00000000
 N      3   2   1     2.571741010737   121.85337625     2.19907596
 C      4   3   2     2.724820631998   124.15798274   354.18223405
 C      1   2   3     2.552152108543   121.94903801   359.97322168
 C      4   3   2     2.703217670442   124.85283462   192.93845829
 C      7   4   3     2.881912460223   110.69239307   252.83159835
 O      8   7   4     2.277370096975   124.84365089   358.56604620
 O      8   7   4     2.504807181867   110.62155818   174.29880600
 C     10   8   7     2.687604502703   116.85125053   178.92971811
 H      1   2   3     2.067313500311   118.92050034   181.22469012
 H      3   2   1     2.065531784419   123.10149879   181.38523067
 H      5   4   3     2.092683398639   109.86412125   130.80100861
 H      6   1   2     2.063037092800   121.50102367   181.57714340
 H      7   4   3     2.078666695395   110.49698982     9.57484546
 H     11  10   8     2.069889780604   106.26761754   179.19902126
 H     11  10   8     2.076859838107   110.64327266    59.39449920
 C      5   4   3     3.003734623899   102.78347173   238.03216440
 C     19   5   4     2.952512987240   103.16812647   332.01907014
 C     20  19   5     2.836736414878   116.74805986   234.03661514
 C     21  20  19     2.632652011268   120.37969922   238.96748445
 C     22  21  20     2.639922718627   121.33158084   178.51947023
 C     23  22  21     2.629479336280   119.34639660   359.56715693
 C     24  23  22     2.640823204141   120.60006817     0.41427117
 C     25  24  23     2.635049637587   119.39250162     0.41697016
 O     26  25  24     2.544694690789   124.39715045   179.08034910
 C     27  26  25     2.663548965582   119.98481618     5.11460765
 N     19   5   4     2.864480398420   104.50467283    86.35510347
 O     29  19   5     2.289151880590   118.69192569   276.03828512
 H     20  19   5     2.069170092628   105.01254765   116.33749908
 H     22  21  20     2.066575288483   118.69525840   358.95590881
 H     23  22  21     2.063735386377   120.11245583   180.04357758
 H     24  23  22     2.065379039529   120.24414083   180.51530680
 H     25  24  23     2.060553316934   120.00323548   180.02892194
 H     28  27  26     2.072343226406   106.28568730   179.54311549
 H     28  27  26     2.082234361701   110.90438524    60.62574215
 H     28  27  26     2.082034268321   111.34674108   298.38804843
 O     29  19   5     2.288405771162   116.75568583    88.78931366
 H     11  10   8     2.077962100480   110.32419182   298.49296163
 H      2   1   3     2.058377066529   121.60342005   180.29817569
 C     19   5   4     2.827002803797   112.01488248   204.07103744
 H     42  19   5     2.068274394405   116.97219231   359.73034357
 C     42  19   5     2.524382598218   124.35067744   177.52829873
 H     44  42  19     2.064263692499   122.51389420     2.18273127
 C     44  42  19     2.789861307750   120.17813449   183.64978140
 O     46  44  42     2.290319325629   125.47102732     1.82665056
 O     46  44  42     2.517190328163   111.15275238   180.99099411
 C     48  46  44     2.685351805467   116.54184917   181.30870964
 H     49  48  46     2.070356450226   106.28109998   179.79181723
 H     49  48  46     2.078098268402   110.70977716   299.39744401
 H     49  48  46     2.078318499796   110.62033775    60.23826512

---------------------
BASIS SET INFORMATION
---------------------
There are 4 groups of distinct atoms

 Group   1 Type C   : 11s6p2d1f contracted to 5s3p2d1f pattern {62111/411/11/1}
 Group   2 Type N   : 11s6p2d1f contracted to 5s3p2d1f pattern {62111/411/11/1}
 Group   3 Type O   : 11s6p2d1f contracted to 5s3p2d1f pattern {62111/411/11/1}
 Group   4 Type H   : 5s1p contracted to 3s1p pattern {311/1}

Atom   0C    basis set group =>   1
Atom   1C    basis set group =>   1
Atom   2C    basis set group =>   1
Atom   3N    basis set group =>   2
Atom   4C    basis set group =>   1
Atom   5C    basis set group =>   1
Atom   6C    basis set group =>   1
Atom   7C    basis set group =>   1
Atom   8O    basis set group =>   3
Atom   9O    basis set group =>   3
Atom  10C    basis set group =>   1
Atom  11H    basis set group =>   4
Atom  12H    basis set group =>   4
Atom  13H    basis set group =>   4
Atom  14H    basis set group =>   4
Atom  15H    basis set group =>   4
Atom  16H    basis set group =>   4
Atom  17H    basis set group =>   4
Atom  18C    basis set group =>   1
Atom  19C    basis set group =>   1
Atom  20C    basis set group =>   1
Atom  21C    basis set group =>   1
Atom  22C    basis set group =>   1
Atom  23C    basis set group =>   1
Atom  24C    basis set group =>   1
Atom  25C    basis set group =>   1
Atom  26O    basis set group =>   3
Atom  27C    basis set group =>   1
Atom  28N    basis set group =>   2
Atom  29O    basis set group =>   3
Atom  30H    basis set group =>   4
Atom  31H    basis set group =>   4
Atom  32H    basis set group =>   4
Atom  33H    basis set group =>   4
Atom  34H    basis set group =>   4
Atom  35H    basis set group =>   4
Atom  36H    basis set group =>   4
Atom  37H    basis set group =>   4
Atom  38O    basis set group =>   3
Atom  39H    basis set group =>   4
Atom  40H    basis set group =>   4
Atom  41C    basis set group =>   1
Atom  42H    basis set group =>   4
Atom  43C    basis set group =>   1
Atom  44H    basis set group =>   4
Atom  45C    basis set group =>   1
Atom  46O    basis set group =>   3
Atom  47O    basis set group =>   3
Atom  48C    basis set group =>   1
Atom  49H    basis set group =>   4
Atom  50H    basis set group =>   4
Atom  51H    basis set group =>   4
---------------------------------
AUXILIARY/J BASIS SET INFORMATION
---------------------------------
There are 4 groups of distinct atoms

 Group   1 Type C   : 12s5p4d2f1g contracted to 6s4p3d1f1g pattern {711111/2111/211/2/1}
 Group   2 Type N   : 12s5p4d2f1g contracted to 6s4p3d1f1g pattern {711111/2111/211/2/1}
 Group   3 Type O   : 12s5p4d2f1g contracted to 6s4p3d1f1g pattern {711111/2111/211/2/1}
 Group   4 Type H   : 5s2p1d contracted to 3s1p1d pattern {311/2/1}

Atom   0C    basis set group =>   1
Atom   1C    basis set group =>   1
Atom   2C    basis set group =>   1
Atom   3N    basis set group =>   2
Atom   4C    basis set group =>   1
Atom   5C    basis set group =>   1
Atom   6C    basis set group =>   1
Atom   7C    basis set group =>   1
Atom   8O    basis set group =>   3
Atom   9O    basis set group =>   3
Atom  10C    basis set group =>   1
Atom  11H    basis set group =>   4
Atom  12H    basis set group =>   4
Atom  13H    basis set group =>   4
Atom  14H    basis set group =>   4
Atom  15H    basis set group =>   4
Atom  16H    basis set group =>   4
Atom  17H    basis set group =>   4
Atom  18C    basis set group =>   1
Atom  19C    basis set group =>   1
Atom  20C    basis set group =>   1
Atom  21C    basis set group =>   1
Atom  22C    basis set group =>   1
Atom  23C    basis set group =>   1
Atom  24C    basis set group =>   1
Atom  25C    basis set group =>   1
Atom  26O    basis set group =>   3
Atom  27C    basis set group =>   1
Atom  28N    basis set group =>   2
Atom  29O    basis set group =>   3
Atom  30H    basis set group =>   4
Atom  31H    basis set group =>   4
Atom  32H    basis set group =>   4
Atom  33H    basis set group =>   4
Atom  34H    basis set group =>   4
Atom  35H    basis set group =>   4
Atom  36H    basis set group =>   4
Atom  37H    basis set group =>   4
Atom  38O    basis set group =>   3
Atom  39H    basis set group =>   4
Atom  40H    basis set group =>   4
Atom  41C    basis set group =>   1
Atom  42H    basis set group =>   4
Atom  43C    basis set group =>   1
Atom  44H    basis set group =>   4
Atom  45C    basis set group =>   1
Atom  46O    basis set group =>   3
Atom  47O    basis set group =>   3
Atom  48C    basis set group =>   1
Atom  49H    basis set group =>   4
Atom  50H    basis set group =>   4
Atom  51H    basis set group =>   4


           ************************************************************
           *        Program running with 24 parallel MPI-processes    *
           *              working on a common directory               *
           ************************************************************
------------------------------------------------------------------------------
                           ORCA GTO INTEGRAL CALCULATION
                           -- RI-GTO INTEGRALS CHOSEN --
------------------------------------------------------------------------------
------------------------------------------------------------------------------
                   ___                                                        
                  /   \      - P O W E R E D   B Y -                         
                 /     \                                                     
                 |  |  |   _    _      __       _____    __    __             
                 |  |  |  | |  | |    /  \     |  _  \  |  |  /  |          
                  \  \/   | |  | |   /    \    | | | |  |  | /  /          
                 / \  \   | |__| |  /  /\  \   | |_| |  |  |/  /          
                |  |  |   |  __  | /  /__\  \  |    /   |      \           
                |  |  |   | |  | | |   __   |  |    \   |  |\   \          
                \     /   | |  | | |  |  |  |  | |\  \  |  | \   \       
                 \___/    |_|  |_| |__|  |__|  |_| \__\ |__|  \__/        
                                                                              
                      - O R C A' S   B I G   F R I E N D -                    
                                      &                                       
                       - I N T E G R A L  F E E D E R -                       
                                                                              
 v1 FN, 2020, v2 2021                                                         
------------------------------------------------------------------------------


Reading SHARK input file 3_CHCHCO2Me/3_CHCHCO2Me.SHARKINP.tmp ... ok
----------------------
SHARK INTEGRAL PACKAGE
----------------------

Number of atoms                             ...     52
Number of basis functions                   ...   1062
Number of shells                            ...    418
Maximum angular momentum                    ...      3
Integral batch strategy                     ... SHARK/LIBINT Hybrid
RI-J (if used) integral strategy            ... SPLIT-RIJ (Revised 2003 algorithm where possible)
Printlevel                                  ...      1
Contraction scheme used                     ... SEGMENTED contraction
Coulomb Range Separation                    ... NOT USED
Exchange Range Separation                   ... NOT USED
Finite Nucleus Model                        ... NOT USED
Auxiliary Coulomb fitting basis             ... AVAILABLE
   # of basis functions in Aux-J            ...   1712
   # of shells in Aux-J                     ...    560
   Maximum angular momentum in Aux-J        ...      4
Auxiliary J/K fitting basis                 ... NOT available
Auxiliary Correlation fitting basis         ... NOT available
Auxiliary 'external' fitting basis          ... NOT available
Integral threshold                          ...     2.500000e-11
Primitive cut-off                           ...     2.500000e-12
Primitive pair pre-selection threshold      ...     2.500000e-12

Calculating pre-screening integrals         ... done (  0.1 sec) Dimension = 418
Organizing shell pair data                  ... done (  1.5 sec)
Shell pair information
Total number of shell pairs                 ...     87571
Shell pairs after pre-screening             ...     60683
Total number of primitive shell pairs       ...    269004
Primitive shell pairs kept                  ...    120095
          la=0 lb=0:  15522 shell pairs
          la=1 lb=0:  17539 shell pairs
          la=1 lb=1:   4945 shell pairs
          la=2 lb=0:   8649 shell pairs
          la=2 lb=1:   4975 shell pairs
          la=2 lb=2:   1266 shell pairs
          la=3 lb=0:   3987 shell pairs
          la=3 lb=1:   2363 shell pairs
          la=3 lb=2:   1153 shell pairs
          la=3 lb=3:    284 shell pairs

Calculating one electron integrals          ... done (  0.1 sec)
Calculating RI/J V-Matrix + Cholesky decomp.... done (  0.3 sec)
Calculating Nuclear repulsion               ... done (  0.0 sec) ENN=   3249.167628551205 Eh

SHARK setup successfully completed in   4.2 seconds

Maximum memory used throughout the entire GTOINT-calculation: 90.4 MB


           ************************************************************
           *        Program running with 24 parallel MPI-processes    *
           *              working on a common directory               *
           ************************************************************
-------------------------------------------------------------------------------
                                 ORCA SCF
-------------------------------------------------------------------------------

------------
SCF SETTINGS
------------
Hamiltonian:
 Density Functional     Method          .... DFT(GTOs)
 Exchange Functional    Exchange        .... PBE
   PBE kappa parameter   XKappa         ....  0.804000
   PBE mue parameter    XMuePBE         ....  0.219520
 Correlation Functional Correlation     .... PBE
   PBE beta parameter  CBetaPBE         ....  0.066725
 LDA part of GGA corr.  LDAOpt          .... PW91-LDA
 Gradients option       PostSCFGGA      .... off
 Hybrid DFT is turned on
   Fraction HF Exchange ScalHFX         ....  0.250000
   Scaling of DF-GGA-X  ScalDFX         ....  0.750000
   Scaling of DF-GGA-C  ScalDFC         ....  1.000000
   Scaling of DF-LDA-C  ScalLDAC        ....  1.000000
   Perturbative correction              ....  0.000000
   Density functional embedding theory  .... OFF
   NL short-range parameter             ....  6.900000
 RI-approximation to the Coulomb term is turned on
   Number of AuxJ basis functions       .... 1712
   RIJ-COSX (HFX calculated with COS-X)).... on


General Settings:
 Integral files         IntName         .... 3_CHCHCO2Me/3_CHCHCO2Me
 Hartree-Fock type      HFTyp           .... RHF
 Total Charge           Charge          ....    0
 Multiplicity           Mult            ....    1
 Number of Electrons    NEL             ....  218
 Basis Dimension        Dim             .... 1062
 Nuclear Repulsion      ENuc            ....   3249.1676285512 Eh

Convergence Acceleration:
 DIIS                   CNVDIIS         .... on
   Start iteration      DIISMaxIt       ....    12
   Startup error        DIISStart       ....  0.200000
   # of expansion vecs  DIISMaxEq       ....     5
   Bias factor          DIISBfac        ....   1.050
   Max. coefficient     DIISMaxC        ....  10.000
 Trust-Rad. Augm. Hess. CNVTRAH         .... auto
   Auto Start mean grad. ratio tolernc. ....  1.125000
   Auto Start start iteration           ....    20
   Auto Start num. interpolation iter.  ....    10
   Max. Number of Micro iterations      ....    16
   Max. Number of Macro iterations      .... Maxiter - #DIIS iter
   Number of Davidson start vectors     ....     2
   Converg. threshold I  (grad. norm)   ....   1.000e-05
   Converg. threshold II (energy diff.) ....   1.000e-08
   Grad. Scal. Fac. for Micro threshold ....   0.100
   Minimum threshold for Micro iter.    ....   0.010
   NR start threshold (gradient norm)   ....   0.001
   Initial trust radius                 ....   0.400
   Minimum AH scaling param. (alpha)    ....   1.000
   Maximum AH scaling param. (alpha)    .... 1000.000
   Orbital update algorithm             .... Taylor
   White noise on init. David. guess    .... on
   Maximum white noise                  ....   0.010
   Quad. conv. algorithm                .... NR
 SOSCF                  CNVSOSCF        .... on
   Start iteration      SOSCFMaxIt      ....   150
   Startup grad/error   SOSCFStart      ....  0.003300
 Level Shifting         CNVShift        .... on
   Level shift para.    LevelShift      ....    0.2500
   Turn off err/grad.   ShiftErr        ....    0.0010
 Zerner damping         CNVZerner       .... off
 Static damping         CNVDamp         .... on
   Fraction old density DampFac         ....    0.7000
   Max. Damping (<1)    DampMax         ....    0.9800
   Min. Damping (>=0)   DampMin         ....    0.0000
   Turn off err/grad.   DampErr         ....    0.1000
 Fernandez-Rico         CNVRico         .... off

SCF Procedure:
 Maximum # iterations   MaxIter         ....   800
 SCF integral mode      SCFMode         .... Direct
   Integral package                     .... SHARK and LIBINT hybrid scheme
 Reset frequency        DirectResetFreq ....    20
 Integral Threshold     Thresh          ....  2.500e-11 Eh
 Primitive CutOff       TCut            ....  2.500e-12 Eh

Convergence Tolerance:
 Convergence Check Mode ConvCheckMode   .... Total+1el-Energy
 Convergence forced     ConvForced      .... 0
 Energy Change          TolE            ....  1.000e-08 Eh
 1-El. energy change                    ....  1.000e-05 Eh
 Orbital Gradient       TolG            ....  1.000e-05
 Orbital Rotation angle TolX            ....  1.000e-05
 DIIS Error             TolErr          ....  5.000e-07


Diagonalization of the overlap matrix:
Smallest eigenvalue                        ... 5.105e-06
Time for diagonalization                   ...    0.206 sec
Threshold for overlap eigenvalues          ... 1.000e-08
Number of eigenvalues below threshold      ... 0
Time for construction of square roots      ...    0.178 sec
Total time needed                          ...    0.391 sec

Time for model grid setup =    0.537 sec

------------------------------
INITIAL GUESS: MODEL POTENTIAL
------------------------------
Loading Hartree-Fock densities                     ... done
Calculating cut-offs                               ... done
Initializing the effective Hamiltonian             ... done
Setting up the integral package (SHARK)            ... done
Starting the Coulomb interaction                   ... done (   0.8 sec)
Reading the grid                                   ... done
Mapping shells                                     ... done
Starting the XC term evaluation                    ... done (   0.3 sec)
  promolecular density results
     # of electrons  =    217.991183206
     EX              =   -184.136759593
     EC              =     -7.398379088
     EX+EC           =   -191.535138681
Transforming the Hamiltonian                       ... done (   0.1 sec)
Diagonalizing the Hamiltonian                      ... done (   0.2 sec)
Back transforming the eigenvectors                 ... done (   0.1 sec)
Now organizing SCF variables                       ... done
                      ------------------
                      INITIAL GUESS DONE (   2.3 sec)
                      ------------------
-------------------
DFT GRID GENERATION
-------------------

General Integration Accuracy     IntAcc      ... 4.388
Radial Grid Type                 RadialGrid  ... OptM3 with GC (2021)
Angular Grid (max. ang.)         AngularGrid ... 4 (Lebedev-302)
Angular grid pruning method      GridPruning ... 4 (adaptive)
Weight generation scheme         WeightScheme... Becke
Basis function cutoff            BFCut       ... 1.0000e-11
Integration weight cutoff        WCut        ... 1.0000e-14
Angular grids for H and He will be reduced by one unit
Partially contracted basis set               ... off
Rotationally invariant grid construction     ... off

Total number of grid points                  ...   247982
Total number of batches                      ...     3902
Average number of points per batch           ...       63
Average number of grid points per atom       ...     4769
Time for grid setup =    2.054 sec

--------------------
COSX GRID GENERATION
--------------------

GRIDX 1
-------
General Integration Accuracy     IntAcc      ... 3.816
Radial Grid Type                 RadialGrid  ... OptM3 with GC (2021)
Angular Grid (max. ang.)         AngularGrid ... 1 (Lebedev-50)
Angular grid pruning method      GridPruning ... 4 (adaptive)
Weight generation scheme         WeightScheme... Becke
Basis function cutoff            BFCut       ... 1.0000e-11
Integration weight cutoff        WCut        ... 1.0000e-14
Angular grids for H and He will be reduced by one unit
Partially contracted basis set               ... on
Rotationally invariant grid construction     ... off

Total number of grid points                  ...    31374
Total number of batches                      ...      516
Average number of points per batch           ...       60
Average number of grid points per atom       ...      603
UseSFitting                                  ... on

GRIDX 2
-------
General Integration Accuracy     IntAcc      ... 4.020
Radial Grid Type                 RadialGrid  ... OptM3 with GC (2021)
Angular Grid (max. ang.)         AngularGrid ... 2 (Lebedev-110)
Angular grid pruning method      GridPruning ... 4 (adaptive)
Weight generation scheme         WeightScheme... Becke
Basis function cutoff            BFCut       ... 1.0000e-11
Integration weight cutoff        WCut        ... 1.0000e-14
Angular grids for H and He will be reduced by one unit
Partially contracted basis set               ... on
Rotationally invariant grid construction     ... off

Total number of grid points                  ...    67776
Total number of batches                      ...     1083
Average number of points per batch           ...       62
Average number of grid points per atom       ...     1303
UseSFitting                                  ... on

GRIDX 3
-------
General Integration Accuracy     IntAcc      ... 4.338
Radial Grid Type                 RadialGrid  ... OptM3 with GC (2021)
Angular Grid (max. ang.)         AngularGrid ... 3 (Lebedev-194)
Angular grid pruning method      GridPruning ... 4 (adaptive)
Weight generation scheme         WeightScheme... Becke
Basis function cutoff            BFCut       ... 1.0000e-11
Integration weight cutoff        WCut        ... 1.0000e-14
Angular grids for H and He will be reduced by one unit
Partially contracted basis set               ... on
Rotationally invariant grid construction     ... off

Total number of grid points                  ...   148001
Total number of batches                      ...     2340
Average number of points per batch           ...       63
Average number of grid points per atom       ...     2846
UseSFitting                                  ... on

Time for X-Grid setup             =    3.816 sec


--------------------
CPCM SOLVATION MODEL
--------------------
CPCM parameters:
  Epsilon                                         ...      47.2000
  Refrac                                          ...       1.4790
  Rsolv                                           ...       1.3000
  Surface type                                    ... GAUSSIAN VDW
  Epsilon function type                           ...         CPCM
Radii:
 Radius for C  used is    3.8550 Bohr (=   2.0400 Ang.)
 Radius for N  used is    3.5149 Bohr (=   1.8600 Ang.)
 Radius for O  used is    3.4469 Bohr (=   1.8240 Ang.)
 Radius for H  used is    2.4944 Bohr (=   1.3200 Ang.)
Calculating surface                               ...        done! (  0.0s)
GEPOL surface points                              ...         2609
GEPOL Volume                                      ...    3124.8816
GEPOL Surface-area                                ...    1509.5890
Calculating surface distance matrix               ...        done! (  0.1s)
Performing Cholesky decomposition & store         ...        done! (  0.4s)
Overall time for CPCM initialization              ...                 0.5s
--------------
SCF ITERATIONS
--------------
ITER       Energy         Delta-E        Max-DP      RMS-DP      [F,P]     Damp
               ***  Starting incremental Fock matrix formation  ***
  0  -1447.6706356961   0.000000000000 0.13802008  0.00070826  0.2822136 0.7000
  1  -1447.9808780156  -0.310242319484 0.11351637  0.00056398  0.1178834 0.7000
                               ***Turning on DIIS***
  2  -1448.1024979525  -0.121619936872 0.12212972  0.00096858  0.0341562 0.0000
  3  -1448.3070217607  -0.204523808252 0.11783843  0.00046897  0.0573119 0.0000
  4  -1448.3425311233  -0.035509362552 0.03192396  0.00016393  0.0175669 0.0000
  5  -1448.3451558144  -0.002624691099 0.01622988  0.00005323  0.0050654 0.0000
                      *** Initiating the SOSCF procedure ***
                           *** Shutting down DIIS ***
                      *** Re-Reading the Fockian *** 
                      *** Removing any level shift *** 
ITER      Energy       Delta-E        Grad      Rot      Max-DP    RMS-DP
  6  -1448.34532118  -0.0001653693  0.000225  0.000225  0.007238  0.000021
               *** Restarting incremental Fock matrix formation ***
  7  -1448.34535928  -0.0000380990  0.000144  0.000836  0.004823  0.000026
  8  -1448.34535905   0.0000002289  0.000209  0.000201  0.001424  0.000007
  9  -1448.34536301  -0.0000039575  0.000039  0.000128  0.000942  0.000005
 10  -1448.34536289   0.0000001252  0.000083  0.000105  0.000605  0.000002
 11  -1448.34536310  -0.0000002165  0.000016  0.000036  0.000445  0.000002
 12  -1448.34536308   0.0000000212  0.000019  0.000021  0.000165  0.000001
                  ***Gradient check signals convergence***
              ***Rediagonalizing the Fockian in SOSCF/NRSCF***

               *****************************************************
               *                     SUCCESS                       *
               *           SCF CONVERGED AFTER  13 CYCLES          *
               *****************************************************

Old exchange energy                            =    -46.877824813 Eh
New exchange energy                            =    -46.877801159 Eh
Exchange energy change after final integration =      0.000023654 Eh
Total energy after final integration           =  -1448.345339457 Eh
Final COS-X integration done in                =    30.488 sec

----------------
TOTAL SCF ENERGY
----------------

Total Energy       :        -1448.34533946 Eh          -39411.48033 eV

Components:
Nuclear Repulsion  :         3249.16762855 Eh           88414.34607 eV
Electronic Energy  :        -4697.51296801 Eh         -127825.82640 eV
One Electron Energy:        -8441.66592253 Eh         -229709.40795 eV
Two Electron Energy:         3744.15295452 Eh          101883.58155 eV
Max COSX asymmetry :            0.00000303 Eh               0.00008 eV
CPCM Dielectric    :           -0.03637828 Eh              -0.98990 eV

Virial components:
Potential Energy   :        -2889.95015219 Eh          -78639.54160 eV
Kinetic Energy     :         1441.60481273 Eh           39228.06127 eV
Virial Ratio       :            2.00467571


DFT components:
N(Alpha)           :      109.000291160183 electrons
N(Beta)            :      109.000291160183 electrons
N(Total)           :      218.000582320366 electrons
E(X)               :     -140.408705524677 Eh       
E(C)               :       -7.387530676990 Eh       
E(XC)              :     -147.796236201668 Eh       
DFET-embed. en.    :        0.000000000000 Eh       
CPCM Solvation Model Properties:
Surface-charge          :           -0.03246977
Charge-correction       :           -0.00012429 Eh              -0.00338 eV
Free-energy (cav+disp)  :  This term is not implemented in the current solvation scheme

---------------
SCF CONVERGENCE
---------------

  Last Energy change         ...   -2.9833e-08  Tolerance :   1.0000e-08
  Last MAX-Density change    ...    2.2204e-15  Tolerance :   1.0000e-07
  Last RMS-Density change    ...    1.3107e-17  Tolerance :   5.0000e-09
  Last Orbital Gradient      ...    1.8481e-06  Tolerance :   1.0000e-05
  Last Orbital Rotation      ...    6.1170e-06  Tolerance :   1.0000e-05

             **** THE GBW FILE WAS UPDATED (3_CHCHCO2Me/3_CHCHCO2Me.gbw) ****
             **** DENSITY 3_CHCHCO2Me/3_CHCHCO2Me.scfp WAS UPDATED ****
             **** ENERGY FILE WAS UPDATED (3_CHCHCO2Me/3_CHCHCO2Me.en.tmp) ****
             **** THE GBW FILE WAS UPDATED (3_CHCHCO2Me/3_CHCHCO2Me.gbw) ****
             **** DENSITY 3_CHCHCO2Me/3_CHCHCO2Me.scfp WAS UPDATED ****
----------------
ORBITAL ENERGIES
----------------

  NO   OCC          E(Eh)            E(eV) 
   0   2.0000     -19.263431      -524.1846 
   1   2.0000     -19.263139      -524.1767 
   2   2.0000     -19.252163      -523.8780 
   3   2.0000     -19.251884      -523.8704 
   4   2.0000     -19.250415      -523.8304 
   5   2.0000     -19.202165      -522.5175 
   6   2.0000     -19.199068      -522.4332 
   7   2.0000     -14.624135      -397.9429 
   8   2.0000     -14.427690      -392.5974 
   9   2.0000     -10.359345      -281.8921 
  10   2.0000     -10.358713      -281.8749 
  11   2.0000     -10.310906      -280.5740 
  12   2.0000     -10.293444      -280.0989 
  13   2.0000     -10.290438      -280.0171 
  14   2.0000     -10.290351      -280.0147 
  15   2.0000     -10.272815      -279.5375 
  16   2.0000     -10.271844      -279.5111 
  17   2.0000     -10.271345      -279.4975 
  18   2.0000     -10.269554      -279.4488 
  19   2.0000     -10.266573      -279.3677 
  20   2.0000     -10.260138      -279.1925 
  21   2.0000     -10.244756      -278.7740 
  22   2.0000     -10.243065      -278.7280 
  23   2.0000     -10.234290      -278.4892 
  24   2.0000     -10.234018      -278.4818 
  25   2.0000     -10.233934      -278.4795 
  26   2.0000     -10.230024      -278.3731 
  27   2.0000     -10.227144      -278.2947 
  28   2.0000     -10.225376      -278.2466 
  29   2.0000     -10.210677      -277.8466 
  30   2.0000      -1.284407       -34.9505 
  31   2.0000      -1.154488       -31.4152 
  32   2.0000      -1.150532       -31.3076 
  33   2.0000      -1.116581       -30.3837 
  34   2.0000      -1.105051       -30.0700 
  35   2.0000      -1.061821       -28.8936 
  36   2.0000      -1.055813       -28.7301 
  37   2.0000      -1.021936       -27.8083 
  38   2.0000      -0.905137       -24.6300 
  39   2.0000      -0.883536       -24.0422 
  40   2.0000      -0.855460       -23.2783 
  41   2.0000      -0.823764       -22.4158 
  42   2.0000      -0.810456       -22.0536 
  43   2.0000      -0.788460       -21.4551 
  44   2.0000      -0.782691       -21.2981 
  45   2.0000      -0.777273       -21.1507 
  46   2.0000      -0.755323       -20.5534 
  47   2.0000      -0.745924       -20.2976 
  48   2.0000      -0.721019       -19.6199 
  49   2.0000      -0.704720       -19.1764 
  50   2.0000      -0.672324       -18.2949 
  51   2.0000      -0.663382       -18.0515 
  52   2.0000      -0.645817       -17.5736 
  53   2.0000      -0.631422       -17.1819 
  54   2.0000      -0.615721       -16.7546 
  55   2.0000      -0.600470       -16.3396 
  56   2.0000      -0.595948       -16.2166 
  57   2.0000      -0.586271       -15.9532 
  58   2.0000      -0.578049       -15.7295 
  59   2.0000      -0.564221       -15.3532 
  60   2.0000      -0.553431       -15.0596 
  61   2.0000      -0.550025       -14.9669 
  62   2.0000      -0.546257       -14.8644 
  63   2.0000      -0.540983       -14.7209 
  64   2.0000      -0.534085       -14.5332 
  65   2.0000      -0.521514       -14.1911 
  66   2.0000      -0.516471       -14.0539 
  67   2.0000      -0.508356       -13.8331 
  68   2.0000      -0.507559       -13.8114 
  69   2.0000      -0.503035       -13.6883 
  70   2.0000      -0.501262       -13.6400 
  71   2.0000      -0.493437       -13.4271 
  72   2.0000      -0.485109       -13.2005 
  73   2.0000      -0.483261       -13.1502 
  74   2.0000      -0.470354       -12.7990 
  75   2.0000      -0.461664       -12.5625 
  76   2.0000      -0.455731       -12.4011 
  77   2.0000      -0.452126       -12.3030 
  78   2.0000      -0.443292       -12.0626 
  79   2.0000      -0.440153       -11.9772 
  80   2.0000      -0.436262       -11.8713 
  81   2.0000      -0.430496       -11.7144 
  82   2.0000      -0.419488       -11.4148 
  83   2.0000      -0.416425       -11.3315 
  84   2.0000      -0.415401       -11.3036 
  85   2.0000      -0.403617       -10.9830 
  86   2.0000      -0.397902       -10.8275 
  87   2.0000      -0.390514       -10.6264 
  88   2.0000      -0.379228       -10.3193 
  89   2.0000      -0.378291       -10.2938 
  90   2.0000      -0.376297       -10.2396 
  91   2.0000      -0.374689       -10.1958 
  92   2.0000      -0.367668       -10.0048 
  93   2.0000      -0.364733        -9.9249 
  94   2.0000      -0.358526        -9.7560 
  95   2.0000      -0.348742        -9.4898 
  96   2.0000      -0.346723        -9.4348 
  97   2.0000      -0.342554        -9.3214 
  98   2.0000      -0.334312        -9.0971 
  99   2.0000      -0.329695        -8.9715 
 100   2.0000      -0.328266        -8.9326 
 101   2.0000      -0.327123        -8.9015 
 102   2.0000      -0.310285        -8.4433 
 103   2.0000      -0.307486        -8.3671 
 104   2.0000      -0.298109        -8.1120 
 105   2.0000      -0.290874        -7.9151 
 106   2.0000      -0.270504        -7.3608 
 107   2.0000      -0.241667        -6.5761 
 108   2.0000      -0.200522        -5.4565 
 109   0.0000      -0.072466        -1.9719 
 110   0.0000      -0.059738        -1.6255 
 111   0.0000      -0.028016        -0.7624 
 112   0.0000      -0.018485        -0.5030 
 113   0.0000      -0.002232        -0.0607 
 114   0.0000       0.004073         0.1108 
 115   0.0000       0.041887         1.1398 
 116   0.0000       0.049474         1.3463 
 117   0.0000       0.057755         1.5716 
 118   0.0000       0.066542         1.8107 
 119   0.0000       0.067577         1.8389 
 120   0.0000       0.069140         1.8814 
 121   0.0000       0.073514         2.0004 
 122   0.0000       0.084865         2.3093 
 123   0.0000       0.085893         2.3373 
 124   0.0000       0.092334         2.5125 
 125   0.0000       0.093879         2.5546 
 126   0.0000       0.097001         2.6395 
 127   0.0000       0.100447         2.7333 
 128   0.0000       0.105518         2.8713 
 129   0.0000       0.109014         2.9664 
 130   0.0000       0.115013         3.1297 
 131   0.0000       0.116368         3.1665 
 132   0.0000       0.120628         3.2825 
 133   0.0000       0.126407         3.4397 
 134   0.0000       0.127351         3.4654 
 135   0.0000       0.131465         3.5773 
 136   0.0000       0.134475         3.6593 
 137   0.0000       0.136600         3.7171 
 138   0.0000       0.140747         3.8299 
 139   0.0000       0.144997         3.9456 
 140   0.0000       0.146259         3.9799 
 141   0.0000       0.153440         4.1753 
 142   0.0000       0.158622         4.3163 
 143   0.0000       0.160238         4.3603 
 144   0.0000       0.162331         4.4173 
 145   0.0000       0.173412         4.7188 
 146   0.0000       0.175768         4.7829 
 147   0.0000       0.179830         4.8934 
 148   0.0000       0.183172         4.9844 
 149   0.0000       0.189851         5.1661 
 150   0.0000       0.192945         5.2503 
 151   0.0000       0.195356         5.3159 
 152   0.0000       0.204402         5.5621 
 153   0.0000       0.208785         5.6813 
 154   0.0000       0.212885         5.7929 
 155   0.0000       0.215698         5.8694 
 156   0.0000       0.217295         5.9129 
 157   0.0000       0.221390         6.0243 
[...]
 61:    811.78   0.012988   65.63  0.004993  ( 0.049132 -0.028969 -0.041708)
 62:    832.09   0.013112   66.26  0.004917  ( 0.051084 -0.037282 -0.030295)
 63:    846.88   0.019690   99.51  0.007256  (-0.062747 -0.008246  0.057012)
 64:    868.27   0.001810    9.15  0.000651  ( 0.005492  0.024227  0.005793)
 65:    872.22   0.001715    8.67  0.000613  (-0.006232 -0.023600 -0.004205)
 66:    892.00   0.003535   17.87  0.001237  (-0.017553 -0.016797 -0.025427)
 67:    896.73   0.001302    6.58  0.000453  (-0.018418  0.009627  0.004608)
 68:    930.38   0.002433   12.30  0.000816  ( 0.017965 -0.021234  0.006525)
 69:    939.87   0.002598   13.13  0.000863  (-0.012797  0.025734  0.006048)
 70:    948.08   0.001221    6.17  0.000402  (-0.018839 -0.002192  0.006498)
 71:    956.74   0.002980   15.06  0.000972  (-0.020640  0.023218  0.002606)
 72:    980.93   0.009492   47.97  0.003020  (-0.019764  0.051251 -0.001544)
 73:    981.15   0.013619   68.83  0.004332  ( 0.019455 -0.044996 -0.043914)
 74:    987.90   0.000185    0.93  0.000058  (-0.001460  0.002468  0.007085)
 75:    998.72   0.001961    9.91  0.000613  ( 0.006058  0.022925  0.007115)
 76:   1006.46   0.007324   37.01  0.002271  (-0.023737 -0.040669 -0.007313)
 77:   1015.42   0.001287    6.50  0.000395  ( 0.018940  0.003795  0.004721)
 78:   1018.96   0.004548   22.99  0.001393  ( 0.002191  0.009168  0.036112)
 79:   1040.56   0.013767   69.57  0.004129  (-0.009828  0.063492 -0.000969)
 80:   1047.26   0.000436    2.20  0.000130  (-0.000778  0.009351 -0.006471)
 81:   1057.53   0.005360   27.09  0.001582  ( 0.031739  0.004363  0.023565)
 82:   1070.53   0.009932   50.19  0.002895  (-0.017818 -0.027857 -0.042447)
 83:   1084.26   0.003473   17.55  0.001000  (-0.016311 -0.000528  0.027080)
 84:   1085.55   0.008510   43.01  0.002446  ( 0.002941 -0.002117 -0.049328)
 85:   1146.27   0.013108   66.24  0.003569  (-0.013730 -0.015425 -0.056056)
 86:   1156.10   0.004773   24.12  0.001288  ( 0.020404 -0.029508 -0.001198)
 87:   1170.91   0.000189    0.95  0.000050  (-0.000294 -0.007028 -0.000937)
 88:   1171.12   0.000313    1.58  0.000083  (-0.007224  0.004254 -0.003621)
 89:   1172.16   0.000039    0.20  0.000010  (-0.000168 -0.001984 -0.002556)
 90:   1174.10   0.001144    5.78  0.000304  ( 0.002765  0.005831  0.016200)
 91:   1195.95   0.006734   34.03  0.001757  ( 0.028510  0.030671  0.001903)
 92:   1202.69   0.017851   90.21  0.004632  (-0.066394  0.014628  0.003134)
 93:   1205.94   0.003297   16.66  0.000853  (-0.005115 -0.027915  0.006902)
 94:   1206.74   0.003050   15.41  0.000789  ( 0.003944  0.020122  0.019191)
 95:   1218.34   0.001443    7.29  0.000370  ( 0.010730 -0.006709 -0.014475)
 96:   1229.09   0.067143  339.31  0.017048  (-0.127479  0.019945  0.019969)
 97:   1235.27   0.002380   12.03  0.000601  ( 0.020807 -0.012870  0.001650)
 98:   1242.24   0.018298   92.47  0.004597  (-0.062200 -0.006407  0.026205)
 99:   1250.69   0.057615  291.16  0.014376  ( 0.019449  0.117162 -0.016449)
100:   1259.10   0.060617  306.34  0.015024  ( 0.020020  0.120579 -0.009147)
101:   1273.40   0.010354   52.33  0.002537  (-0.007116 -0.046401 -0.018270)
102:   1307.71   0.052496  265.29  0.012527  (-0.012816 -0.029572  0.107185)
103:   1314.88   0.008221   41.54  0.001951  ( 0.043681 -0.004516 -0.004755)
104:   1322.19   0.033516  169.38  0.007910  (-0.082845  0.003358  0.032186)
105:   1328.63   0.022131  111.84  0.005198  (-0.065844 -0.028022  0.008791)
106:   1349.32   0.065874  332.90  0.015235  ( 0.122854 -0.006019 -0.010284)
107:   1354.73   0.016278   82.26  0.003750  (-0.035456 -0.049718  0.004553)
108:   1360.55   0.007373   37.26  0.001691  (-0.009820  0.025236  0.030948)
109:   1370.95   0.021329  107.79  0.004855  (-0.021169 -0.065325  0.011814)
110:   1390.15   0.006853   34.63  0.001538  (-0.016589 -0.013617 -0.032828)
111:   1403.38   0.001913    9.67  0.000425  ( 0.015775 -0.002322 -0.013084)
112:   1423.84   0.044643  225.61  0.009784  ( 0.013011 -0.071060 -0.067569)
113:   1443.76   0.014588   73.72  0.003153  (-0.033191 -0.043972 -0.010863)
114:   1464.59   0.006028   30.46  0.001284  (-0.024034  0.011687  0.023877)
115:   1464.88   0.003062   15.47  0.000652  (-0.019809  0.015445 -0.004616)
116:   1465.26   0.003384   17.10  0.000721  (-0.000052 -0.026832 -0.000873)
117:   1466.17   0.013963   70.56  0.002972  ( 0.053407 -0.002488  0.010652)
118:   1468.70   0.005703   28.82  0.001212  (-0.014284 -0.031723  0.001165)
119:   1472.27   0.004977   25.15  0.001055  ( 0.004339 -0.025447  0.019710)
120:   1473.43   0.002779   14.04  0.000589  ( 0.009293 -0.000286 -0.022409)
121:   1475.63   0.002354   11.89  0.000498  ( 0.007470 -0.009374 -0.018817)
122:   1482.21   0.003295   16.65  0.000694  ( 0.017353  0.006946 -0.018555)
123:   1500.53   0.010061   50.84  0.002092  ( 0.011049  0.001820 -0.044350)
124:   1507.44   0.034888  176.31  0.007222  ( 0.074237  0.040777  0.006961)
125:   1542.22   0.028271  142.87  0.005721  ( 0.032354  0.013736 -0.066971)
126:   1616.39   0.015878   80.24  0.003065  (-0.021905 -0.050807 -0.002058)
127:   1631.76   0.140270  708.87  0.026826  (-0.072069  0.110704 -0.096833)
128:   1652.98   0.013261   67.02  0.002504  ( 0.006080 -0.009485  0.048751)
129:   1666.48   0.011593   58.59  0.002171  (-0.024950 -0.019874  0.033963)
130:   1705.37   0.044142  223.08  0.008077  (-0.073032 -0.052224  0.004064)
131:   1732.73   0.030368  153.47  0.005469  (-0.052691  0.025930 -0.044950)
132:   1764.39   0.078519  396.80  0.013887  ( 0.011718  0.011025 -0.116742)
133:   1794.03   0.108517  548.40  0.018876  (-0.072180 -0.027944  0.113513)
134:   2999.28   0.007360   37.19  0.000766  ( 0.021287  0.007440  0.016040)
135:   3042.06   0.011514   58.19  0.001181  ( 0.008544  0.010521  0.031583)
136:   3069.46   0.005889   29.76  0.000599  ( 0.022738 -0.002710  0.008620)
137:   3072.38   0.006269   31.68  0.000637  (-0.000564 -0.022896 -0.010590)
138:   3104.60   0.001813    9.16  0.000182  (-0.001112 -0.013155  0.002814)
139:   3116.27   0.006515   32.93  0.000652  (-0.015064  0.020606 -0.000965)
140:   3143.10   0.000975    4.93  0.000097  ( 0.005193  0.007418  0.003852)
141:   3151.04   0.004037   20.40  0.000400  (-0.001000 -0.019864 -0.002047)
142:   3156.04   0.003980   20.11  0.000394  (-0.017761  0.005362 -0.007022)
143:   3168.05   0.003261   16.48  0.000321  (-0.011997 -0.007796  0.010793)
144:   3186.20   0.000781    3.94  0.000076  ( 0.004666  0.003686  0.006410)
145:   3186.96   0.002694   13.62  0.000264  ( 0.010639  0.000503 -0.012264)
146:   3187.87   0.002928   14.80  0.000287  (-0.004154 -0.015034  0.006586)
147:   3189.00   0.002187   11.05  0.000214  ( 0.005787  0.008388 -0.010494)
148:   3189.91   0.000307    1.55  0.000030  ( 0.003218  0.004343 -0.000914)
149:   3196.35   0.001721    8.70  0.000168  ( 0.009178  0.007522  0.005217)
150:   3212.36   0.000257    1.30  0.000025  ( 0.004022 -0.002526  0.001546)
151:   3212.42   0.000318    1.61  0.000031  (-0.005532 -0.000434  0.000316)
152:   3214.20   0.003181   16.08  0.000309  (-0.008717 -0.006278  0.013908)
153:   3215.55   0.000828    4.19  0.000080  (-0.000606  0.006524 -0.006119)
154:   3230.15   0.000296    1.50  0.000029  ( 0.002396  0.002785  0.003891)
155:   3246.36   0.000678    3.42  0.000065  (-0.006999  0.002111 -0.003421)

* The epsilon (eps) is given for a Dirac delta lineshape.
** The dipole moment derivative (T) already includes vibrational overlap.

The first frequency considered to be a vibration is 6
The total number of vibrations considered is 150


--------------------------
THERMOCHEMISTRY AT 298.15K
--------------------------

Temperature         ... 298.15 K
Pressure            ... 1.00 atm
Total Mass          ... 414.41 AMU

Throughout the following assumptions are being made:
  (1) The electronic state is orbitally nondegenerate
  (2) There are no thermally accessible electronically excited states
  (3) Hindered rotations indicated by low frequency modes are not
      treated as such but are treated as vibrations and this may
      cause some error
  (4) All equations used are the standard statistical mechanics
      equations for an ideal gas
  (5) All vibrations are strictly harmonic

freq.      20.78  E(vib)   ...       0.56 
freq.      26.99  E(vib)   ...       0.55 
freq.      40.85  E(vib)   ...       0.54 
freq.      48.08  E(vib)   ...       0.53 
freq.      54.95  E(vib)   ...       0.52 
freq.      66.77  E(vib)   ...       0.50 
freq.      71.46  E(vib)   ...       0.50 
freq.      75.02  E(vib)   ...       0.49 
freq.      85.17  E(vib)   ...       0.48 
freq.      91.55  E(vib)   ...       0.47 
freq.      99.67  E(vib)   ...       0.46 
freq.     117.05  E(vib)   ...       0.44 
freq.     120.49  E(vib)   ...       0.44 
freq.     127.41  E(vib)   ...       0.43 
freq.     147.98  E(vib)   ...       0.41 
freq.     153.52  E(vib)   ...       0.40 
freq.     154.17  E(vib)   ...       0.40 
freq.     160.84  E(vib)   ...       0.39 
freq.     184.35  E(vib)   ...       0.37 
freq.     202.67  E(vib)   ...       0.35 
freq.     210.18  E(vib)   ...       0.34 
freq.     214.94  E(vib)   ...       0.34 
freq.     232.31  E(vib)   ...       0.32 
freq.     236.93  E(vib)   ...       0.32 
freq.     254.47  E(vib)   ...       0.30 
freq.     283.20  E(vib)   ...       0.28 
freq.     294.06  E(vib)   ...       0.27 
freq.     305.70  E(vib)   ...       0.26 
freq.     314.01  E(vib)   ...       0.25 
freq.     332.64  E(vib)   ...       0.24 
freq.     353.10  E(vib)   ...       0.22 
freq.     366.28  E(vib)   ...       0.22 
freq.     379.16  E(vib)   ...       0.21 
freq.     419.48  E(vib)   ...       0.18 
freq.     466.98  E(vib)   ...       0.16 
freq.     481.88  E(vib)   ...       0.15 
freq.     488.46  E(vib)   ...       0.15 
freq.     501.61  E(vib)   ...       0.14 
freq.     550.21  E(vib)   ...       0.12 
freq.     567.48  E(vib)   ...       0.11 
freq.     574.26  E(vib)   ...       0.11 
freq.     586.62  E(vib)   ...       0.11 
freq.     592.34  E(vib)   ...       0.10 
freq.     612.80  E(vib)   ...       0.10 
freq.     645.64  E(vib)   ...       0.09 
freq.     656.26  E(vib)   ...       0.08 
freq.     666.39  E(vib)   ...       0.08 
freq.     692.67  E(vib)   ...       0.07 
freq.     709.97  E(vib)   ...       0.07 
freq.     722.40  E(vib)   ...       0.07 
freq.     754.53  E(vib)   ...       0.06 
freq.     759.35  E(vib)   ...       0.06 
freq.     769.61  E(vib)   ...       0.05 
freq.     782.70  E(vib)   ...       0.05 
freq.     796.07  E(vib)   ...       0.05 
freq.     811.78  E(vib)   ...       0.05 
freq.     832.09  E(vib)   ...       0.04 
freq.     846.88  E(vib)   ...       0.04 
freq.     868.27  E(vib)   ...       0.04 
freq.     872.22  E(vib)   ...       0.04 
freq.     892.00  E(vib)   ...       0.03 
freq.     896.73  E(vib)   ...       0.03 
freq.     930.38  E(vib)   ...       0.03 
freq.     939.87  E(vib)   ...       0.03 
freq.     948.08  E(vib)   ...       0.03 
freq.     956.74  E(vib)   ...       0.03 
freq.     980.93  E(vib)   ...       0.02 
freq.     981.15  E(vib)   ...       0.02 
freq.     987.90  E(vib)   ...       0.02 
freq.     998.72  E(vib)   ...       0.02 
freq.    1006.46  E(vib)   ...       0.02 
freq.    1015.42  E(vib)   ...       0.02 
freq.    1018.96  E(vib)   ...       0.02 
freq.    1040.56  E(vib)   ...       0.02 
freq.    1047.26  E(vib)   ...       0.02 
freq.    1057.53  E(vib)   ...       0.02 
freq.    1070.53  E(vib)   ...       0.02 
freq.    1084.26  E(vib)   ...       0.02 
freq.    1085.55  E(vib)   ...       0.02 
freq.    1146.27  E(vib)   ...       0.01 
freq.    1156.10  E(vib)   ...       0.01 
freq.    1170.91  E(vib)   ...       0.01 
freq.    1171.12  E(vib)   ...       0.01 
freq.    1172.16  E(vib)   ...       0.01 
freq.    1174.10  E(vib)   ...       0.01 
freq.    1195.95  E(vib)   ...       0.01 
freq.    1202.69  E(vib)   ...       0.01 
freq.    1205.94  E(vib)   ...       0.01 
freq.    1206.74  E(vib)   ...       0.01 
freq.    1218.34  E(vib)   ...       0.01 
freq.    1229.09  E(vib)   ...       0.01 
freq.    1235.27  E(vib)   ...       0.01 
freq.    1242.24  E(vib)   ...       0.01 
freq.    1250.69  E(vib)   ...       0.01 
freq.    1259.10  E(vib)   ...       0.01 
freq.    1273.40  E(vib)   ...       0.01 
freq.    1307.71  E(vib)   ...       0.01 
freq.    1314.88  E(vib)   ...       0.01 
freq.    1322.19  E(vib)   ...       0.01 
freq.    1328.63  E(vib)   ...       0.01 
freq.    1349.32  E(vib)   ...       0.01 
freq.    1354.73  E(vib)   ...       0.01 
freq.    1360.55  E(vib)   ...       0.01 
freq.    1370.95  E(vib)   ...       0.01 
freq.    1390.15  E(vib)   ...       0.00 
freq.    1403.38  E(vib)   ...       0.00 
freq.    1423.84  E(vib)   ...       0.00 
freq.    1443.76  E(vib)   ...       0.00 
freq.    1464.59  E(vib)   ...       0.00 
freq.    1464.88  E(vib)   ...       0.00 
freq.    1465.26  E(vib)   ...       0.00 
freq.    1466.17  E(vib)   ...       0.00 
freq.    1468.70  E(vib)   ...       0.00 
freq.    1472.27  E(vib)   ...       0.00 
freq.    1473.43  E(vib)   ...       0.00 
freq.    1475.63  E(vib)   ...       0.00 
freq.    1482.21  E(vib)   ...       0.00 
freq.    1500.53  E(vib)   ...       0.00 
freq.    1507.44  E(vib)   ...       0.00 
freq.    1542.22  E(vib)   ...       0.00 
freq.    1616.39  E(vib)   ...       0.00 
freq.    1631.76  E(vib)   ...       0.00 
freq.    1652.98  E(vib)   ...       0.00 
freq.    1666.48  E(vib)   ...       0.00 
freq.    1705.37  E(vib)   ...       0.00 
freq.    1732.73  E(vib)   ...       0.00 
freq.    1764.39  E(vib)   ...       0.00 
freq.    1794.03  E(vib)   ...       0.00 
freq.    2999.28  E(vib)   ...       0.00 
freq.    3042.06  E(vib)   ...       0.00 
freq.    3069.46  E(vib)   ...       0.00 
freq.    3072.38  E(vib)   ...       0.00 
freq.    3104.60  E(vib)   ...       0.00 
freq.    3116.27  E(vib)   ...       0.00 
freq.    3143.10  E(vib)   ...       0.00 
freq.    3151.04  E(vib)   ...       0.00 
freq.    3156.04  E(vib)   ...       0.00 
freq.    3168.05  E(vib)   ...       0.00 
freq.    3186.20  E(vib)   ...       0.00 
freq.    3186.96  E(vib)   ...       0.00 
freq.    3187.87  E(vib)   ...       0.00 
freq.    3189.00  E(vib)   ...       0.00 
freq.    3189.91  E(vib)   ...       0.00 
freq.    3196.35  E(vib)   ...       0.00 
freq.    3212.36  E(vib)   ...       0.00 
freq.    3212.42  E(vib)   ...       0.00 
freq.    3214.20  E(vib)   ...       0.00 
freq.    3215.55  E(vib)   ...       0.00 
freq.    3230.15  E(vib)   ...       0.00 
freq.    3246.36  E(vib)   ...       0.00 

------------
INNER ENERGY
------------

The inner energy is: U= E(el) + E(ZPE) + E(vib) + E(rot) + E(trans)
    E(el)   - is the total energy from the electronic structure calculation
              = E(kin-el) + E(nuc-el) + E(el-el) + E(nuc-nuc)
    E(ZPE)  - the the zero temperature vibrational energy from the frequency calculation
    E(vib)  - the the finite temperature correction to E(ZPE) due to population
              of excited vibrational states
    E(rot)  - is the rotational thermal energy
    E(trans)- is the translational thermal energy

Summary of contributions to the inner energy U:
Electronic energy                ...  -1448.41879891 Eh
Zero point energy                ...      0.41123648 Eh     258.05 kcal/mol
Thermal vibrational correction   ...      0.02531492 Eh      15.89 kcal/mol
Thermal rotational correction    ...      0.00141627 Eh       0.89 kcal/mol
Thermal translational correction ...      0.00141627 Eh       0.89 kcal/mol
-----------------------------------------------------------------------
Total thermal energy                  -1447.97941497 Eh


Summary of corrections to the electronic energy:
(perhaps to be used in another calculation)
Total thermal correction                  0.02814747 Eh      17.66 kcal/mol
Non-thermal (ZPE) correction              0.41123648 Eh     258.05 kcal/mol
-----------------------------------------------------------------------
Total correction                          0.43938395 Eh     275.72 kcal/mol


--------
ENTHALPY
--------

The enthalpy is H = U + kB*T
                kB is Boltzmann's constant
Total free energy                 ...  -1447.97941497 Eh 
Thermal Enthalpy correction       ...      0.00094421 Eh       0.59 kcal/mol
-----------------------------------------------------------------------
Total Enthalpy                    ...  -1447.97847076 Eh


Note: Only C1 symmetry has been detected, increase convergence thresholds 
      if your molecule has a higher symmetry. Symmetry factor of 1.0 is   
      used for the rotational entropy correction. 
 

Note: Rotational entropy computed according to Herzberg 
Infrared and Raman Spectra, Chapter V,1, Van Nostrand Reinhold, 1945 
Point Group:  C1, Symmetry Number:   1  
Rotational constants in cm-1:     0.007083     0.005328     0.003857 

Vibrational entropy computed according to the QRRHO of S. Grimme
Chem.Eur.J. 2012 18 9955


-------
ENTROPY
-------

The entropy contributions are T*S = T*(S(el)+S(vib)+S(rot)+S(trans))
     S(el)   - electronic entropy
     S(vib)  - vibrational entropy
     S(rot)  - rotational entropy
     S(trans)- translational entropy
The entropies will be listed as multiplied by the temperature to get
units of energy

Electronic entropy                ...      0.00000000 Eh      0.00 kcal/mol
Vibrational entropy               ...      0.04574924 Eh     28.71 kcal/mol
Rotational entropy                ...      0.01694285 Eh     10.63 kcal/mol
Translational entropy             ...      0.02088475 Eh     13.11 kcal/mol
-----------------------------------------------------------------------
Final entropy term                ...      0.08357683 Eh     52.45 kcal/mol

In case the symmetry of your molecule has not been determined correctly
or in case you have a reason to use a different symmetry number we print 
out the resulting rotational entropy values for sn=1,12 :
 --------------------------------------------------------
|  sn= 1 | S(rot)=       0.01694285 Eh     10.63 kcal/mol|
|  sn= 2 | S(rot)=       0.01628839 Eh     10.22 kcal/mol|
|  sn= 3 | S(rot)=       0.01590556 Eh      9.98 kcal/mol|
|  sn= 4 | S(rot)=       0.01563394 Eh      9.81 kcal/mol|
|  sn= 5 | S(rot)=       0.01542325 Eh      9.68 kcal/mol|
|  sn= 6 | S(rot)=       0.01525111 Eh      9.57 kcal/mol|
|  sn= 7 | S(rot)=       0.01510556 Eh      9.48 kcal/mol|
|  sn= 8 | S(rot)=       0.01497948 Eh      9.40 kcal/mol|
|  sn= 9 | S(rot)=       0.01486827 Eh      9.33 kcal/mol|
|  sn=10 | S(rot)=       0.01476879 Eh      9.27 kcal/mol|
|  sn=11 | S(rot)=       0.01467880 Eh      9.21 kcal/mol|
|  sn=12 | S(rot)=       0.01459665 Eh      9.16 kcal/mol|
 --------------------------------------------------------


-------------------
GIBBS FREE ENERGY
-------------------

The Gibbs free energy is G = H - T*S

Total enthalpy                    ...  -1447.97847076 Eh 
Total entropy correction          ...     -0.08357683 Eh    -52.45 kcal/mol
-----------------------------------------------------------------------
Final Gibbs free energy         ...  -1448.06204759 Eh

For completeness - the Gibbs free energy minus the electronic energy
G-E(el)                           ...      0.35675132 Eh    223.86 kcal/mol


Timings for individual modules:

Sum of individual times         ...     9783.171 sec (= 163.053 min)
GTO integral calculation        ...       48.836 sec (=   0.814 min)   0.5 %
SCF iterations                  ...     2797.217 sec (=  46.620 min)  28.6 %
SCF Gradient evaluation         ...      746.370 sec (=  12.440 min)   7.6 %
Geometry relaxation             ...        3.177 sec (=   0.053 min)   0.0 %
Analytical frequency calculation...     6187.570 sec (= 103.126 min)  63.2 %
                             ****ORCA TERMINATED NORMALLY****
TOTAL RUN TIME: 0 days 2 hours 43 minutes 45 seconds 971 msec
