
                                 *****************
                                 * O   R   C   A *
                                 *****************

                                            #,                                       
                                            ###                                      
                                            ####                                     
                                            #####                                    
                                            ######                                   
                                           ########,                                 
                                     ,,################,,,,,                         
                               ,,#################################,,                 
                          ,,##########################################,,             
                       ,#########################################, ''#####,          
                    ,#############################################,,   '####,        
                  ,##################################################,,,,####,       
                ,###########''''           ''''###############################       
              ,#####''   ,,,,##########,,,,          '''####'''          '####       
            ,##' ,,,,###########################,,,                        '##       
           ' ,,###''''                  '''############,,,                           
         ,,##''                                '''############,,,,        ,,,,,,###''
      ,#''                                            '''#######################'''  
     '                                                          ''''####''''         
             ,#######,   #######,   ,#######,      ##                                
            ,#'     '#,  ##    ##  ,#'     '#,    #''#        ######   ,####,        
            ##       ##  ##   ,#'  ##            #'  '#       #        #'  '#        
            ##       ##  #######   ##           ,######,      #####,   #    #        
            '#,     ,#'  ##    ##  '#,     ,#' ,#      #,         ##   #,  ,#        
             '#######'   ##     ##  '#######'  #'      '#     #####' # '####'        



                  #######################################################
                  #                        -***-                        #
                  #          Department of theory and spectroscopy      #
                  #    Directorship and core code : Frank Neese         #
                  #        Max Planck Institute fuer Kohlenforschung    #
                  #                Kaiser Wilhelm Platz 1               #
                  #                 D-45470 Muelheim/Ruhr               #
                  #                      Germany                        #
                  #                                                     #
                  #                  All rights reserved                #
                  #                        -***-                        #
                  #######################################################


                         Program Version 5.0.4 -  RELEASE  -


 With contributions from (in alphabetic order):
   Daniel Aravena         : Magnetic Suceptibility
   Michael Atanasov       : Ab Initio Ligand Field Theory (pilot matlab implementation)
   Alexander A. Auer      : GIAO ZORA, VPT2 properties, NMR spectrum
   Ute Becker             : Parallelization
   Giovanni Bistoni       : ED, misc. LED, open-shell LED, HFLD
   Martin Brehm           : Molecular dynamics
   Dmytro Bykov           : SCF Hessian
   Vijay G. Chilkuri      : MRCI spin determinant printing, contributions to CSF-ICE
   Dipayan Datta          : RHF DLPNO-CCSD density
   Achintya Kumar Dutta   : EOM-CC, STEOM-CC
   Dmitry Ganyushin       : Spin-Orbit,Spin-Spin,Magnetic field MRCI
   Miquel Garcia          : C-PCM and meta-GGA Hessian, CC/C-PCM, Gaussian charge scheme
   Yang Guo               : DLPNO-NEVPT2, F12-NEVPT2, CIM, IAO-localization
   Andreas Hansen         : Spin unrestricted coupled pair/coupled cluster methods
   Benjamin Helmich-Paris : MC-RPA, TRAH-SCF, COSX integrals
   Lee Huntington         : MR-EOM, pCC
   Robert Izsak           : Overlap fitted RIJCOSX, COSX-SCS-MP3, EOM
   Marcus Kettner         : VPT2
   Christian Kollmar      : KDIIS, OOCD, Brueckner-CCSD(T), CCSD density, CASPT2, CASPT2-K
   Simone Kossmann        : Meta GGA functionals, TD-DFT gradient, OOMP2, MP2 Hessian
   Martin Krupicka        : Initial AUTO-CI
   Lucas Lang             : DCDCAS
   Marvin Lechner         : AUTO-CI (C++ implementation), FIC-MRCC
   Dagmar Lenk            : GEPOL surface, SMD
   Dimitrios Liakos       : Extrapolation schemes; Compound Job, initial MDCI parallelization
   Dimitrios Manganas     : Further ROCIS development; embedding schemes
   Dimitrios Pantazis     : SARC Basis sets
   Anastasios Papadopoulos: AUTO-CI, single reference methods and gradients
   Taras Petrenko         : DFT Hessian,TD-DFT gradient, ASA, ECA, R-Raman, ABS, FL, XAS/XES, NRVS
   Peter Pinski           : DLPNO-MP2, DLPNO-MP2 Gradient
   Christoph Reimann      : Effective Core Potentials
   Marius Retegan         : Local ZFS, SOC
   Christoph Riplinger    : Optimizer, TS searches, QM/MM, DLPNO-CCSD(T), (RO)-DLPNO pert. Triples
   Tobias Risthaus        : Range-separated hybrids, TD-DFT gradient, RPA, STAB
   Michael Roemelt        : Original ROCIS implementation
   Masaaki Saitow         : Open-shell DLPNO-CCSD energy and density
   Barbara Sandhoefer     : DKH picture change effects
   Avijit Sen             : IP-ROCIS
   Kantharuban Sivalingam : CASSCF convergence, NEVPT2, FIC-MRCI
   Bernardo de Souza      : ESD, SOC TD-DFT
   Georgi Stoychev        : AutoAux, RI-MP2 NMR, DLPNO-MP2 response
   Willem Van den Heuvel  : Paramagnetic NMR
   Boris Wezisla          : Elementary symmetry handling
   Frank Wennmohs         : Technical directorship


 We gratefully acknowledge several colleagues who have allowed us to
 interface, adapt or use parts of their codes:
   Stefan Grimme, W. Hujo, H. Kruse, P. Pracht,  : VdW corrections, initial TS optimization,
                  C. Bannwarth, S. Ehlert          DFT functionals, gCP, sTDA/sTD-DF
   Ed Valeev, F. Pavosevic, A. Kumar             : LibInt (2-el integral package), F12 methods
   Garnet Chan, S. Sharma, J. Yang, R. Olivares  : DMRG
   Ulf Ekstrom                                   : XCFun DFT Library
   Mihaly Kallay                                 : mrcc  (arbitrary order and MRCC methods)
   Jiri Pittner, Ondrej Demel                    : Mk-CCSD
   Frank Weinhold                                : gennbo (NPA and NBO analysis)
   Christopher J. Cramer and Donald G. Truhlar   : smd solvation model
   Lars Goerigk                                  : TD-DFT with DH, B97 family of functionals
   V. Asgeirsson, H. Jonsson                     : NEB implementation
   FAccTs GmbH                                   : IRC, NEB, NEB-TS, DLPNO-Multilevel, CI-OPT
                                                   MM, QMMM, 2- and 3-layer-ONIOM, Crystal-QMMM,
                                                   LR-CPCM, SF, NACMEs, symmetry and pop. for TD-DFT,
                                                   nearIR, NL-DFT gradient (VV10), updates on ESD,
                                                   ML-optimized integration grids
   S Lehtola, MJT Oliveira, MAL Marques          : LibXC Library
   Liviu Ungur et al                             : ANISO software


 Your calculation uses the libint2 library for the computation of 2-el integrals
 For citations please refer to: http://libint.valeyev.net

 Your ORCA version has been built with support for libXC version: 5.1.0
 For citations please refer to: https://tddft.org/programs/libxc/

 This ORCA versions uses:
   CBLAS   interface :  Fast vector & matrix operations
   LAPACKE interface :  Fast linear algebra routines
   SCALAPACK package :  Parallel linear algebra routines
   Shared memory     :  Shared parallel matrices
   BLAS/LAPACK       :  OpenBLAS 0.3.15  USE64BITINT DYNAMIC_ARCH NO_AFFINITY Haswell SINGLE_THREADED
        Core in use  :  Haswell
   Copyright (c) 2011-2014, The OpenBLAS Project


Your calculation utilizes the atom-pairwise dispersion correction
with the Becke-Johnson damping scheme (D3BJ)
Cite in your paper:
S.Grimme, S.Ehrlich, L.Goerigk, J Comput Chem, (2011), 32, 1456–1465 
S.Grimme, J.Antony, S.Ehrlich and H.Krieg, J.Chem.Phys., 132, (2010), 154104 
   

================================================================================

----- Orbital basis set information -----
Your calculation utilizes the basis: def2-TZVP
   F. Weigend and R. Ahlrichs, Phys. Chem. Chem. Phys. 7, 3297 (2005).

----- AuxJ basis set information -----
Your calculation utilizes the auxiliary basis: def2/J
   F. Weigend, Phys. Chem. Chem. Phys. 8, 1057 (2006).

================================================================================
                                        WARNINGS
                       Please study these warnings very carefully!
================================================================================


WARNING: Geometry Optimization
  ===> : Switching off AutoStart
         For restart on a previous wavefunction, please use MOREAD

INFO   : the flag for use of the SHARK integral package has been found!

================================================================================
                                       INPUT FILE
================================================================================
NAME = 3_CF3/3_CF3.inp
|  1> %pal nprocs 24 end
|  2> ! PBE0 D3BJ def2-TZVP TightSCF OPT FREQ TightOpt
|  3> ! CPCM(dmso)
|  4> %scf
|  5> MaxIter 800
|  6> end
|  7> 
|  8> %geom
|  9> MaxIter 800
| 10> MaxStep 0.15
| 11> end
| 12> 
| 13> *xyz 0 1
| 14> C       3.89950900      0.90066700      1.08922400
| 15> C       3.60003200      2.16172200      0.44946000
| 16> C       2.37597200      2.30596800     -0.11470300
| 17> N       1.40506900      1.35246800     -0.01556900
| 18> C       1.57105500      0.11775800      0.72676900
| 19> C       2.97644700     -0.07458200      1.20754900
| 20> C       0.29449400      1.30710200     -0.93332400
| 21> C      -0.75371200      2.36744200     -0.63743500
| 22> O      -0.58576900      3.30948100      0.09579700
| 23> O      -1.82334500      2.19779100     -1.40209200
| 24> C      -2.87591400      3.14366500     -1.25711100
| 25> H       4.90546200      0.73045200      1.48362600
| 26> H       2.09090300      3.19284500     -0.68538100
| 27> H       0.85345400      0.06514400      1.56912200
| 28> H       3.20965300     -1.02310200      1.69320800
| 29> H       0.65301000      1.57404900     -1.94235200
| 30> H      -3.62801200      2.88150300     -2.00912600
| 31> H      -2.50573300      4.16464000     -1.42468700
| 32> C       0.99625600     -0.94660200     -0.27535200
| 33> C      -0.15827600     -0.19021900     -1.00160300
| 34> C      -1.56958400     -0.52549100     -0.57615400
| 35> C      -2.34627300     -1.33774500     -1.39979300
| 36> C      -3.66477900     -1.66130800     -1.07422300
| 37> C      -4.22038300     -1.15210800      0.09501100
| 38> C      -3.46669600     -0.33444400      0.93964200
| 39> C      -2.14493400     -0.03156700      0.61051000
| 40> O      -1.33954600      0.73671000      1.36826500
| 41> C      -1.86013200      1.40726400      2.49348200
| 42> N       2.08063700     -1.21905200     -1.29063600
| 43> O       2.77417600     -2.19893700     -1.15318900
| 44> H      -0.09629500     -0.49289000     -2.05260000
| 45> H      -1.90614800     -1.72171400     -2.32419400
| 46> H      -4.25189600     -2.29964000     -1.73763200
| 47> H      -5.25332000     -1.38756200      0.36331100
| 48> H      -3.91136500      0.05723900      1.85489100
| 49> H      -2.70727400      2.05399300      2.21382300
| 50> H      -1.04517500      2.02776500      2.88443000
| 51> H      -2.18289600      0.69378300      3.26855400
| 52> O       2.24648100     -0.37347900     -2.14020000
| 53> H      -3.31160400      3.07672900     -0.24951400
| 54> H       4.34156600      2.95614500      0.37570600
| 55> C       0.61202200     -2.26744700      0.41039700
| 56> F      -0.33948300     -2.06488300      1.31928700
| 57> F       0.15567300     -3.15138200     -0.47608800
| 58> F       1.62978000     -2.82494900      1.06437000
| 59> *
| 60> 
| 61>                          ****END OF INPUT****
================================================================================

                       *****************************
                       * Geometry Optimization Run *
                       *****************************

Geometry optimization settings:
Update method            Update   .... BFGS
Choice of coordinates    CoordSys .... Z-matrix Internals
Initial Hessian          InHess   .... Almoef's Model

Convergence Tolerances:
Energy Change            TolE     ....  1.0000e-06 Eh
Max. Gradient            TolMAXG  ....  1.0000e-04 Eh/bohr
RMS Gradient             TolRMSG  ....  3.0000e-05 Eh/bohr
Max. Displacement        TolMAXD  ....  1.0000e-03 bohr
RMS Displacement         TolRMSD  ....  6.0000e-04 bohr
Strict Convergence                ....  False
------------------------------------------------------------------------------
                        ORCA OPTIMIZATION COORDINATE SETUP
------------------------------------------------------------------------------

The optimization will be done in new redundant internal coordinates
Making redundant internal coordinates   ...  (new redundants) done
Evaluating the initial hessian          ...  (Almloef) done
Evaluating the coordinates              ...  done
Calculating the B-matrix                .... done
Calculating the G-matrix                .... done
Diagonalizing the G-matrix              .... done
Small eigenvalue found = 3.810e-03
Small eigenvalue found = 7.068e-03
Small eigenvalue found = 8.791e-03
Small eigenvalue found = 1.774e-02
Small eigenvalue found = 2.109e-02
Small eigenvalue found = 2.727e-02
The first mode is                       ....  123
The number of degrees of freedom        ....  129

    -----------------------------------------------------------------
                    Redundant Internal Coordinates


    -----------------------------------------------------------------
         Definition                    Initial Value    Approx d2E/dq
    -----------------------------------------------------------------
      1. B(C   1,C   0)                  1.4454         0.509702   
      2. B(C   2,C   1)                  1.3555         0.709192   
      3. B(N   3,C   2)                  1.3644         0.614733   
      4. B(C   4,N   3)                  1.4502         0.448544   
      5. B(C   5,C   4)                  1.4978         0.420554   
      6. B(C   5,C   0)                  1.3480         0.728982   
      7. B(C   6,N   3)                  1.4414         0.463264   
      8. B(C   7,C   6)                  1.5201         0.387457   
      9. B(O   8,C   7)                  1.2055         1.102062   
     10. B(O   9,C   7)                  1.3257         0.708585   
     11. B(C  10,O   9)                  1.4225         0.496560   
     12. B(H  11,C   0)                  1.0938         0.355067   
     13. B(H  12,C   2)                  1.0925         0.356849   
     14. B(H  13,C   4)                  1.1078         0.337274   
     15. B(H  14,C   5)                  1.0908         0.358986   
     16. B(H  15,C   6)                  1.1036         0.342552   
     17. B(H  16,C  10)                  1.0954         0.353023   
     18. B(H  17,C  10)                  1.0989         0.348561   
     19. B(C  18,C   4)                  1.5708         0.321542   
     20. B(C  19,C  18)                  1.5596         0.335025   
     21. B(C  19,C   6)                  1.5658         0.327575   
     22. B(C  20,C  19)                  1.5117         0.399568   
     23. B(C  21,C  20)                  1.3933         0.617187   
     24. B(C  22,C  21)                  1.3961         0.610909   
     25. B(C  23,C  22)                  1.3911         0.622335   
     26. B(C  24,C  23)                  1.3964         0.610208   
     27. B(C  25,C  24)                  1.3954         0.612543   
     28. B(C  25,C  20)                  1.4082         0.584287   
     29. B(O  26,C  25)                  1.3465         0.656537   
     30. B(C  27,O  26)                  1.4095         0.520861   
     31. B(N  28,C  18)                  1.5103         0.359744   
     32. B(O  29,N  28)                  1.2083         0.976910   
     33. B(H  30,C  19)                  1.0955         0.352941   
     34. B(H  31,C  21)                  1.0935         0.355549   
     35. B(H  32,C  22)                  1.0919         0.357571   
     36. B(H  33,C  23)                  1.0929         0.356313   
     37. B(H  34,C  24)                  1.0903         0.359659   
     38. B(H  35,C  27)                  1.1019         0.344735   
     39. B(H  36,C  27)                  1.0964         0.351777   
     40. B(H  37,C  27)                  1.1018         0.344821   
     41. B(O  38,N  28)                  1.2101         0.970705   
     42. B(H  39,C  10)                  1.0998         0.347368   
     43. B(H  40,C   1)                  1.0892         0.361121   
     44. B(C  41,C  18)                  1.5370         0.364025   
     45. B(F  42,C  41)                  1.3313         0.644985   
     46. B(F  43,C  41)                  1.3325         0.642343   
     47. B(F  44,C  41)                  1.3320         0.643345   
     48. A(C   1,C   0,H  11)          119.0716         0.340660   
     49. A(C   1,C   0,C   5)          121.8816         0.431424   
     50. A(C   5,C   0,H  11)          119.0459         0.361890   
     51. A(C   0,C   1,H  40)          121.6839         0.341625   
     52. A(C   2,C   1,H  40)          120.5955         0.361235   
     53. A(C   0,C   1,C   2)          117.6555         0.429297   
     54. A(N   3,C   2,H  12)          114.8088         0.349697   
     55. A(C   1,C   2,H  12)          122.6452         0.360503   
     56. A(C   1,C   2,N   3)          122.5459         0.441117   
     57. A(C   4,N   3,C   6)          112.7868         0.384297   
     58. A(C   2,N   3,C   4)          123.4171         0.403823   
     59. A(C   2,N   3,C   6)          121.6003         0.406133   
     60. A(H  13,C   4,C  18)          102.4667         0.313118   
     61. A(C   5,C   4,C  18)          117.4598         0.361400   
     62. A(N   3,C   4,C  18)          102.0315         0.363128   
     63. A(N   3,C   4,C   5)          112.3986         0.380300   
     64. A(N   3,C   4,H  13)          110.8249         0.328667   
     65. A(C   5,C   4,H  13)          110.9549         0.327157   
     66. A(C   0,C   5,H  14)          121.4508         0.362569   
     67. A(C   4,C   5,H  14)          117.0765         0.330544   
     68. A(C   0,C   5,C   4)          121.4291         0.416843   
     69. A(C   7,C   6,C  19)          118.4343         0.357520   
     70. A(N   3,C   6,C  19)          106.2994         0.366303   
     71. A(C   7,C   6,H  15)          103.4891         0.323602   
     72. A(N   3,C   6,H  15)          108.9189         0.331275   
     73. A(N   3,C   6,C   7)          112.6691         0.377043   
     74. A(H  15,C   6,C  19)          106.5817         0.314855   
     75. A(C   6,C   7,O   9)          110.7828         0.406125   
     76. A(C   6,C   7,O   8)          124.5712         0.439465   
     77. A(O   8,C   7,O   9)          124.2781         0.487470   
     78. A(C   7,O   9,C  10)          116.9436         0.421682   
     79. A(H  16,C  10,H  39)          110.0232         0.288304   
     80. A(H  16,C  10,H  17)          110.4242         0.288459   
     81. A(O   9,C  10,H  17)          110.6700         0.336082   
     82. A(H  17,C  10,H  39)          109.2516         0.287731   
     83. A(O   9,C  10,H  39)          110.2447         0.335890   
     84. A(O   9,C  10,H  16)          106.1961         0.336794   
     85. A(C  19,C  18,N  28)          107.8158         0.352211   
     86. A(C   4,C  18,N  28)          106.7604         0.349776   
     87. A(C  19,C  18,C  41)          116.0690         0.355107   
     88. A(C   4,C  18,C  41)          112.8998         0.352644   
     89. A(C   4,C  18,C  19)          103.8472         0.347737   
     90. A(N  28,C  18,C  41)          108.9285         0.357204   
     91. A(C  20,C  19,H  30)          105.1626         0.326845   
     92. A(C  18,C  19,H  30)          105.7161         0.317548   
     93. A(C   6,C  19,H  30)          106.8395         0.316387   
     94. A(C  18,C  19,C  20)          116.9032         0.360778   
     95. A(C   6,C  19,C  20)          118.0203         0.359398   
     96. A(C   6,C  19,C  18)          103.2622         0.348827   
     97. A(C  21,C  20,C  25)          118.3487         0.429113   
     98. A(C  19,C  20,C  25)          122.7378         0.397237   
     99. A(C  19,C  20,C  21)          118.9039         0.401083   
    100. A(C  22,C  21,H  31)          119.7284         0.351272   
    101. A(C  20,C  21,H  31)          118.6899         0.351880   
    102. A(C  20,C  21,C  22)          121.5807         0.432561   
    103. A(C  23,C  22,H  32)          120.6575         0.352713   
    104. A(C  21,C  22,H  32)          120.1063         0.351609   
    105. A(C  21,C  22,C  23)          119.2339         0.433207   
    106. A(C  24,C  23,H  33)          119.1949         0.351331   
    107. A(C  22,C  23,H  33)          120.3304         0.352502   
    108. A(C  22,C  23,C  24)          120.4747         0.433118   
    109. A(C  25,C  24,H  34)          120.4197         0.352114   
    110. A(C  23,C  24,H  34)          119.8647         0.351887   
    111. A(C  23,C  24,C  25)          119.7141         0.431885   
    112. A(C  24,C  25,O  26)          123.8952         0.434743   
    113. A(C  20,C  25,O  26)          115.4648         0.431067   
    114. A(C  20,C  25,C  24)          120.6390         0.428532   
    115. A(C  25,O  26,C  27)          119.9848         0.419542   
    116. A(O  26,C  27,H  36)          106.2226         0.339288   
    117. A(O  26,C  27,H  35)          111.1349         0.338145   
    118. A(H  36,C  27,H  37)          109.4754         0.287813   
    119. A(H  35,C  27,H  37)          109.4751         0.286905   
    120. A(O  26,C  27,H  37)          111.2045         0.338159   
    121. A(H  35,C  27,H  36)          109.2569         0.287802   
    122. A(C  18,N  28,O  29)          118.8118         0.418801   
    123. A(O  29,N  28,O  38)          124.6018         0.498416   
    124. A(C  18,N  28,O  38)          116.3800         0.418326   
    125. A(F  43,C  41,F  44)          108.0993         0.430173   
    126. A(F  42,C  41,F  44)          105.9371         0.430490   
    127. A(C  18,C  41,F  44)          112.8114         0.393209   
    128. A(F  42,C  41,F  43)          108.0804         0.430370   
    129. A(C  18,C  41,F  43)          111.0306         0.393102   
    130. A(C  18,C  41,F  42)          110.6397         0.393384   
    131. D(C   2,C   1,C   0,C   5)     -4.3335         0.017705   
    132. D(H  40,C   1,C   0,H  11)     -1.7706         0.017705   
    133. D(H  40,C   1,C   0,C   5)    178.5846         0.017705   
    134. D(C   2,C   1,C   0,H  11)    175.3114         0.017705   
    135. D(H  12,C   2,C   1,H  40)      1.9687         0.035502   
    136. D(N   3,C   2,C   1,H  40)   -178.1636         0.035502   
    137. D(H  12,C   2,C   1,C   0)   -175.1466         0.035502   
    138. D(N   3,C   2,C   1,C   0)      4.7211         0.035502   
    139. D(C   6,N   3,C   2,C   1)   -160.1953         0.030560   
    140. D(C   6,N   3,C   2,H  12)     19.6820         0.030560   
    141. D(C   4,N   3,C   2,C   1)      1.7407         0.030560   
    142. D(C   4,N   3,C   2,H  12)   -178.3820         0.030560   
    143. D(C   5,C   4,N   3,C   6)    155.5109         0.017162   
    144. D(C   5,C   4,N   3,C   2)     -7.8430         0.017162   
    145. D(H  13,C   4,N   3,C   2)    116.9502         0.017162   
    146. D(C  18,C   4,N   3,C   6)     28.7987         0.017162   
    147. D(C  18,C   4,N   3,C   2)   -134.5552         0.017162   
    148. D(H  13,C   4,N   3,C   6)    -79.6959         0.017162   
    149. D(H  14,C   5,C   4,H  13)     60.9208         0.013077   
    150. D(C   0,C   5,C   4,C  18)    125.9329         0.013077   
    151. D(H  14,C   5,C   4,N   3)   -174.3575         0.013077   
    152. D(H  14,C   5,C   0,H  11)      0.4558         0.037696   
    153. D(C   0,C   5,C   4,N   3)      8.0112         0.013077   
    154. D(C   0,C   5,C   4,H  13)   -116.7105         0.013077   
    155. D(H  14,C   5,C   4,C  18)    -56.4359         0.013077   
    156. D(C   4,C   5,C   0,H  11)    177.9834         0.037696   
    157. D(H  14,C   5,C   0,C   1)   -179.8992         0.037696   
    158. D(C   4,C   5,C   0,C   1)     -2.3716         0.037696   
    159. D(C   7,C   6,N   3,C   2)    -76.4161         0.018325   
    160. D(C   7,C   6,N   3,C   4)    119.8876         0.018325   
    161. D(H  15,C   6,N   3,C   2)     37.8127         0.018325   
    162. D(C  19,C   6,N   3,C   4)    -11.3936         0.018325   
    163. D(C  19,C   6,N   3,C   2)    152.3027         0.018325   
    164. D(H  15,C   6,N   3,C   4)   -125.8836         0.018325   
    165. D(O   9,C   7,C   6,C  19)    -48.0320         0.011177   
    166. D(O   9,C   7,C   6,N   3)   -172.9246         0.011177   
    167. D(O   9,C   7,C   6,H  15)     69.5893         0.011177   
    168. D(O   8,C   7,C   6,C  19)    138.6909         0.011177   
    169. D(O   8,C   7,C   6,H  15)   -103.6878         0.011177   
    170. D(O   8,C   7,C   6,N   3)     13.7983         0.011177   
    171. D(C  10,O   9,C   7,O   8)     -5.0995         0.037689   
    172. D(C  10,O   9,C   7,C   6)   -178.4003         0.037689   
    173. D(H  39,C  10,O   9,C   7)    -64.6723         0.019485   
    174. D(H  17,C  10,O   9,C   7)     56.3083         0.019485   
    175. D(H  16,C  10,O   9,C   7)    176.1742         0.019485   
    176. D(C  41,C  18,C   4,H  13)    -45.8978         0.008466   
    177. D(C  41,C  18,C   4,C   5)     75.9502         0.008466   
    178. D(C  41,C  18,C   4,N   3)   -160.6942         0.008466   
    179. D(N  28,C  18,C   4,C   5)    -43.7182         0.008466   
    180. D(N  28,C  18,C   4,N   3)     79.6373         0.008466   
    181. D(C  19,C  18,C   4,H  13)     80.6471         0.008466   
    182. D(N  28,C  18,C   4,H  13)   -165.5663         0.008466   
    183. D(C  19,C  18,C   4,N   3)    -34.1493         0.008466   
    184. D(C  19,C  18,C   4,C   5)   -157.5048         0.008466   
    185. D(H  30,C  19,C   6,C   7)    109.4721         0.008752   
    186. D(C  20,C  19,C   6,H  15)   -124.5798         0.008752   
    187. D(C  20,C  19,C   6,C   7)     -8.6034         0.008752   
    188. D(H  30,C  19,C   6,N   3)   -122.5785         0.008752   
    189. D(C  20,C  19,C   6,N   3)    119.3460         0.008752   
    190. D(C  18,C  19,C   6,H  15)    104.7247         0.008752   
    191. D(C  18,C  19,C   6,C   7)   -139.2988         0.008752   
    192. D(H  30,C  19,C   6,H  15)     -6.5043         0.008752   
    193. D(C  18,C  19,C   6,N   3)    -11.3494         0.008752   
    194. D(H  30,C  19,C  18,C  41)    -95.6890         0.009113   
    195. D(H  30,C  19,C  18,C   4)    139.7872         0.009113   
    196. D(C  20,C  19,C  18,C  41)     20.8925         0.009113   
    197. D(C  20,C  19,C  18,N  28)    143.3408         0.009113   
    198. D(C  20,C  19,C  18,C   4)   -103.6313         0.009113   
    199. D(C   6,C  19,C  18,C  41)    152.2552         0.009113   
    200. D(H  30,C  19,C  18,N  28)     26.7594         0.009113   
    201. D(C   6,C  19,C  18,N  28)    -85.2965         0.009113   
    202. D(C   6,C  19,C  18,C   4)     27.7313         0.009113   
    203. D(C  25,C  20,C  19,H  30)   -165.7869         0.011850   
    204. D(C  25,C  20,C  19,C  18)     77.3282         0.011850   
    205. D(C  25,C  20,C  19,C   6)    -46.8263         0.011850   
    206. D(C  21,C  20,C  19,H  30)     13.0655         0.011850   
    207. D(C  21,C  20,C  19,C  18)   -103.8195         0.011850   
    208. D(C  21,C  20,C  19,C   6)    132.0260         0.011850   
    209. D(H  31,C  21,C  20,C  25)    179.8062         0.026344   
    210. D(H  31,C  21,C  20,C  19)      0.9031         0.026344   
    211. D(C  22,C  21,C  20,C  25)      0.1643         0.026344   
    212. D(C  22,C  21,C  20,C  19)   -178.7388         0.026344   
    213. D(H  32,C  22,C  21,H  31)      0.3299         0.025780   
    214. D(H  32,C  22,C  21,C  20)    179.9682         0.025780   
    215. D(C  23,C  22,C  21,H  31)   -179.1152         0.025780   
    216. D(C  23,C  22,C  21,C  20)      0.5231         0.025780   
    217. D(H  33,C  23,C  22,H  32)      0.0827         0.026812   
    218. D(H  33,C  23,C  22,C  21)    179.5247         0.026812   
    219. D(C  24,C  23,C  22,H  32)   -179.9014         0.026812   
    220. D(C  24,C  23,C  22,C  21)     -0.4594         0.026812   
    221. D(H  34,C  24,C  23,H  33)      0.1676         0.025717   
    222. D(H  34,C  24,C  23,C  22)   -179.8481         0.025717   
    223. D(C  25,C  24,C  23,H  33)    179.7246         0.025717   
    224. D(C  25,C  24,C  23,C  22)     -0.2911         0.025717   
    225. D(O  26,C  25,C  24,H  34)      0.1744         0.025926   
    226. D(O  26,C  25,C  24,C  23)   -179.3800         0.025926   
    227. D(C  20,C  25,C  24,H  34)   -179.4495         0.025926   
    228. D(C  20,C  25,C  24,C  23)      0.9961         0.025926   
    229. D(O  26,C  25,C  20,C  21)    179.4188         0.023471   
    230. D(O  26,C  25,C  20,C  19)     -1.7228         0.023471   
    231. D(C  24,C  25,C  20,C  21)     -0.9270         0.023471   
    232. D(C  24,C  25,C  20,C  19)    177.9314         0.023471   
    233. D(C  27,O  26,C  25,C  24)     -7.0081         0.031909   
    234. D(C  27,O  26,C  25,C  20)    172.6335         0.031909   
    235. D(H  37,C  27,O  26,C  25)     65.9115         0.021512   
    236. D(H  36,C  27,O  26,C  25)   -175.0549         0.021512   
    237. D(H  35,C  27,O  26,C  25)    -56.3221         0.021512   
    238. D(O  38,N  28,C  18,C  41)    161.5469         0.011136   
    239. D(O  38,N  28,C  18,C  19)     34.8070         0.011136   
    240. D(O  38,N  28,C  18,C   4)    -76.2518         0.011136   
    241. D(O  29,N  28,C  18,C  41)    -23.4320         0.011136   
    242. D(O  29,N  28,C  18,C  19)   -150.1719         0.011136   
    243. D(O  29,N  28,C  18,C   4)     98.7693         0.011136   
    244. D(F  44,C  41,C  18,N  28)     61.2180         0.010615   
    245. D(F  44,C  41,C  18,C  19)   -176.9216         0.010615   
    246. D(F  44,C  41,C  18,C   4)    -57.1933         0.010615   
    247. D(F  43,C  41,C  18,N  28)    -60.3014         0.010615   
    248. D(F  43,C  41,C  18,C  19)     61.5590         0.010615   
    249. D(F  43,C  41,C  18,C   4)   -178.7126         0.010615   
    250. D(F  42,C  41,C  18,N  28)    179.6903         0.010615   
    251. D(F  42,C  41,C  18,C  19)    -58.4493         0.010615   
    252. D(F  42,C  41,C  18,C   4)     61.2791         0.010615   
    -----------------------------------------------------------------

Number of atoms                         .... 45
Number of degrees of freedom            .... 252

         *************************************************************
         *                GEOMETRY OPTIMIZATION CYCLE   1            *
         *************************************************************
---------------------------------
CARTESIAN COORDINATES (ANGSTROEM)
---------------------------------
  C      3.899509    0.900667    1.089224
  C      3.600032    2.161722    0.449460
  C      2.375972    2.305968   -0.114703
  N      1.405069    1.352468   -0.015569
  C      1.571055    0.117758    0.726769
  C      2.976447   -0.074582    1.207549
  C      0.294494    1.307102   -0.933324
  C     -0.753712    2.367442   -0.637435
  O     -0.585769    3.309481    0.095797
  O     -1.823345    2.197791   -1.402092
  C     -2.875914    3.143665   -1.257111
  H      4.905462    0.730452    1.483626
  H      2.090903    3.192845   -0.685381
  H      0.853454    0.065144    1.569122
  H      3.209653   -1.023102    1.693208
  H      0.653010    1.574049   -1.942352
  H     -3.628012    2.881503   -2.009126
  H     -2.505733    4.164640   -1.424687
  C      0.996256   -0.946602   -0.275352
  C     -0.158276   -0.190219   -1.001603
  C     -1.569584   -0.525491   -0.576154
  C     -2.346273   -1.337745   -1.399793
  C     -3.664779   -1.661308   -1.074223
  C     -4.220383   -1.152108    0.095011
  C     -3.466696   -0.334444    0.939642
  C     -2.144934   -0.031567    0.610510
  O     -1.339546    0.736710    1.368265
  C     -1.860132    1.407264    2.493482
  N      2.080637   -1.219052   -1.290636
  O      2.774176   -2.198937   -1.153189
  H     -0.096295   -0.492890   -2.052600
  H     -1.906148   -1.721714   -2.324194
  H     -4.251896   -2.299640   -1.737632
  H     -5.253320   -1.387562    0.363311
  H     -3.911365    0.057239    1.854891
  H     -2.707274    2.053993    2.213823
  H     -1.045175    2.027765    2.884430
  H     -2.182896    0.693783    3.268554
  O      2.246481   -0.373479   -2.140200
  H     -3.311604    3.076729   -0.249514
  H      4.341566    2.956145    0.375706
  C      0.612022   -2.267447    0.410397
  F     -0.339483   -2.064883    1.319287
  F      0.155673   -3.151382   -0.476088
  F      1.629780   -2.824949    1.064370

----------------------------
CARTESIAN COORDINATES (A.U.)
----------------------------
  NO LB      ZA    FRAG     MASS         X           Y           Z
   0 C     6.0000    0    12.011    7.369004    1.702014    2.058335
   1 C     6.0000    0    12.011    6.803075    4.085063    0.849356
   2 C     6.0000    0    12.011    4.489936    4.357648   -0.216757
   3 N     7.0000    0    14.007    2.655196    2.555794   -0.029421
   4 C     6.0000    0    12.011    2.968864    0.222530    1.373394
   5 C     6.0000    0    12.011    5.624670   -0.140940    2.281937
   6 C     6.0000    0    12.011    0.556513    2.470065   -1.763727
   7 C     6.0000    0    12.011   -1.424309    4.473817   -1.204578
   8 O     8.0000    0    15.999   -1.106943    6.254013    0.181030
   9 O     8.0000    0    15.999   -3.445623    4.153223   -2.649570
  10 C     6.0000    0    12.011   -5.434690    5.940666   -2.375596
  11 H     1.0000    0     1.008    9.269980    1.380354    2.803647
  12 H     1.0000    0     1.008    3.951234    6.033603   -1.295182
  13 H     1.0000    0     1.008    1.612794    0.123104    2.965211
  14 H     1.0000    0     1.008    6.065365   -1.933383    3.199699
  15 H     1.0000    0     1.008    1.234010    2.974522   -3.670513
  16 H     1.0000    0     1.008   -6.855949    5.445252   -3.796698
  17 H     1.0000    0     1.008   -4.735149    7.870029   -2.692268
  18 C     6.0000    0    12.011    1.882651   -1.788819   -0.520340
  19 C     6.0000    0    12.011   -0.299098   -0.359462   -1.892755
  20 C     6.0000    0    12.011   -2.966084   -0.993034   -1.088773
  21 C     6.0000    0    12.011   -4.433813   -2.527972   -2.645225
  22 C     6.0000    0    12.011   -6.925429   -3.139417   -2.029987
  23 C     6.0000    0    12.011   -7.975368   -2.177169    0.179545
  24 C     6.0000    0    12.011   -6.551106   -0.632008    1.775666
  25 C     6.0000    0    12.011   -4.053338   -0.059653    1.153697
  26 O     8.0000    0    15.999   -2.531375    1.392180    2.585646
  27 C     6.0000    0    12.011   -3.515140    2.659344    4.711998
  28 N     7.0000    0    14.007    3.931834   -2.303674   -2.438949
  29 O     8.0000    0    15.999    5.242433   -4.155389   -2.179211
  30 H     1.0000    0     1.008   -0.181971   -0.931427   -3.878852
  31 H     1.0000    0     1.008   -3.602098   -3.253568   -4.392090
  32 H     1.0000    0     1.008   -8.034919   -4.345690   -3.283649
  33 H     1.0000    0     1.008   -9.927336   -2.622112    0.686558
  34 H     1.0000    0     1.008   -7.391409    0.108166    3.505236
  35 H     1.0000    0     1.008   -5.116006    3.881484    4.183519
  36 H     1.0000    0     1.008   -1.975095    3.831921    5.450783
  37 H     1.0000    0     1.008   -4.125076    1.311060    6.176672
  38 O     8.0000    0    15.999    4.245234   -0.705773   -4.044392
  39 H     1.0000    0     1.008   -6.258025    5.814175   -0.471513
  40 H     1.0000    0     1.008    8.204371    5.586304    0.709981
  41 C     6.0000    0    12.011    1.156554   -4.284854    0.775538
  42 F     9.0000    0    18.998   -0.641530   -3.902063    2.493091
  43 F     9.0000    0    18.998    0.294179   -5.955249   -0.899676
  44 F     9.0000    0    18.998    3.079838   -5.338380    2.011368

--------------------------------
INTERNAL COORDINATES (ANGSTROEM)
--------------------------------
 C      0   0   0     0.000000000000     0.00000000     0.00000000
 C      1   0   0     1.445421793889     0.00000000     0.00000000
 C      2   1   0     1.355510856720   117.65552355     0.00000000
 N      3   2   1     1.364420182849   122.54588708     4.72114567
 C      4   3   2     1.450215791715   123.41707821     1.74069229
 C      1   2   3     1.348018869849   121.88157842   355.66653591
 C      4   3   2     1.441426080174   121.60025985   199.80469849
 C      7   4   3     1.520068101881   112.66907442   283.58392432
 O      8   7   4     1.205517106720   124.57123148    13.79829697
 O      8   7   4     1.325743770168   110.78283090   187.07544082
 C     10   8   7     1.422532465007   116.94363404   181.59969183
 H      1   2   3     1.093831578461   119.07158915   175.31139726
 H      3   2   1     1.092469005315   122.64523899   184.85339879
 H      5   4   3     1.107825800749   110.82487212   116.95017335
 H      6   1   2     1.090843661171   121.45077895   180.10077026
 H      7   4   3     1.103599532371   108.91893427    37.81269978
 H     11  10   8     1.095402609123   106.19610297   176.17417587
 H     11  10   8     1.098865614696   110.67004140    56.30829478
 C      5   4   3     1.570828634397   102.03146455   225.44477656
 C     19   5   4     1.559647362936   103.84718213   325.85071782
 C     20  19   5     1.511689265838   116.90319228   256.36865145
 C     21  20  19     1.393335410286   118.90385588   256.18051106
 C     22  21  20     1.396118516425   121.58073175   181.26119309
 C     23  22  21     1.391074617543   119.23386121     0.52307617
 C     24  23  22     1.396431178765   120.47469640   359.54056328
 C     25  24  23     1.395391391401   119.71409778   359.70888684
 O     26  25  24     1.346511054280   123.89524026   180.61995795
 C     27  26  25     1.409526781371   119.98482411   352.99187685
 N     19   5   4     1.510269100630   106.76038811    79.63731849
 O     29  19   5     1.208330515859   118.81175663    98.76928467
 H     20  19   5     1.095466143982   105.71607505   139.78716407
 H     22  21  20     1.093462124350   118.68987177     0.90312592
 H     23  22  21     1.091918318920   120.10630397   179.96821989
 H     24  23  22     1.092877999634   120.33036718   179.52468170
 H     25  24  23     1.090333354553   119.86468491   180.15190763
 H     28  27  26     1.101869830736   111.13493817   303.67788492
 H     28  27  26     1.096365240946   106.22258499   184.94512759
 H     28  27  26     1.101802315409   111.20446878    65.91151032
 O     29  19   5     1.210064841552   116.38002259   283.74820461
 H     11  10   8     1.099799035554   110.24465650   295.32770657
 H      2   1   3     1.089229190116   121.68390193   182.91803980
 C     19   5   4     1.537048786403   112.89979143   199.30576303
 F     42  19   5     1.331343295781   110.63972308    61.27910931
 F     42  19   5     1.332460561987   111.03062170   181.28737849
 F     42  19   5     1.332036227472   112.81143313   302.80672353

---------------------------
INTERNAL COORDINATES (A.U.)
---------------------------
 C      0   0   0     0.000000000000     0.00000000     0.00000000
 C      1   0   0     2.731451338452     0.00000000     0.00000000
 C      2   1   0     2.561544290757   117.65552355     0.00000000
 N      3   2   1     2.578380477179   122.54588708     4.72114567
 C      4   3   2     2.740510681429   123.41707821     1.74069229
 C      1   2   3     2.547386487373   121.88157842   355.66653591
 C      4   3   2     2.723900533821   121.60025985   199.80469849
 C      7   4   3     2.872512417465   112.66907442   283.58392432
 O      8   7   4     2.278097181457   124.57123148    13.79829697
 O      8   7   4     2.505292649370   110.78283090   187.07544082
 C     10   8   7     2.688196775475   116.94363404   181.59969183
 H      1   2   3     2.067042119926   119.07158915   175.31139726
 H      3   2   1     2.064467229843   122.64523899   184.85339879
 H      5   4   3     2.093487367508   110.82487212   116.95017335
 H      6   1   2     2.061395774537   121.45077895   180.10077026
 H      7   4   3     2.085500877704   108.91893427    37.81269978
 H     11  10   8     2.070010937625   106.19610297   176.17417587
 H     11  10   8     2.076555069759   110.67004140    56.30829478
 C      5   4   3     2.968435922332   102.03146455   225.44477656
 C     19   5   4     2.947306381442   103.84718213   325.85071782
 C     20  19   5     2.856678712022   116.90319228   256.36865145
 C     21  20  19     2.633022338136   118.90385588   256.18051106
 C     22  21  20     2.638281646540   121.58073175   181.26119309
 C     23  22  21     2.628750059005   119.23386121     0.52307617
 C     24  23  22     2.638872492734   120.47469640   359.54056328
 C     25  24  23     2.636907579380   119.71409778   359.70888684
 O     26  25  24     2.544537128887   123.89524026   180.61995795
 C     27  26  25     2.663619595218   119.98482411   352.99187685
 N     19   5   4     2.853994988714   106.76038811    79.63731849
 O     29  19   5     2.283413754232   118.81175663    98.76928467
 H     20  19   5     2.070131001109   105.71607505   139.78716407
 H     22  21  20     2.066343952836   118.68987177     0.90312592
 H     23  22  21     2.063426583371   120.10630397   179.96821989
 H     24  23  22     2.065240117097   120.33036718   179.52468170
 H     25  24  23     2.060431434785   119.86468491   180.15190763
 H     28  27  26     2.082232215321   111.13493817   303.67788492
 H     28  27  26     2.071830048138   106.22258499   184.94512759
 H     28  27  26     2.082104629844   111.20446878    65.91151032
 O     29  19   5     2.286691154821   116.38002259   283.74820461
 H     11  10   8     2.078318979547   110.24465650   295.32770657
 H      2   1   3     2.058344866392   121.68390193   182.91803980
 C     19   5   4     2.904601260777   112.89979143   199.30576303
 F     42  19   5     2.515874219258   110.63972308    61.27910931
 F     42  19   5     2.517985546406   111.03062170   181.28737849
 F     42  19   5     2.517183670383   112.81143313   302.80672353

---------------------
BASIS SET INFORMATION
---------------------
There are 5 groups of distinct atoms

 Group   1 Type C   : 11s6p2d1f contracted to 5s3p2d1f pattern {62111/411/11/1}
 Group   2 Type N   : 11s6p2d1f contracted to 5s3p2d1f pattern {62111/411/11/1}
 Group   3 Type O   : 11s6p2d1f contracted to 5s3p2d1f pattern {62111/411/11/1}
 Group   4 Type H   : 5s1p contracted to 3s1p pattern {311/1}
 Group   5 Type F   : 11s6p2d1f contracted to 5s3p2d1f pattern {62111/411/11/1}

Atom   0C    basis set group =>   1
Atom   1C    basis set group =>   1
Atom   2C    basis set group =>   1
Atom   3N    basis set group =>   2
Atom   4C    basis set group =>   1
Atom   5C    basis set group =>   1
Atom   6C    basis set group =>   1
Atom   7C    basis set group =>   1
Atom   8O    basis set group =>   3
Atom   9O    basis set group =>   3
Atom  10C    basis set group =>   1
Atom  11H    basis set group =>   4
Atom  12H    basis set group =>   4
Atom  13H    basis set group =>   4
Atom  14H    basis set group =>   4
Atom  15H    basis set group =>   4
Atom  16H    basis set group =>   4
Atom  17H    basis set group =>   4
Atom  18C    basis set group =>   1
Atom  19C    basis set group =>   1
Atom  20C    basis set group =>   1
Atom  21C    basis set group =>   1
Atom  22C    basis set group =>   1
Atom  23C    basis set group =>   1
Atom  24C    basis set group =>   1
Atom  25C    basis set group =>   1
Atom  26O    basis set group =>   3
Atom  27C    basis set group =>   1
Atom  28N    basis set group =>   2
Atom  29O    basis set group =>   3
Atom  30H    basis set group =>   4
Atom  31H    basis set group =>   4
Atom  32H    basis set group =>   4
Atom  33H    basis set group =>   4
Atom  34H    basis set group =>   4
Atom  35H    basis set group =>   4
Atom  36H    basis set group =>   4
Atom  37H    basis set group =>   4
Atom  38O    basis set group =>   3
Atom  39H    basis set group =>   4
Atom  40H    basis set group =>   4
Atom  41C    basis set group =>   1
Atom  42F    basis set group =>   5
Atom  43F    basis set group =>   5
Atom  44F    basis set group =>   5
---------------------------------
AUXILIARY/J BASIS SET INFORMATION
---------------------------------
There are 5 groups of distinct atoms

 Group   1 Type C   : 12s5p4d2f1g contracted to 6s4p3d1f1g pattern {711111/2111/211/2/1}
 Group   2 Type N   : 12s5p4d2f1g contracted to 6s4p3d1f1g pattern {711111/2111/211/2/1}
 Group   3 Type O   : 12s5p4d2f1g contracted to 6s4p3d1f1g pattern {711111/2111/211/2/1}
 Group   4 Type H   : 5s2p1d contracted to 3s1p1d pattern {311/2/1}
 Group   5 Type F   : 12s5p4d2f1g contracted to 6s4p3d1f1g pattern {711111/2111/211/2/1}

Atom   0C    basis set group =>   1
Atom   1C    basis set group =>   1
Atom   2C    basis set group =>   1
Atom   3N    basis set group =>   2
Atom   4C    basis set group =>   1
Atom   5C    basis set group =>   1
Atom   6C    basis set group =>   1
Atom   7C    basis set group =>   1
Atom   8O    basis set group =>   3
Atom   9O    basis set group =>   3
Atom  10C    basis set group =>   1
Atom  11H    basis set group =>   4
Atom  12H    basis set group =>   4
Atom  13H    basis set group =>   4
Atom  14H    basis set group =>   4
Atom  15H    basis set group =>   4
Atom  16H    basis set group =>   4
Atom  17H    basis set group =>   4
Atom  18C    basis set group =>   1
Atom  19C    basis set group =>   1
Atom  20C    basis set group =>   1
Atom  21C    basis set group =>   1
Atom  22C    basis set group =>   1
Atom  23C    basis set group =>   1
Atom  24C    basis set group =>   1
Atom  25C    basis set group =>   1
Atom  26O    basis set group =>   3
Atom  27C    basis set group =>   1
Atom  28N    basis set group =>   2
Atom  29O    basis set group =>   3
Atom  30H    basis set group =>   4
Atom  31H    basis set group =>   4
Atom  32H    basis set group =>   4
Atom  33H    basis set group =>   4
Atom  34H    basis set group =>   4
Atom  35H    basis set group =>   4
Atom  36H    basis set group =>   4
Atom  37H    basis set group =>   4
Atom  38O    basis set group =>   3
Atom  39H    basis set group =>   4
Atom  40H    basis set group =>   4
Atom  41C    basis set group =>   1
Atom  42F    basis set group =>   5
Atom  43F    basis set group =>   5
Atom  44F    basis set group =>   5


           ************************************************************
           *        Program running with 24 parallel MPI-processes    *
           *              working on a common directory               *
           ************************************************************
------------------------------------------------------------------------------
                           ORCA GTO INTEGRAL CALCULATION
                           -- RI-GTO INTEGRALS CHOSEN --
------------------------------------------------------------------------------
------------------------------------------------------------------------------
                   ___                                                        
                  /   \      - P O W E R E D   B Y -                         
                 /     \                                                     
                 |  |  |   _    _      __       _____    __    __             
                 |  |  |  | |  | |    /  \     |  _  \  |  |  /  |          
                  \  \/   | |  | |   /    \    | | | |  |  | /  /          
                 / \  \   | |__| |  /  /\  \   | |_| |  |  |/  /          
                |  |  |   |  __  | /  /__\  \  |    /   |      \           
                |  |  |   | |  | | |   __   |  |    \   |  |\   \          
                \     /   | |  | | |  |  |  |  | |\  \  |  | \   \       
                 \___/    |_|  |_| |__|  |__|  |_| \__\ |__|  \__/        
                                                                              
                      - O R C A' S   B I G   F R I E N D -                    
                                      &                                       
                       - I N T E G R A L  F E E D E R -                       
                                                                              
 v1 FN, 2020, v2 2021                                                         
------------------------------------------------------------------------------


Reading SHARK input file 3_CF3/3_CF3.SHARKINP.tmp ... ok
----------------------
SHARK INTEGRAL PACKAGE
----------------------

Number of atoms                             ...     45
Number of basis functions                   ...    970
Number of shells                            ...    376
Maximum angular momentum                    ...      3
Integral batch strategy                     ... SHARK/LIBINT Hybrid
RI-J (if used) integral strategy            ... SPLIT-RIJ (Revised 2003 algorithm where possible)
Printlevel                                  ...      1
Contraction scheme used                     ... SEGMENTED contraction
Coulomb Range Separation                    ... NOT USED
Exchange Range Separation                   ... NOT USED
Finite Nucleus Model                        ... NOT USED
Auxiliary Coulomb fitting basis             ... AVAILABLE
   # of basis functions in Aux-J            ...   1559
   # of shells in Aux-J                     ...    505
   Maximum angular momentum in Aux-J        ...      4
Auxiliary J/K fitting basis                 ... NOT available
Auxiliary Correlation fitting basis         ... NOT available
Auxiliary 'external' fitting basis          ... NOT available
Integral threshold                          ...     2.500000e-11
Primitive cut-off                           ...     2.500000e-12
Primitive pair pre-selection threshold      ...     2.500000e-12

Calculating pre-screening integrals         ... done (  0.1 sec) Dimension = 376
Organizing shell pair data                  ... done (  0.7 sec)
Shell pair information
Total number of shell pairs                 ...     70876
Shell pairs after pre-screening             ...     51670
Total number of primitive shell pairs       ...    220120
Primitive shell pairs kept                  ...    104145
          la=0 lb=0:  12689 shell pairs
          la=1 lb=0:  14705 shell pairs
          la=1 lb=1:   4250 shell pairs
          la=2 lb=0:   7485 shell pairs
          la=2 lb=1:   4422 shell pairs
          la=2 lb=2:   1174 shell pairs
          la=3 lb=0:   3481 shell pairs
          la=3 lb=1:   2117 shell pairs
          la=3 lb=2:   1073 shell pairs
          la=3 lb=3:    274 shell pairs

Calculating one electron integrals          ... done (  0.1 sec)
Calculating RI/J V-Matrix + Cholesky decomp.... done (  0.5 sec)
Calculating Nuclear repulsion               ... done (  0.0 sec) ENN=   3089.059837770496 Eh

SHARK setup successfully completed in   2.3 seconds

Maximum memory used throughout the entire GTOINT-calculation: 77.9 MB


           ************************************************************
           *        Program running with 24 parallel MPI-processes    *
           *              working on a common directory               *
           ************************************************************
-------------------------------------------------------------------------------
                                 ORCA SCF
-------------------------------------------------------------------------------

------------
SCF SETTINGS
------------
Hamiltonian:
 Density Functional     Method          .... DFT(GTOs)
 Exchange Functional    Exchange        .... PBE
   PBE kappa parameter   XKappa         ....  0.804000
   PBE mue parameter    XMuePBE         ....  0.219520
 Correlation Functional Correlation     .... PBE
   PBE beta parameter  CBetaPBE         ....  0.066725
 LDA part of GGA corr.  LDAOpt          .... PW91-LDA
 Gradients option       PostSCFGGA      .... off
 Hybrid DFT is turned on
   Fraction HF Exchange ScalHFX         ....  0.250000
   Scaling of DF-GGA-X  ScalDFX         ....  0.750000
   Scaling of DF-GGA-C  ScalDFC         ....  1.000000
   Scaling of DF-LDA-C  ScalLDAC        ....  1.000000
   Perturbative correction              ....  0.000000
   Density functional embedding theory  .... OFF
   NL short-range parameter             ....  6.900000
 RI-approximation to the Coulomb term is turned on
   Number of AuxJ basis functions       .... 1559
   RIJ-COSX (HFX calculated with COS-X)).... on


General Settings:
 Integral files         IntName         .... 3_CF3/3_CF3
 Hartree-Fock type      HFTyp           .... RHF
 Total Charge           Charge          ....    0
 Multiplicity           Mult            ....    1
 Number of Electrons    NEL             ....  206
 Basis Dimension        Dim             ....  970
 Nuclear Repulsion      ENuc            ....   3089.0598377705 Eh

Convergence Acceleration:
 DIIS                   CNVDIIS         .... on
   Start iteration      DIISMaxIt       ....    12
   Startup error        DIISStart       ....  0.200000
   # of expansion vecs  DIISMaxEq       ....     5
   Bias factor          DIISBfac        ....   1.050
   Max. coefficient     DIISMaxC        ....  10.000
 Trust-Rad. Augm. Hess. CNVTRAH         .... auto
   Auto Start mean grad. ratio tolernc. ....  1.125000
   Auto Start start iteration           ....    20
   Auto Start num. interpolation iter.  ....    10
   Max. Number of Micro iterations      ....    16
   Max. Number of Macro iterations      .... Maxiter - #DIIS iter
   Number of Davidson start vectors     ....     2
   Converg. threshold I  (grad. norm)   ....   1.000e-05
   Converg. threshold II (energy diff.) ....   1.000e-08
   Grad. Scal. Fac. for Micro threshold ....   0.100
   Minimum threshold for Micro iter.    ....   0.010
   NR start threshold (gradient norm)   ....   0.001
   Initial trust radius                 ....   0.400
   Minimum AH scaling param. (alpha)    ....   1.000
   Maximum AH scaling param. (alpha)    .... 1000.000
   Orbital update algorithm             .... Taylor
   White noise on init. David. guess    .... on
   Maximum white noise                  ....   0.010
   Quad. conv. algorithm                .... NR
 SOSCF                  CNVSOSCF        .... on
   Start iteration      SOSCFMaxIt      ....   150
   Startup grad/error   SOSCFStart      ....  0.003300
 Level Shifting         CNVShift        .... on
   Level shift para.    LevelShift      ....    0.2500
   Turn off err/grad.   ShiftErr        ....    0.0010
 Zerner damping         CNVZerner       .... off
 Static damping         CNVDamp         .... on
   Fraction old density DampFac         ....    0.7000
   Max. Damping (<1)    DampMax         ....    0.9800
   Min. Damping (>=0)   DampMin         ....    0.0000
   Turn off err/grad.   DampErr         ....    0.1000
 Fernandez-Rico         CNVRico         .... off

SCF Procedure:
 Maximum # iterations   MaxIter         ....   800
 SCF integral mode      SCFMode         .... Direct
   Integral package                     .... SHARK and LIBINT hybrid scheme
 Reset frequency        DirectResetFreq ....    20
 Integral Threshold     Thresh          ....  2.500e-11 Eh
 Primitive CutOff       TCut            ....  2.500e-12 Eh

Convergence Tolerance:
 Convergence Check Mode ConvCheckMode   .... Total+1el-Energy
 Convergence forced     ConvForced      .... 0
 Energy Change          TolE            ....  1.000e-08 Eh
 1-El. energy change                    ....  1.000e-05 Eh
 Orbital Gradient       TolG            ....  1.000e-05
 Orbital Rotation angle TolX            ....  1.000e-05
 DIIS Error             TolErr          ....  5.000e-07


Diagonalization of the overlap matrix:
Smallest eigenvalue                        ... 5.506e-06
Time for diagonalization                   ...    0.390 sec
Threshold for overlap eigenvalues          ... 1.000e-08
Number of eigenvalues below threshold      ... 0
Time for construction of square roots      ...    0.165 sec
Total time needed                          ...    0.562 sec

Time for model grid setup =    0.392 sec

------------------------------
INITIAL GUESS: MODEL POTENTIAL
------------------------------
Loading Hartree-Fock densities                     ... done
Calculating cut-offs                               ... done
Initializing the effective Hamiltonian             ... done
Setting up the integral package (SHARK)            ... done
Starting the Coulomb interaction                   ... done (   0.9 sec)
Reading the grid                                   ... done
Mapping shells                                     ... done
Starting the XC term evaluation                    ... done (   0.3 sec)
  promolecular density results
     # of electrons  =    205.990625613
     EX              =   -181.052733024
     EC              =     -7.062365126
     EX+EC           =   -188.115098150
Transforming the Hamiltonian                       ... done (   0.2 sec)
Diagonalizing the Hamiltonian                      ... done (   0.3 sec)
Back transforming the eigenvectors                 ... done (   0.1 sec)
Now organizing SCF variables                       ... done
                      ------------------
                      INITIAL GUESS DONE (   2.4 sec)
                      ------------------
-------------------
DFT GRID GENERATION
-------------------

General Integration Accuracy     IntAcc      ... 4.388
Radial Grid Type                 RadialGrid  ... OptM3 with GC (2021)
Angular Grid (max. ang.)         AngularGrid ... 4 (Lebedev-302)
Angular grid pruning method      GridPruning ... 4 (adaptive)
Weight generation scheme         WeightScheme... Becke
Basis function cutoff            BFCut       ... 1.0000e-11
Integration weight cutoff        WCut        ... 1.0000e-14
Angular grids for H and He will be reduced by one unit
Partially contracted basis set               ... off
Rotationally invariant grid construction     ... off

Total number of grid points                  ...   220582
Total number of batches                      ...     3473
Average number of points per batch           ...       63
Average number of grid points per atom       ...     4902
Time for grid setup =    1.728 sec

--------------------
COSX GRID GENERATION
--------------------

GRIDX 1
-------
General Integration Accuracy     IntAcc      ... 3.816
Radial Grid Type                 RadialGrid  ... OptM3 with GC (2021)
Angular Grid (max. ang.)         AngularGrid ... 1 (Lebedev-50)
Angular grid pruning method      GridPruning ... 4 (adaptive)
Weight generation scheme         WeightScheme... Becke
Basis function cutoff            BFCut       ... 1.0000e-11
Integration weight cutoff        WCut        ... 1.0000e-14
Angular grids for H and He will be reduced by one unit
Partially contracted basis set               ... on
Rotationally invariant grid construction     ... off

Total number of grid points                  ...    27904
Total number of batches                      ...      460
Average number of points per batch           ...       60
Average number of grid points per atom       ...      620
UseSFitting                                  ... on

GRIDX 2
-------
General Integration Accuracy     IntAcc      ... 4.020
Radial Grid Type                 RadialGrid  ... OptM3 with GC (2021)
Angular Grid (max. ang.)         AngularGrid ... 2 (Lebedev-110)
Angular grid pruning method      GridPruning ... 4 (adaptive)
Weight generation scheme         WeightScheme... Becke
Basis function cutoff            BFCut       ... 1.0000e-11
Integration weight cutoff        WCut        ... 1.0000e-14
Angular grids for H and He will be reduced by one unit
Partially contracted basis set               ... on
Rotationally invariant grid construction     ... off

Total number of grid points                  ...    60952
Total number of batches                      ...      974
Average number of points per batch           ...       62
Average number of grid points per atom       ...     1354
UseSFitting                                  ... on

GRIDX 3
-------
General Integration Accuracy     IntAcc      ... 4.338
Radial Grid Type                 RadialGrid  ... OptM3 with GC (2021)
Angular Grid (max. ang.)         AngularGrid ... 3 (Lebedev-194)
Angular grid pruning method      GridPruning ... 4 (adaptive)
Weight generation scheme         WeightScheme... Becke
Basis function cutoff            BFCut       ... 1.0000e-11
Integration weight cutoff        WCut        ... 1.0000e-14
Angular grids for H and He will be reduced by one unit
Partially contracted basis set               ... on
Rotationally invariant grid construction     ... off

Total number of grid points                  ...   133319
Total number of batches                      ...     2106
Average number of points per batch           ...       63
Average number of grid points per atom       ...     2963
UseSFitting                                  ... on

Time for X-Grid setup             =    3.010 sec


--------------------
CPCM SOLVATION MODEL
--------------------
CPCM parameters:
  Epsilon                                         ...      47.2000
  Refrac                                          ...       1.4790
  Rsolv                                           ...       1.3000
  Surface type                                    ... GAUSSIAN VDW
  Epsilon function type                           ...         CPCM
Radii:
 Radius for C  used is    3.8550 Bohr (=   2.0400 Ang.)
 Radius for N  used is    3.5149 Bohr (=   1.8600 Ang.)
 Radius for O  used is    3.4469 Bohr (=   1.8240 Ang.)
 Radius for H  used is    2.4944 Bohr (=   1.3200 Ang.)
 Radius for F  used is    3.3335 Bohr (=   1.7640 Ang.)
Calculating surface                               ...        done! (  0.0s)
GEPOL surface points                              ...         2210
GEPOL Volume                                      ...    2748.1181
GEPOL Surface-area                                ...    1302.0433
Calculating surface distance matrix               ...        done! (  0.1s)
Performing Cholesky decomposition & store         ...        done! (  0.3s)
Overall time for CPCM initialization              ...                 0.4s
--------------
SCF ITERATIONS
--------------
ITER       Energy         Delta-E        Max-DP      RMS-DP      [F,P]     Damp
               ***  Starting incremental Fock matrix formation  ***
  0  -1479.5489272876   0.000000000000 0.10872294  0.00064481  0.2654724 0.7000
  1  -1479.8276623197  -0.278735032052 0.08626142  0.00046527  0.1048497 0.7000
                               ***Turning on DIIS***
  2  -1479.9351466074  -0.107484287705 0.08104805  0.00083151  0.0334057 0.0000
  3  -1480.1185056090  -0.183359001635 0.09079489  0.00036332  0.0534099 0.0000
  4  -1480.1496898173  -0.031184208285 0.01851749  0.00015103  0.0157638 0.0000
  5  -1480.1519709629  -0.002281145580 0.01510868  0.00004864  0.0046545 0.0000
                      *** Initiating the SOSCF procedure ***
                           *** Shutting down DIIS ***
                      *** Re-Reading the Fockian *** 
                      *** Removing any level shift *** 
ITER      Energy       Delta-E        Grad      Rot      Max-DP    RMS-DP
  6  -1480.15211816  -0.0001471934  0.000205  0.000205  0.003083  0.000017
               *** Restarting incremental Fock matrix formation ***
  7  -1480.15214475  -0.0000265958  0.000157  0.000925  0.003346  0.000024
  8  -1480.15214466   0.0000000949  0.000217  0.000317  0.000956  0.000006
  9  -1480.15214817  -0.0000035126  0.000062  0.000203  0.000621  0.000004
 10  -1480.15214805   0.0000001176  0.000127  0.000159  0.000261  0.000001
 11  -1480.15214824  -0.0000001899  0.000026  0.000061  0.000301  0.000002
 12  -1480.15214822   0.0000000210  0.000031  0.000034  0.000118  0.000001
                  ***Gradient check signals convergence***
              ***Rediagonalizing the Fockian in SOSCF/NRSCF***

               *****************************************************
               *                     SUCCESS                       *
               *           SCF CONVERGED AFTER  13 CYCLES          *
               *****************************************************

Old exchange energy                            =    -45.987149365 Eh
New exchange energy                            =    -45.987097785 Eh
Exchange energy change after final integration =      0.000051580 Eh
Total energy after final integration           =  -1480.152096682 Eh
Final COS-X integration done in                =    22.560 sec

----------------
TOTAL SCF ENERGY
----------------

Total Energy       :        -1480.15209668 Eh          -40276.98619 eV

Components:
Nuclear Repulsion  :         3089.05983777 Eh           84057.59159 eV
Electronic Energy  :        -4569.21193445 Eh         -124334.57778 eV
One Electron Energy:        -8176.28655763 Eh         -222488.06831 eV
Two Electron Energy:         3607.07462317 Eh           98153.49052 eV
Max COSX asymmetry :            0.00000287 Eh               0.00008 eV
CPCM Dielectric    :           -0.02563081 Eh              -0.69745 eV

Virial components:
Potential Energy   :        -2953.91311230 Eh          -80380.06223 eV
Kinetic Energy     :         1473.76101561 Eh           40103.07604 eV
Virial Ratio       :            2.00433658


DFT components:
N(Alpha)           :      102.999807587502 electrons
N(Beta)            :      102.999807587502 electrons
N(Total)           :      205.999615175003 electrons
E(X)               :     -137.769489123454 Eh       
E(C)               :       -7.044364834498 Eh       
E(XC)              :     -144.813853957952 Eh       
DFET-embed. en.    :        0.000000000000 Eh       
CPCM Solvation Model Properties:
Surface-charge          :           -0.02886425
Charge-correction       :            0.00000923 Eh               0.00025 eV
Free-energy (cav+disp)  :  This term is not implemented in the current solvation scheme

---------------
SCF CONVERGENCE
---------------

  Last Energy change         ...   -4.1591e-08  Tolerance :   1.0000e-08
  Last MAX-Density change    ...    2.5535e-15  Tolerance :   1.0000e-07
  Last RMS-Density change    ...    1.3214e-17  Tolerance :   5.0000e-09
  Last Orbital Gradient      ...    1.8078e-06  Tolerance :   1.0000e-05
  Last Orbital Rotation      ...    5.5176e-06  Tolerance :   1.0000e-05

             **** THE GBW FILE WAS UPDATED (3_CF3/3_CF3.gbw) ****
             **** DENSITY 3_CF3/3_CF3.scfp WAS UPDATED ****
             **** ENERGY FILE WAS UPDATED (3_CF3/3_CF3.en.tmp) ****
             **** THE GBW FILE WAS UPDATED (3_CF3/3_CF3.gbw) ****
             **** DENSITY 3_CF3/3_CF3.scfp WAS UPDATED ****
----------------
ORBITAL ENERGIES
----------------

  NO   OCC          E(Eh)            E(eV) 
   0   2.0000     -24.820757      -675.4071 
   1   2.0000     -24.820466      -675.3992 
   2   2.0000     -24.817296      -675.3130 
   3   2.0000     -19.263762      -524.1936 
   4   2.0000     -19.260818      -524.1135 
   5   2.0000     -19.260160      -524.0956 
   6   2.0000     -19.251811      -523.8684 
   7   2.0000     -19.201903      -522.5104 
   8   2.0000     -14.638222      -398.3263 
   9   2.0000     -14.427584      -392.5945 
  10   2.0000     -10.495181      -285.5884 
  11   2.0000     -10.360648      -281.9276 
  12   2.0000     -10.331652      -281.1385 
  13   2.0000     -10.299671      -280.2683 
  14   2.0000     -10.295778      -280.1624 
  15   2.0000     -10.292053      -280.0610 
  16   2.0000     -10.280212      -279.7388 
  17   2.0000     -10.272909      -279.5401 
  18   2.0000     -10.271208      -279.4938 
  19   2.0000     -10.268112      -279.4095 
  20   2.0000     -10.246923      -278.8330 
  21   2.0000     -10.235581      -278.5243 
  22   2.0000     -10.235504      -278.5222 
  23   2.0000     -10.235076      -278.5106 
  24   2.0000     -10.230588      -278.3885 
  25   2.0000     -10.228689      -278.3368 
  26   2.0000     -10.226146      -278.2676 
  27   2.0000     -10.211831      -277.8780 
  28   2.0000      -1.374777       -37.4096 
  29   2.0000      -1.297207       -35.2988 
  30   2.0000      -1.282215       -34.8908 
  31   2.0000      -1.278386       -34.7867 
  32   2.0000      -1.154969       -31.4283 
  33   2.0000      -1.117765       -30.4159 
  34   2.0000      -1.116902       -30.3924 
  35   2.0000      -1.061531       -28.8857 
  36   2.0000      -1.020444       -27.7677 
  37   2.0000      -0.912274       -24.8242 
  38   2.0000      -0.887922       -24.1616 
  39   2.0000      -0.857144       -23.3241 
  40   2.0000      -0.814499       -22.1637 
  41   2.0000      -0.794890       -21.6301 
  42   2.0000      -0.785567       -21.3764 
  43   2.0000      -0.780880       -21.2488 
  44   2.0000      -0.754449       -20.5296 
  45   2.0000      -0.747521       -20.3411 
  46   2.0000      -0.724076       -19.7031 
  47   2.0000      -0.710253       -19.3270 
  48   2.0000      -0.670826       -18.2541 
  49   2.0000      -0.665468       -18.1083 
  50   2.0000      -0.650649       -17.7051 
  51   2.0000      -0.637497       -17.3472 
  52   2.0000      -0.634051       -17.2534 
  53   2.0000      -0.632603       -17.2140 
  54   2.0000      -0.616750       -16.7826 
  55   2.0000      -0.604003       -16.4357 
  56   2.0000      -0.594384       -16.1740 
  57   2.0000      -0.580617       -15.7994 
  58   2.0000      -0.568243       -15.4627 
  59   2.0000      -0.556472       -15.1424 
  60   2.0000      -0.552364       -15.0306 
  61   2.0000      -0.542399       -14.7594 
  62   2.0000      -0.536661       -14.6033 
  63   2.0000      -0.519702       -14.1418 
  64   2.0000      -0.514925       -14.0118 
  65   2.0000      -0.511685       -13.9237 
  66   2.0000      -0.507903       -13.8207 
  67   2.0000      -0.505512       -13.7557 
  68   2.0000      -0.504163       -13.7190 
  69   2.0000      -0.493111       -13.4182 
  70   2.0000      -0.486371       -13.2348 
  71   2.0000      -0.484658       -13.1882 
  72   2.0000      -0.475335       -12.9345 
  73   2.0000      -0.468748       -12.7553 
  74   2.0000      -0.466699       -12.6995 
  75   2.0000      -0.461212       -12.5502 
  76   2.0000      -0.449326       -12.2268 
  77   2.0000      -0.446681       -12.1548 
  78   2.0000      -0.444897       -12.1063 
  79   2.0000      -0.441212       -12.0060 
  80   2.0000      -0.437773       -11.9124 
  81   2.0000      -0.427425       -11.6308 
  82   2.0000      -0.423213       -11.5162 
  83   2.0000      -0.406452       -11.0601 
  84   2.0000      -0.401469       -10.9245 
  85   2.0000      -0.392411       -10.6780 
  86   2.0000      -0.385496       -10.4899 
  87   2.0000      -0.382207       -10.4004 
  88   2.0000      -0.377555       -10.2738 
  89   2.0000      -0.371814       -10.1176 
  90   2.0000      -0.363105        -9.8806 
  91   2.0000      -0.360279        -9.8037 
  92   2.0000      -0.351915        -9.5761 
  93   2.0000      -0.347186        -9.4474 
  94   2.0000      -0.341378        -9.2894 
  95   2.0000      -0.340126        -9.2553 
  96   2.0000      -0.333929        -9.0867 
  97   2.0000      -0.329334        -8.9616 
  98   2.0000      -0.310005        -8.4357 
  99   2.0000      -0.298562        -8.1243 
 100   2.0000      -0.272365        -7.4114 
 101   2.0000      -0.242045        -6.5864 
 102   2.0000      -0.201883        -5.4935 
 103   0.0000      -0.081817        -2.2264 
 104   0.0000      -0.031987        -0.8704 
 105   0.0000      -0.019486        -0.5302 
 106   0.0000      -0.002793        -0.0760 
 107   0.0000       0.006134         0.1669 
 108   0.0000       0.045225         1.2306 
 109   0.0000       0.048612         1.3228 
 110   0.0000       0.060410         1.6438 
 111   0.0000       0.068250         1.8572 
 112   0.0000       0.072102         1.9620 
 113   0.0000       0.079416         2.1610 
 114   0.0000       0.083744         2.2788 
 115   0.0000       0.088067         2.3964 
 116   0.0000       0.092795         2.5251 
 117   0.0000       0.096025         2.6130 
 118   0.0000       0.103200         2.8082 
 119   0.0000       0.109598         2.9823 
 120   0.0000       0.111088         3.0229 
 121   0.0000       0.113011         3.0752 
 122   0.0000       0.118589         3.2270 
 123   0.0000       0.123447         3.3592 
 124   0.0000       0.128282         3.4907 
 125   0.0000       0.131530         3.5791 
 126   0.0000       0.135521         3.6877 
 127   0.0000       0.140830         3.8322 
 128   0.0000       0.143774         3.9123 
 129   0.0000       0.145413         3.9569 
 130   0.0000       0.149061         4.0562 
 131   0.0000       0.154157         4.1948 
 132   0.0000       0.162492         4.4216 
 133   0.0000       0.166339         4.5263 
 134   0.0000       0.171803         4.6750 
 135   0.0000       0.177002         4.8165 
 136   0.0000       0.192089         5.2270 
 137   0.0000       0.194660         5.2970 
 138   0.0000       0.198574         5.4035 
 139   0.0000       0.203055         5.5254 
 140   0.0000       0.209973         5.7137 
 141   0.0000       0.213916         5.8209 
 142   0.0000       0.218965         5.9583 
 143   0.0000       0.220520         6.0007 
 144   0.0000       0.223518         6.0822 
 145   0.0000       0.224891         6.1196 
 146   0.0000       0.230213         6.2644 
 147   0.0000       0.232297         6.3211 
 148   0.0000       0.242563         6.6005 
 149   0.0000       0.245437         6.6787 
 150   0.0000       0.248252         6.7553 
 151   0.0000       0.253586         6.9004 
 152   0.0000       0.255643         6.9564 
 153   0.0000       0.259109         7.0507 
 154   0.0000       0.261969         7.1285 
 155   0.0000       0.264115         7.1869 
 156   0.0000       0.267240         7.2720 
 157   0.0000       0.274987         7.4828 
 158   0.0000       0.280544         7.6340 
 159   0.0000       0.283782         7.7221 
 160   0.0000       0.289459         7.8766 
 161   0.0000       0.293262         7.9801 
 162   0.0000       0.298294         8.1170 
 163   0.0000       0.300740         8.1836 
 164   0.0000       0.306839         8.3495 
 165   0.0000       0.308762         8.4018 
 166   0.0000       0.315570         8.5871 
 167   0.0000       0.318477         8.6662 
 168   0.0000       0.319555         8.6955 
 169   0.0000       0.325714         8.8631 
 170   0.0000       0.326163         8.8754 
 171   0.0000       0.333674         9.0797 
 172   0.0000       0.338259         9.2045 
 173   0.0000       0.340412         9.2631 
 174   0.0000       0.343731         9.3534 
 175   0.0000       0.348294         9.4776 
 176   0.0000       0.349906         9.5214 
 177   0.0000       0.358761         9.7624 
 178   0.0000       0.363380         9.8881 
 179   0.0000       0.367491         9.9999 
 180   0.0000       0.369684        10.0596 
 181   0.0000       0.371915        10.1203 
 182   0.0000       0.378813        10.3080 
 183   0.0000       0.380672        10.3586 
 184   0.0000       0.385802        10.4982 
 185   0.0000       0.388189        10.5632 
 186   0.0000       0.392955        10.6928 
 187   0.0000       0.396722        10.7953 
 188   0.0000       0.400313        10.8931 
 189   0.0000       0.405039        11.0217 
 190   0.0000       0.408795        11.1239 
 191   0.0000       0.411707        11.2031 
 192   0.0000       0.419182        11.4065 
 193   0.0000       0.422125        11.4866 
 194   0.0000       0.424972        11.5641 
 195   0.0000       0.428177        11.6513 
 196   0.0000       0.434168        11.8143 
 197   0.0000       0.437335        11.9005 
 198   0.0000       0.441488        12.0135 
 199   0.0000       0.444907        12.1065 
 200   0.0000       0.447092        12.1660 
 201   0.0000       0.453484        12.3399 
 202   0.0000       0.454976        12.3805 
 203   0.0000       0.464044        12.6273 
 204   0.0000       0.466799        12.7022 
 205   0.0000       0.469307        12.7705 
 206   0.0000       0.472652        12.8615 
 207   0.0000       0.476926        12.9778 
 208   0.0000       0.479078        13.0364 
 209   0.0000       0.485489        13.2108 
 210   0.0000       0.485927        13.2227 
 211   0.0000       0.492258        13.3950 
 212   0.0000       0.493719        13.4348 
 213   0.0000       0.497412        13.5353 
 214   0.0000       0.500827        13.6282 
 215   0.0000       0.504491        13.7279 
 216   0.0000       0.508952        13.8493 
 217   0.0000       0.516192        14.0463 
 218   0.0000       0.518971        14.1219 
 219   0.0000       0.522443        14.2164 
 220   0.0000       0.529482        14.4079 
 221   0.0000       0.533693        14.5225 
 222   0.0000       0.536722        14.6049 
 223   0.0000       0.541723        14.7410 
 224   0.0000       0.544562        14.8183 
 225   0.0000       0.553758        15.0685 
 226   0.0000       0.558716        15.2034 
 227   0.0000       0.564013        15.3476 
 228   0.0000       0.565970        15.4008 
 229   0.0000       0.567861        15.4523 
 230   0.0000       0.574841        15.6422 
 231   0.0000       0.582763        15.8578 
 232   0.0000       0.587196        15.9784 
 233   0.0000       0.593702        16.1555 
 234   0.0000       0.601291        16.3620 
 235   0.0000       0.606769        16.5110 
 236   0.0000       0.610517        16.6130 
 237   0.0000       0.612184        16.6584 
 238   0.0000       0.620264        16.8782 
 239   0.0000       0.621009        16.8985 
 240   0.0000       0.634991        17.2790 
 241   0.0000       0.645434        17.5631 
 242   0.0000       0.649897        17.6846 
 243   0.0000       0.656113        17.8537 
 244   0.0000       0.663182        18.0461 
 245   0.0000       0.664361        18.0782 
 246   0.0000       0.668358        18.1869 
 247   0.0000       0.683265        18.5926 
 248   0.0000       0.688016        18.7219 
 249   0.0000       0.692559        18.8455 
 250   0.0000       0.693927        18.8827 
 251   0.0000       0.697747        18.9867 
 252   0.0000       0.704992        19.1838 
 253   0.0000       0.713511        19.4156 
 254   0.0000       0.715169        19.4608 
 255   0.0000       0.717742        19.5308 
 256   0.0000       0.721542        19.6342 
[...]
 28:    289.28   0.000228    1.15  0.000246  (-0.004240 -0.014395 -0.004519)
 29:    301.13   0.003316   16.76  0.003437  ( 0.054977  0.006453  0.019310)
 30:    318.86   0.001102    5.57  0.001079  (-0.015171 -0.029106  0.001138)
 31:    338.27   0.002329   11.77  0.002149  (-0.025904 -0.034500 -0.016953)
 32:    345.57   0.000425    2.15  0.000384  ( 0.001288  0.016839  0.009918)
 33:    373.68   0.002520   12.73  0.002104  ( 0.020790 -0.037895 -0.015368)
 34:    394.73   0.002740   13.85  0.002166  (-0.006972  0.007554  0.045391)
 35:    433.05   0.002886   14.58  0.002079  ( 0.023375 -0.011721 -0.037357)
 36:    446.74   0.002375   12.00  0.001659  (-0.007027  0.035098  0.019439)
 37:    483.42   0.001042    5.26  0.000672  ( 0.011998 -0.020913 -0.009548)
 38:    492.84   0.000528    2.67  0.000334  ( 0.003490 -0.016796 -0.006339)
 39:    537.30   0.003737   18.88  0.002170  (-0.023822  0.020952 -0.034114)
 40:    541.14   0.005144   25.99  0.002966  ( 0.028157  0.014480 -0.044316)
 41:    547.58   0.002804   14.17  0.001598  (-0.032893 -0.013546  0.018237)
 42:    564.67   0.002110   10.66  0.001166  (-0.032990 -0.004403 -0.007625)
 43:    578.16   0.003660   18.50  0.001976  (-0.008493 -0.019088 -0.039231)
 44:    601.63   0.001007    5.09  0.000522  ( 0.016530 -0.004562  0.015102)
 45:    606.98   0.001928    9.75  0.000991  (-0.003756  0.016904 -0.026298)
 46:    623.59   0.001006    5.08  0.000503  ( 0.013710  0.016527 -0.006505)
 47:    641.34   0.001201    6.07  0.000584  ( 0.005617  0.023498 -0.000812)
 48:    676.19   0.014393   72.73  0.006642  ( 0.049025 -0.064650  0.007693)
 49:    713.08   0.017323   87.54  0.007581  ( 0.007657 -0.035931 -0.078938)
 50:    717.63   0.002555   12.91  0.001111  (-0.019024  0.022025  0.016251)
 51:    738.42   0.002723   13.76  0.001151  (-0.019513 -0.013458  0.024270)
 52:    754.35   0.000974    4.92  0.000403  ( 0.002690  0.012274 -0.015653)
 53:    768.74   0.022868  115.57  0.009283  (-0.016065  0.087133 -0.037854)
 54:    773.73   0.007592   38.37  0.003062  (-0.014734  0.006715 -0.052913)
 55:    787.01   0.002393   12.09  0.000949  ( 0.014119 -0.025462 -0.010064)
 56:    799.21   0.005575   28.17  0.002177  ( 0.028106 -0.024659 -0.027904)
 57:    821.76   0.002665   13.47  0.001012  ( 0.020209 -0.010065  0.022409)
 58:    850.87   0.010801   54.58  0.003961  (-0.032916 -0.053337 -0.005745)
 59:    854.61   0.010394   52.52  0.003795  ( 0.031401  0.044229  0.029207)
 60:    875.85   0.001895    9.58  0.000675  (-0.022330  0.013274 -0.000645)
 61:    884.76   0.006523   32.97  0.002301  ( 0.016648 -0.012305 -0.043269)
 62:    940.42   0.001333    6.74  0.000442  (-0.005278 -0.010602  0.017379)
 63:    943.45   0.002432   12.29  0.000805  (-0.024320  0.012152 -0.008085)
 64:    958.91   0.000641    3.24  0.000209  (-0.002449  0.011354 -0.008588)
 65:    971.64   0.007564   38.22  0.002429  ( 0.014247 -0.047127 -0.002285)
 66:    988.44   0.011474   57.98  0.003622  (-0.003625  0.053848  0.026638)
 67:    990.64   0.000196    0.99  0.000062  ( 0.001276  0.006537  0.004156)
 68:   1000.15   0.001453    7.35  0.000454  (-0.012720  0.016871  0.002658)
 69:   1013.58   0.002197   11.10  0.000676  ( 0.024896 -0.000043 -0.007521)
 70:   1032.89   0.001618    8.18  0.000489  (-0.004839 -0.021374  0.002919)
 71:   1037.64   0.015929   80.50  0.004790  ( 0.044595 -0.049990  0.017399)
 72:   1060.50   0.001760    8.90  0.000518  (-0.014508 -0.005080  0.016784)
 73:   1070.99   0.012971   65.55  0.003780  (-0.028525  0.028363  0.046491)
 74:   1074.00   0.006780   34.26  0.001970  ( 0.025244  0.024133 -0.027392)
 75:   1089.93   0.009037   45.67  0.002588  ( 0.019640  0.022440  0.041210)
 76:   1109.95   0.021163  106.95  0.005950  ( 0.029174 -0.064448  0.030746)
 77:   1147.84   0.014769   74.64  0.004015  (-0.023578  0.028294  0.051564)
 78:   1156.69   0.005268   26.62  0.001421  ( 0.019699 -0.032137  0.000653)
 79:   1170.62   0.000146    0.74  0.000039  (-0.001341 -0.002296  0.005643)
 80:   1171.43   0.000215    1.09  0.000057  (-0.001566  0.005083 -0.005379)
 81:   1175.11   0.001806    9.13  0.000480  ( 0.017866 -0.004412 -0.011872)
 82:   1181.60   0.061945  313.04  0.016360  ( 0.084015  0.038062  0.088615)
 83:   1189.31   0.066675  336.95  0.017495  (-0.092788  0.049236  0.080381)
 84:   1205.65   0.011245   56.83  0.002911  (-0.047186 -0.021990 -0.014165)
 85:   1206.04   0.014862   75.11  0.003846  (-0.051280 -0.014958 -0.031500)
 86:   1208.34   0.003960   20.01  0.001023  (-0.029614  0.012026  0.001076)
 87:   1231.29   0.062842  317.58  0.015927  ( 0.121274 -0.016447  0.030807)
 88:   1244.55   0.014203   71.77  0.003561  (-0.049419  0.032464 -0.008063)
 89:   1267.10   0.016923   85.52  0.004168  (-0.054981 -0.017106 -0.029193)
 90:   1274.53   0.058749  296.89  0.014384  (-0.091141  0.061122 -0.048393)
 91:   1287.72   0.016064   81.18  0.003893  ( 0.040825  0.040982 -0.023382)
 92:   1301.47   0.032145  162.45  0.007708  (-0.039844 -0.078068  0.005036)
 93:   1310.41   0.060176  304.11  0.014330  ( 0.039140  0.053264  0.099807)
 94:   1318.91   0.019791  100.02  0.004683  (-0.023422  0.024784 -0.059329)
 95:   1338.97   0.015503   78.34  0.003613  (-0.053298 -0.027335 -0.005026)
 96:   1345.95   0.007334   37.06  0.001700  ( 0.035386 -0.019134 -0.009069)
 97:   1370.35   0.020947  105.86  0.004770  (-0.019121 -0.056380 -0.035011)
 98:   1374.96   0.017070   86.26  0.003874  ( 0.057691 -0.023357  0.000615)
 99:   1390.65   0.004862   24.57  0.001091  (-0.023083 -0.014785  0.018430)
100:   1401.52   0.003352   16.94  0.000746  (-0.010470 -0.002299  0.025127)
101:   1425.53   0.014589   73.73  0.003194  (-0.026387 -0.034772 -0.035895)
102:   1441.69   0.042142  212.97  0.009122  ( 0.073483 -0.033551 -0.050956)
103:   1465.03   0.004120   20.82  0.000878  ( 0.002389 -0.021613  0.020120)
104:   1465.87   0.003889   19.65  0.000828  ( 0.013641  0.017546  0.018273)
105:   1468.21   0.006781   34.27  0.001441  ( 0.035986 -0.012080 -0.000654)
106:   1472.23   0.003389   17.12  0.000718  (-0.012970  0.007057 -0.022366)
107:   1472.58   0.003066   15.50  0.000650  (-0.008141 -0.023769 -0.004310)
108:   1481.11   0.003834   19.38  0.000808  ( 0.018740  0.009984  0.018892)
109:   1491.06   0.016863   85.22  0.003529  ( 0.050898  0.030596  0.001552)
110:   1499.17   0.011729   59.27  0.002441  (-0.017004 -0.030552 -0.034911)
111:   1543.35   0.035044  177.10  0.007086  (-0.039187 -0.052558 -0.052801)
112:   1628.15   0.026966  136.27  0.005168  (-0.063124  0.015329 -0.030803)
113:   1651.20   0.063726  322.05  0.012044  ( 0.032748 -0.104124  0.011384)
114:   1654.86   0.090408  456.88  0.017049  (-0.046589  0.099825 -0.070092)
115:   1665.25   0.013877   70.13  0.002601  (-0.035073 -0.032577 -0.017582)
116:   1711.74   0.029880  151.00  0.005447  (-0.068335 -0.022818 -0.016032)
117:   1794.81   0.104003  525.59  0.018083  (-0.048187 -0.093681 -0.083576)
118:   3009.40   0.003262   16.48  0.000338  (-0.007182 -0.013676  0.009981)
119:   3042.51   0.011242   56.81  0.001153  (-0.011948  0.014667  0.028199)
120:   3052.55   0.005988   30.26  0.000612  (-0.019834  0.009956 -0.010940)
121:   3071.36   0.005631   28.46  0.000572  ( 0.018013 -0.015739 -0.000077)
122:   3116.32   0.006641   33.56  0.000665  ( 0.006282 -0.019728  0.015375)
123:   3140.39   0.000120    0.61  0.000012  ( 0.001029  0.003181  0.000885)
124:   3154.87   0.003974   20.08  0.000393  ( 0.007648  0.011488 -0.014233)
125:   3170.25   0.003154   15.94  0.000311  ( 0.013774  0.008999  0.006309)
126:   3185.31   0.000858    4.33  0.000084  ( 0.005873 -0.001849 -0.006790)
127:   3189.41   0.002215   11.19  0.000217  (-0.009408 -0.005257 -0.010027)
128:   3189.94   0.002990   15.11  0.000292  ( 0.014135 -0.005827  0.007664)
129:   3197.58   0.001487    7.51  0.000145  (-0.010497 -0.000526  0.005887)
130:   3212.13   0.000100    0.50  0.000010  ( 0.002006  0.002285  0.000675)
131:   3216.04   0.002819   14.25  0.000274  ( 0.010656  0.009172  0.008710)
132:   3226.58   0.000356    1.80  0.000034  ( 0.004520 -0.000366  0.003730)
133:   3231.45   0.000269    1.36  0.000026  ( 0.002819 -0.001229 -0.004067)
134:   3246.55   0.000651    3.29  0.000063  (-0.001420 -0.007346  0.002575)

* The epsilon (eps) is given for a Dirac delta lineshape.
** The dipole moment derivative (T) already includes vibrational overlap.

The first frequency considered to be a vibration is 6
The total number of vibrations considered is 129


--------------------------
THERMOCHEMISTRY AT 298.15K
--------------------------

Temperature         ... 298.15 K
Pressure            ... 1.00 atm
Total Mass          ... 398.34 AMU

Throughout the following assumptions are being made:
  (1) The electronic state is orbitally nondegenerate
  (2) There are no thermally accessible electronically excited states
  (3) Hindered rotations indicated by low frequency modes are not
      treated as such but are treated as vibrations and this may
      cause some error
  (4) All equations used are the standard statistical mechanics
      equations for an ideal gas
  (5) All vibrations are strictly harmonic

freq.      22.54  E(vib)   ...       0.56 
freq.      41.02  E(vib)   ...       0.54 
freq.      43.87  E(vib)   ...       0.53 
freq.      61.64  E(vib)   ...       0.51 
freq.      67.20  E(vib)   ...       0.50 
freq.      74.73  E(vib)   ...       0.49 
freq.      89.85  E(vib)   ...       0.47 
freq.      93.68  E(vib)   ...       0.47 
freq.      99.39  E(vib)   ...       0.46 
freq.     112.34  E(vib)   ...       0.45 
freq.     124.47  E(vib)   ...       0.43 
freq.     133.25  E(vib)   ...       0.42 
freq.     144.38  E(vib)   ...       0.41 
freq.     161.12  E(vib)   ...       0.39 
freq.     187.50  E(vib)   ...       0.36 
freq.     189.33  E(vib)   ...       0.36 
freq.     195.47  E(vib)   ...       0.36 
freq.     226.73  E(vib)   ...       0.33 
freq.     234.85  E(vib)   ...       0.32 
freq.     241.14  E(vib)   ...       0.31 
freq.     255.63  E(vib)   ...       0.30 
freq.     272.53  E(vib)   ...       0.29 
freq.     289.28  E(vib)   ...       0.27 
freq.     301.13  E(vib)   ...       0.26 
freq.     318.86  E(vib)   ...       0.25 
freq.     338.27  E(vib)   ...       0.23 
freq.     345.57  E(vib)   ...       0.23 
freq.     373.68  E(vib)   ...       0.21 
freq.     394.73  E(vib)   ...       0.20 
freq.     433.05  E(vib)   ...       0.17 
freq.     446.74  E(vib)   ...       0.17 
freq.     483.42  E(vib)   ...       0.15 
freq.     492.84  E(vib)   ...       0.14 
freq.     537.30  E(vib)   ...       0.12 
freq.     541.14  E(vib)   ...       0.12 
freq.     547.58  E(vib)   ...       0.12 
freq.     564.67  E(vib)   ...       0.11 
freq.     578.16  E(vib)   ...       0.11 
freq.     601.63  E(vib)   ...       0.10 
freq.     606.98  E(vib)   ...       0.10 
freq.     623.59  E(vib)   ...       0.09 
freq.     641.34  E(vib)   ...       0.09 
freq.     676.19  E(vib)   ...       0.08 
freq.     713.08  E(vib)   ...       0.07 
freq.     717.63  E(vib)   ...       0.07 
freq.     738.42  E(vib)   ...       0.06 
freq.     754.35  E(vib)   ...       0.06 
freq.     768.74  E(vib)   ...       0.06 
freq.     773.73  E(vib)   ...       0.05 
freq.     787.01  E(vib)   ...       0.05 
freq.     799.21  E(vib)   ...       0.05 
freq.     821.76  E(vib)   ...       0.05 
freq.     850.87  E(vib)   ...       0.04 
freq.     854.61  E(vib)   ...       0.04 
freq.     875.85  E(vib)   ...       0.04 
freq.     884.76  E(vib)   ...       0.04 
freq.     940.42  E(vib)   ...       0.03 
freq.     943.45  E(vib)   ...       0.03 
freq.     958.91  E(vib)   ...       0.03 
freq.     971.64  E(vib)   ...       0.03 
freq.     988.44  E(vib)   ...       0.02 
freq.     990.64  E(vib)   ...       0.02 
freq.    1000.15  E(vib)   ...       0.02 
freq.    1013.58  E(vib)   ...       0.02 
freq.    1032.89  E(vib)   ...       0.02 
freq.    1037.64  E(vib)   ...       0.02 
freq.    1060.50  E(vib)   ...       0.02 
freq.    1070.99  E(vib)   ...       0.02 
freq.    1074.00  E(vib)   ...       0.02 
freq.    1089.93  E(vib)   ...       0.02 
freq.    1109.95  E(vib)   ...       0.02 
freq.    1147.84  E(vib)   ...       0.01 
freq.    1156.69  E(vib)   ...       0.01 
freq.    1170.62  E(vib)   ...       0.01 
freq.    1171.43  E(vib)   ...       0.01 
freq.    1175.11  E(vib)   ...       0.01 
freq.    1181.60  E(vib)   ...       0.01 
freq.    1189.31  E(vib)   ...       0.01 
freq.    1205.65  E(vib)   ...       0.01 
freq.    1206.04  E(vib)   ...       0.01 
freq.    1208.34  E(vib)   ...       0.01 
freq.    1231.29  E(vib)   ...       0.01 
freq.    1244.55  E(vib)   ...       0.01 
freq.    1267.10  E(vib)   ...       0.01 
freq.    1274.53  E(vib)   ...       0.01 
freq.    1287.72  E(vib)   ...       0.01 
freq.    1301.47  E(vib)   ...       0.01 
freq.    1310.41  E(vib)   ...       0.01 
freq.    1318.91  E(vib)   ...       0.01 
freq.    1338.97  E(vib)   ...       0.01 
freq.    1345.95  E(vib)   ...       0.01 
freq.    1370.35  E(vib)   ...       0.01 
freq.    1374.96  E(vib)   ...       0.01 
freq.    1390.65  E(vib)   ...       0.00 
freq.    1401.52  E(vib)   ...       0.00 
freq.    1425.53  E(vib)   ...       0.00 
freq.    1441.69  E(vib)   ...       0.00 
freq.    1465.03  E(vib)   ...       0.00 
freq.    1465.87  E(vib)   ...       0.00 
freq.    1468.21  E(vib)   ...       0.00 
freq.    1472.23  E(vib)   ...       0.00 
freq.    1472.58  E(vib)   ...       0.00 
freq.    1481.11  E(vib)   ...       0.00 
freq.    1491.06  E(vib)   ...       0.00 
freq.    1499.17  E(vib)   ...       0.00 
freq.    1543.35  E(vib)   ...       0.00 
freq.    1628.15  E(vib)   ...       0.00 
freq.    1651.20  E(vib)   ...       0.00 
freq.    1654.86  E(vib)   ...       0.00 
freq.    1665.25  E(vib)   ...       0.00 
freq.    1711.74  E(vib)   ...       0.00 
freq.    1794.81  E(vib)   ...       0.00 
freq.    3009.40  E(vib)   ...       0.00 
freq.    3042.51  E(vib)   ...       0.00 
freq.    3052.55  E(vib)   ...       0.00 
freq.    3071.36  E(vib)   ...       0.00 
freq.    3116.32  E(vib)   ...       0.00 
freq.    3140.39  E(vib)   ...       0.00 
freq.    3154.87  E(vib)   ...       0.00 
freq.    3170.25  E(vib)   ...       0.00 
freq.    3185.31  E(vib)   ...       0.00 
freq.    3189.41  E(vib)   ...       0.00 
freq.    3189.94  E(vib)   ...       0.00 
freq.    3197.58  E(vib)   ...       0.00 
freq.    3212.13  E(vib)   ...       0.00 
freq.    3216.04  E(vib)   ...       0.00 
freq.    3226.58  E(vib)   ...       0.00 
freq.    3231.45  E(vib)   ...       0.00 
freq.    3246.55  E(vib)   ...       0.00 

------------
INNER ENERGY
------------

The inner energy is: U= E(el) + E(ZPE) + E(vib) + E(rot) + E(trans)
    E(el)   - is the total energy from the electronic structure calculation
              = E(kin-el) + E(nuc-el) + E(el-el) + E(nuc-nuc)
    E(ZPE)  - the the zero temperature vibrational energy from the frequency calculation
    E(vib)  - the the finite temperature correction to E(ZPE) due to population
              of excited vibrational states
    E(rot)  - is the rotational thermal energy
    E(trans)- is the translational thermal energy

Summary of contributions to the inner energy U:
Electronic energy                ...  -1480.21551873 Eh
Zero point energy                ...      0.33964613 Eh     213.13 kcal/mol
Thermal vibrational correction   ...      0.02206320 Eh      13.84 kcal/mol
Thermal rotational correction    ...      0.00141627 Eh       0.89 kcal/mol
Thermal translational correction ...      0.00141627 Eh       0.89 kcal/mol
-----------------------------------------------------------------------
Total thermal energy                  -1479.85097686 Eh


Summary of corrections to the electronic energy:
(perhaps to be used in another calculation)
Total thermal correction                  0.02489574 Eh      15.62 kcal/mol
Non-thermal (ZPE) correction              0.33964613 Eh     213.13 kcal/mol
-----------------------------------------------------------------------
Total correction                          0.36454188 Eh     228.75 kcal/mol


--------
ENTHALPY
--------

The enthalpy is H = U + kB*T
                kB is Boltzmann's constant
Total free energy                 ...  -1479.85097686 Eh 
Thermal Enthalpy correction       ...      0.00094421 Eh       0.59 kcal/mol
-----------------------------------------------------------------------
Total Enthalpy                    ...  -1479.85003265 Eh


Note: Only C1 symmetry has been detected, increase convergence thresholds 
      if your molecule has a higher symmetry. Symmetry factor of 1.0 is   
      used for the rotational entropy correction. 
 

Note: Rotational entropy computed according to Herzberg 
Infrared and Raman Spectra, Chapter V,1, Van Nostrand Reinhold, 1945 
Point Group:  C1, Symmetry Number:   1  
Rotational constants in cm-1:     0.008912     0.006662     0.004990 

Vibrational entropy computed according to the QRRHO of S. Grimme
Chem.Eur.J. 2012 18 9955


-------
ENTROPY
-------

The entropy contributions are T*S = T*(S(el)+S(vib)+S(rot)+S(trans))
     S(el)   - electronic entropy
     S(vib)  - vibrational entropy
     S(rot)  - rotational entropy
     S(trans)- translational entropy
The entropies will be listed as multiplied by the temperature to get
units of energy

Electronic entropy                ...      0.00000000 Eh      0.00 kcal/mol
Vibrational entropy               ...      0.03930945 Eh     24.67 kcal/mol
Rotational entropy                ...      0.01660721 Eh     10.42 kcal/mol
Translational entropy             ...      0.02082871 Eh     13.07 kcal/mol
-----------------------------------------------------------------------
Final entropy term                ...      0.07674538 Eh     48.16 kcal/mol

In case the symmetry of your molecule has not been determined correctly
or in case you have a reason to use a different symmetry number we print 
out the resulting rotational entropy values for sn=1,12 :
 --------------------------------------------------------
|  sn= 1 | S(rot)=       0.01660721 Eh     10.42 kcal/mol|
|  sn= 2 | S(rot)=       0.01595276 Eh     10.01 kcal/mol|
|  sn= 3 | S(rot)=       0.01556992 Eh      9.77 kcal/mol|
|  sn= 4 | S(rot)=       0.01529830 Eh      9.60 kcal/mol|
|  sn= 5 | S(rot)=       0.01508761 Eh      9.47 kcal/mol|
|  sn= 6 | S(rot)=       0.01491547 Eh      9.36 kcal/mol|
|  sn= 7 | S(rot)=       0.01476992 Eh      9.27 kcal/mol|
|  sn= 8 | S(rot)=       0.01464384 Eh      9.19 kcal/mol|
|  sn= 9 | S(rot)=       0.01453264 Eh      9.12 kcal/mol|
|  sn=10 | S(rot)=       0.01443316 Eh      9.06 kcal/mol|
|  sn=11 | S(rot)=       0.01434317 Eh      9.00 kcal/mol|
|  sn=12 | S(rot)=       0.01426101 Eh      8.95 kcal/mol|
 --------------------------------------------------------


-------------------
GIBBS FREE ENERGY
-------------------

The Gibbs free energy is G = H - T*S

Total enthalpy                    ...  -1479.85003265 Eh 
Total entropy correction          ...     -0.07674538 Eh    -48.16 kcal/mol
-----------------------------------------------------------------------
Final Gibbs free energy         ...  -1479.92677802 Eh

For completeness - the Gibbs free energy minus the electronic energy
G-E(el)                           ...      0.28874071 Eh    181.19 kcal/mol


Timings for individual modules:

Sum of individual times         ...     7844.941 sec (= 130.749 min)
GTO integral calculation        ...       54.934 sec (=   0.916 min)   0.7 %
SCF iterations                  ...     2716.516 sec (=  45.275 min)  34.6 %
SCF Gradient evaluation         ...      758.564 sec (=  12.643 min)   9.7 %
Geometry relaxation             ...        3.225 sec (=   0.054 min)   0.0 %
Analytical frequency calculation...     4311.701 sec (=  71.862 min)  55.0 %
                             ****ORCA TERMINATED NORMALLY****
TOTAL RUN TIME: 0 days 2 hours 11 minutes 37 seconds 381 msec
