
                                 *****************
                                 * O   R   C   A *
                                 *****************

                                            #,                                       
                                            ###                                      
                                            ####                                     
                                            #####                                    
                                            ######                                   
                                           ########,                                 
                                     ,,################,,,,,                         
                               ,,#################################,,                 
                          ,,##########################################,,             
                       ,#########################################, ''#####,          
                    ,#############################################,,   '####,        
                  ,##################################################,,,,####,       
                ,###########''''           ''''###############################       
              ,#####''   ,,,,##########,,,,          '''####'''          '####       
            ,##' ,,,,###########################,,,                        '##       
           ' ,,###''''                  '''############,,,                           
         ,,##''                                '''############,,,,        ,,,,,,###''
      ,#''                                            '''#######################'''  
     '                                                          ''''####''''         
             ,#######,   #######,   ,#######,      ##                                
            ,#'     '#,  ##    ##  ,#'     '#,    #''#        ######   ,####,        
            ##       ##  ##   ,#'  ##            #'  '#       #        #'  '#        
            ##       ##  #######   ##           ,######,      #####,   #    #        
            '#,     ,#'  ##    ##  '#,     ,#' ,#      #,         ##   #,  ,#        
             '#######'   ##     ##  '#######'  #'      '#     #####' # '####'        



                  #######################################################
                  #                        -***-                        #
                  #          Department of theory and spectroscopy      #
                  #    Directorship and core code : Frank Neese         #
                  #        Max Planck Institute fuer Kohlenforschung    #
                  #                Kaiser Wilhelm Platz 1               #
                  #                 D-45470 Muelheim/Ruhr               #
                  #                      Germany                        #
                  #                                                     #
                  #                  All rights reserved                #
                  #                        -***-                        #
                  #######################################################


                         Program Version 5.0.4 -  RELEASE  -


 With contributions from (in alphabetic order):
   Daniel Aravena         : Magnetic Suceptibility
   Michael Atanasov       : Ab Initio Ligand Field Theory (pilot matlab implementation)
   Alexander A. Auer      : GIAO ZORA, VPT2 properties, NMR spectrum
   Ute Becker             : Parallelization
   Giovanni Bistoni       : ED, misc. LED, open-shell LED, HFLD
   Martin Brehm           : Molecular dynamics
   Dmytro Bykov           : SCF Hessian
   Vijay G. Chilkuri      : MRCI spin determinant printing, contributions to CSF-ICE
   Dipayan Datta          : RHF DLPNO-CCSD density
   Achintya Kumar Dutta   : EOM-CC, STEOM-CC
   Dmitry Ganyushin       : Spin-Orbit,Spin-Spin,Magnetic field MRCI
   Miquel Garcia          : C-PCM and meta-GGA Hessian, CC/C-PCM, Gaussian charge scheme
   Yang Guo               : DLPNO-NEVPT2, F12-NEVPT2, CIM, IAO-localization
   Andreas Hansen         : Spin unrestricted coupled pair/coupled cluster methods
   Benjamin Helmich-Paris : MC-RPA, TRAH-SCF, COSX integrals
   Lee Huntington         : MR-EOM, pCC
   Robert Izsak           : Overlap fitted RIJCOSX, COSX-SCS-MP3, EOM
   Marcus Kettner         : VPT2
   Christian Kollmar      : KDIIS, OOCD, Brueckner-CCSD(T), CCSD density, CASPT2, CASPT2-K
   Simone Kossmann        : Meta GGA functionals, TD-DFT gradient, OOMP2, MP2 Hessian
   Martin Krupicka        : Initial AUTO-CI
   Lucas Lang             : DCDCAS
   Marvin Lechner         : AUTO-CI (C++ implementation), FIC-MRCC
   Dagmar Lenk            : GEPOL surface, SMD
   Dimitrios Liakos       : Extrapolation schemes; Compound Job, initial MDCI parallelization
   Dimitrios Manganas     : Further ROCIS development; embedding schemes
   Dimitrios Pantazis     : SARC Basis sets
   Anastasios Papadopoulos: AUTO-CI, single reference methods and gradients
   Taras Petrenko         : DFT Hessian,TD-DFT gradient, ASA, ECA, R-Raman, ABS, FL, XAS/XES, NRVS
   Peter Pinski           : DLPNO-MP2, DLPNO-MP2 Gradient
   Christoph Reimann      : Effective Core Potentials
   Marius Retegan         : Local ZFS, SOC
   Christoph Riplinger    : Optimizer, TS searches, QM/MM, DLPNO-CCSD(T), (RO)-DLPNO pert. Triples
   Tobias Risthaus        : Range-separated hybrids, TD-DFT gradient, RPA, STAB
   Michael Roemelt        : Original ROCIS implementation
   Masaaki Saitow         : Open-shell DLPNO-CCSD energy and density
   Barbara Sandhoefer     : DKH picture change effects
   Avijit Sen             : IP-ROCIS
   Kantharuban Sivalingam : CASSCF convergence, NEVPT2, FIC-MRCI
   Bernardo de Souza      : ESD, SOC TD-DFT
   Georgi Stoychev        : AutoAux, RI-MP2 NMR, DLPNO-MP2 response
   Willem Van den Heuvel  : Paramagnetic NMR
   Boris Wezisla          : Elementary symmetry handling
   Frank Wennmohs         : Technical directorship


 We gratefully acknowledge several colleagues who have allowed us to
 interface, adapt or use parts of their codes:
   Stefan Grimme, W. Hujo, H. Kruse, P. Pracht,  : VdW corrections, initial TS optimization,
                  C. Bannwarth, S. Ehlert          DFT functionals, gCP, sTDA/sTD-DF
   Ed Valeev, F. Pavosevic, A. Kumar             : LibInt (2-el integral package), F12 methods
   Garnet Chan, S. Sharma, J. Yang, R. Olivares  : DMRG
   Ulf Ekstrom                                   : XCFun DFT Library
   Mihaly Kallay                                 : mrcc  (arbitrary order and MRCC methods)
   Jiri Pittner, Ondrej Demel                    : Mk-CCSD
   Frank Weinhold                                : gennbo (NPA and NBO analysis)
   Christopher J. Cramer and Donald G. Truhlar   : smd solvation model
   Lars Goerigk                                  : TD-DFT with DH, B97 family of functionals
   V. Asgeirsson, H. Jonsson                     : NEB implementation
   FAccTs GmbH                                   : IRC, NEB, NEB-TS, DLPNO-Multilevel, CI-OPT
                                                   MM, QMMM, 2- and 3-layer-ONIOM, Crystal-QMMM,
                                                   LR-CPCM, SF, NACMEs, symmetry and pop. for TD-DFT,
                                                   nearIR, NL-DFT gradient (VV10), updates on ESD,
                                                   ML-optimized integration grids
   S Lehtola, MJT Oliveira, MAL Marques          : LibXC Library
   Liviu Ungur et al                             : ANISO software


 Your calculation uses the libint2 library for the computation of 2-el integrals
 For citations please refer to: http://libint.valeyev.net

 Your ORCA version has been built with support for libXC version: 5.1.0
 For citations please refer to: https://tddft.org/programs/libxc/

 This ORCA versions uses:
   CBLAS   interface :  Fast vector & matrix operations
   LAPACKE interface :  Fast linear algebra routines
   SCALAPACK package :  Parallel linear algebra routines
   Shared memory     :  Shared parallel matrices
   BLAS/LAPACK       :  OpenBLAS 0.3.15  USE64BITINT DYNAMIC_ARCH NO_AFFINITY Haswell SINGLE_THREADED
        Core in use  :  Haswell
   Copyright (c) 2011-2014, The OpenBLAS Project


Your calculation utilizes the atom-pairwise dispersion correction
with the Becke-Johnson damping scheme (D3BJ)
Cite in your paper:
S.Grimme, S.Ehrlich, L.Goerigk, J Comput Chem, (2011), 32, 1456–1465 
S.Grimme, J.Antony, S.Ehrlich and H.Krieg, J.Chem.Phys., 132, (2010), 154104 
   

================================================================================

----- Orbital basis set information -----
Your calculation utilizes the basis: def2-TZVP
   F. Weigend and R. Ahlrichs, Phys. Chem. Chem. Phys. 7, 3297 (2005).

----- AuxJ basis set information -----
Your calculation utilizes the auxiliary basis: def2/J
   F. Weigend, Phys. Chem. Chem. Phys. 8, 1057 (2006).

================================================================================
                                        WARNINGS
                       Please study these warnings very carefully!
================================================================================


WARNING: Geometry Optimization
  ===> : Switching off AutoStart
         For restart on a previous wavefunction, please use MOREAD

INFO   : the flag for use of the SHARK integral package has been found!

================================================================================
                                       INPUT FILE
================================================================================
NAME = 3_CHCHNMe2/3_CHCHNMe2.inp
|  1> %pal nprocs 24 end
|  2> ! PBE0 D3BJ def2-TZVP TightSCF OPT FREQ TightOpt
|  3> ! CPCM(dmso)
|  4> %scf
|  5> MaxIter 800
|  6> end
|  7> 
|  8> %geom
|  9> MaxIter 800
| 10> MaxStep 0.15
| 11> end
| 12> 
| 13> *xyz 0 1
| 14> C       4.41072700      0.40131500      1.18953800
| 15> C       4.24892300      1.82965900      1.00846200
| 16> C       3.03984000      2.28016400      0.58956700
| 17> N       1.96432100      1.45207400      0.45465300
| 18> C       1.97575300      0.05710200      0.87399900
| 19> C       3.37073300     -0.44913900      1.08671200
| 20> C       0.83130400      1.77678600     -0.37628400
| 21> C      -0.01325500      2.91626600      0.16377900
| 22> O       0.19345200      3.52281000      1.18502200
| 23> O      -1.00263000      3.18698000     -0.67861400
| 24> C      -1.92699400      4.19189400     -0.27841800
| 25> H       5.41028600      0.00266500      1.38697400
| 26> H       2.85971200      3.32458400      0.32189300
| 27> H       1.38514400     -0.08920100      1.80496200
| 28> H       3.50214000     -1.52748500      1.19631700
| 29> H       1.16705100      2.10453100     -1.37362000
| 30> H      -2.66209200      4.27174800     -1.08664800
| 31> H      -1.41588100      5.15387500     -0.13216700
| 32> C       1.09916200     -0.65273700     -0.19663400
| 33> C       0.05097900      0.44346000     -0.54110100
| 34> C      -1.19956000      0.35841700      0.30301100
| 35> C      -1.21427900      0.65698900      1.66678400
| 36> C      -2.38579500      0.58399000      2.42177900
| 37> C      -3.57424300      0.21260300      1.80126000
| 38> C      -3.59521000     -0.07948800      0.43718200
| 39> C      -2.41656100     -0.00568100     -0.31247200
| 40> O      -2.36207900     -0.28227100     -1.63370500
| 41> C      -3.54288800     -0.64087700     -2.31317400
| 42> N       2.02415800     -0.82253000     -1.42835900
| 43> O       2.03475000      0.04064900     -2.27971200
| 44> H      -0.24477600      0.33877800     -1.58900700
| 45> H      -0.29160500      0.97246200      2.15745800
| 46> H      -2.36406900      0.82081500      3.48763700
| 47> H      -4.50225400      0.15097700      2.37522800
| 48> H      -4.53482300     -0.36321300     -0.03722200
| 49> H      -3.26058000     -0.80473800     -3.36018400
| 50> H      -4.29619900      0.16250700     -2.26177700
| 51> H      -3.97667200     -1.56914300     -1.90549700
| 52> O       2.74270700     -1.79388700     -1.44550000
| 53> H      -2.42430100      3.90110500      0.65847100
| 54> H       5.08431100      2.51837900      1.13051300
| 55> C       0.61742900     -1.98525500      0.24611400
| 56> H       1.17037000     -2.46253700      1.05719800
| 57> C      -0.43209400     -2.60669800     -0.35011200
| 58> H      -0.94253300     -2.11639000     -1.18581500
| 59> N      -0.96821200     -3.80034900     -0.01036300
| 60> C      -0.38614500     -4.56854900      1.05796400
| 61> H       0.62611300     -4.93423400      0.80308600
| 62> H      -0.30058500     -3.95910300      1.97326200
| 63> H      -1.02316400     -5.43459900      1.27820400
| 64> C      -1.99094800     -4.41287600     -0.82164300
| 65> H      -2.40113200     -3.67098500     -1.51997200
| 66> H      -1.60138400     -5.26239900     -1.41180300
| 67> H      -2.81564100     -4.78645200     -0.19329400
| 68> *
| 69> 
| 70>                          ****END OF INPUT****
================================================================================

                       *****************************
                       * Geometry Optimization Run *
                       *****************************

Geometry optimization settings:
Update method            Update   .... BFGS
Choice of coordinates    CoordSys .... Z-matrix Internals
Initial Hessian          InHess   .... Almoef's Model

Convergence Tolerances:
Energy Change            TolE     ....  1.0000e-06 Eh
Max. Gradient            TolMAXG  ....  1.0000e-04 Eh/bohr
RMS Gradient             TolRMSG  ....  3.0000e-05 Eh/bohr
Max. Displacement        TolMAXD  ....  1.0000e-03 bohr
RMS Displacement         TolRMSD  ....  6.0000e-04 bohr
Strict Convergence                ....  False
------------------------------------------------------------------------------
                        ORCA OPTIMIZATION COORDINATE SETUP
------------------------------------------------------------------------------

The optimization will be done in new redundant internal coordinates
Making redundant internal coordinates   ...  (new redundants) done
Evaluating the initial hessian          ...  (Almloef) done
Evaluating the coordinates              ...  done
Calculating the B-matrix                .... done
Calculating the G-matrix                .... done
Diagonalizing the G-matrix              .... done
Small eigenvalue found = 3.104e-03
Small eigenvalue found = 6.540e-03
Small eigenvalue found = 8.700e-03
Small eigenvalue found = 1.023e-02
Small eigenvalue found = 1.219e-02
Small eigenvalue found = 1.662e-02
Small eigenvalue found = 2.109e-02
Small eigenvalue found = 2.909e-02
The first mode is                       ....  138
The number of degrees of freedom        ....  156

    -----------------------------------------------------------------
                    Redundant Internal Coordinates


    -----------------------------------------------------------------
         Definition                    Initial Value    Approx d2E/dq
    -----------------------------------------------------------------
      1. B(C   1,C   0)                  1.4488         0.503343   
      2. B(C   2,C   1)                  1.3566         0.706412   
      3. B(N   3,C   2)                  1.3641         0.615533   
      4. B(C   4,N   3)                  1.4567         0.438011   
      5. B(C   5,C   0)                  1.3474         0.730695   
      6. B(C   5,C   4)                  1.4992         0.418382   
      7. B(C   6,N   3)                  1.4421         0.462136   
      8. B(C   7,C   6)                  1.5177         0.390866   
      9. B(O   8,C   7)                  1.2056         1.101577   
     10. B(O   9,C   7)                  1.3273         0.704498   
     11. B(C  10,O   9)                  1.4228         0.496010   
     12. B(H  11,C   0)                  1.0941         0.354737   
     13. B(H  12,C   2)                  1.0931         0.355998   
     14. B(H  13,C   4)                  1.1122         0.331938   
     15. B(H  14,C   5)                  1.0918         0.357676   
     16. B(H  15,C   6)                  1.1022         0.344330   
     17. B(H  16,C  10)                  1.0954         0.352979   
     18. B(H  17,C  10)                  1.0991         0.348254   
     19. B(C  18,C   4)                  1.5552         0.340587   
     20. B(C  19,C  18)                  1.5553         0.340404   
     21. B(C  19,C   6)                  1.5537         0.342487   
     22. B(C  20,C  19)                  1.5112         0.400346   
     23. B(C  21,C  20)                  1.3962         0.610836   
     24. B(C  22,C  21)                  1.3956         0.611996   
     25. B(C  23,C  22)                  1.3912         0.622095   
     26. B(C  24,C  23)                  1.3952         0.613069   
     27. B(C  25,C  24)                  1.3988         0.604921   
     28. B(C  25,C  20)                  1.4116         0.577237   
     29. B(O  26,C  25)                  1.3510         0.645864   
     30. B(C  27,O  26)                  1.4088         0.522343   
     31. B(N  28,C  18)                  1.5497         0.311223   
     32. B(O  29,N  28)                  1.2124         0.962300   
     33. B(H  30,C  19)                  1.0939         0.355026   
     34. B(H  31,C  21)                  1.0916         0.357977   
     35. B(H  32,C  22)                  1.0921         0.357375   
     36. B(H  33,C  23)                  1.0929         0.356277   
     37. B(H  34,C  24)                  1.0902         0.359899   
     38. B(H  35,C  27)                  1.0967         0.351329   
     39. B(H  36,C  27)                  1.1025         0.343916   
     40. B(H  37,C  27)                  1.1027         0.343628   
     41. B(O  38,N  28)                  1.2084         0.976794   
     42. B(H  39,C  10)                  1.0998         0.347324   
     43. B(H  40,C   1)                  1.0895         0.360705   
     44. B(C  41,C  18)                  1.4845         0.441564   
     45. B(H  42,C  41)                  1.0915         0.358105   
     46. B(C  43,C  41)                  1.3576         0.703677   
     47. B(H  44,C  43)                  1.0951         0.353354   
     48. B(N  45,C  43)                  1.3519         0.643649   
     49. B(C  46,N  45)                  1.4388         0.467689   
     50. B(H  47,C  46)                  1.1061         0.339477   
     51. B(H  48,C  46)                  1.1030         0.343360   
     52. B(H  49,C  46)                  1.0974         0.350411   
     53. B(C  50,N  45)                  1.4420         0.462294   
     54. B(H  51,H  37)                  2.6549         0.000220   
     55. B(H  51,C  50)                  1.0983         0.349255   
     56. B(H  52,C  50)                  1.1053         0.340390   
     57. B(H  53,C  50)                  1.1020         0.344515   
     58. A(C   5,C   0,H  11)          119.2724         0.361978   
     59. A(C   1,C   0,H  11)          118.9337         0.339893   
     60. A(C   1,C   0,C   5)          121.7709         0.430633   
     61. A(C   0,C   1,H  40)          121.5706         0.340843   
     62. A(C   0,C   1,C   2)          117.7438         0.428030   
     63. A(C   2,C   1,H  40)          120.5333         0.360922   
     64. A(C   1,C   2,N   3)          122.1188         0.440908   
     65. A(N   3,C   2,H  12)          115.2066         0.349633   
     66. A(C   1,C   2,H  12)          122.6683         0.360115   
     67. A(C   4,N   3,C   6)          112.8096         0.382551   
     68. A(C   2,N   3,C   6)          122.6684         0.406051   
     69. A(C   2,N   3,C   4)          123.1406         0.402227   
     70. A(H  13,C   4,C  18)          102.5268         0.315238   
     71. A(N   3,C   4,C  18)          103.5618         0.365232   
     72. A(N   3,C   4,H  13)          111.2711         0.326523   
     73. A(C   5,C   4,H  13)          109.3263         0.326021   
     74. A(N   3,C   4,C   5)          111.8097         0.378398   
     75. A(C   5,C   4,C  18)          117.9072         0.364648   
     76. A(C   0,C   5,C   4)          121.0583         0.416633   
     77. A(C   0,C   5,H  14)          121.5225         0.362488   
     78. A(C   4,C   5,H  14)          117.3705         0.330061   
     79. A(C   7,C   6,C  19)          113.7400         0.360778   
     80. A(N   3,C   6,C  19)          105.2183         0.368956   
     81. A(C   7,C   6,H  15)          105.5602         0.324344   
     82. A(N   3,C   6,H  15)          110.4269         0.331426   
     83. A(N   3,C   6,C   7)          113.6550         0.377455   
     84. A(H  15,C   6,C  19)          108.1914         0.317410   
     85. A(C   6,C   7,O   8)          125.7137         0.440126   
     86. A(C   6,C   7,O   9)          110.0040         0.406339   
     87. A(O   8,C   7,O   9)          124.2484         0.486909   
     88. A(C   7,O   9,C  10)          116.7306         0.421164   
     89. A(H  16,C  10,H  39)          110.1422         0.288293   
     90. A(H  16,C  10,H  17)          110.2692         0.288414   
     91. A(O   9,C  10,H  17)          110.7001         0.335971   
     92. A(H  17,C  10,H  39)          109.1673         0.287686   
     93. A(O   9,C  10,H  39)          110.2805         0.335821   
     94. A(O   9,C  10,H  16)          106.2556         0.336725   
     95. A(C  19,C  18,N  28)          107.6650         0.344640   
     96. A(C   4,C  18,N  28)          105.1143         0.344671   
     97. A(C  19,C  18,C  41)          118.6862         0.367999   
     98. A(C   4,C  18,C  41)          112.7868         0.368033   
     99. A(C   4,C  18,C  19)          102.1602         0.352075   
    100. A(N  28,C  18,C  41)          109.4145         0.360147   
    101. A(C  20,C  19,H  30)          107.8175         0.327268   
    102. A(C  18,C  19,H  30)          109.0832         0.318679   
    103. A(C   6,C  19,H  30)          108.6359         0.318997   
    104. A(C  18,C  19,C  20)          113.2241         0.361879   
    105. A(C   6,C  19,C  20)          113.8705         0.362256   
    106. A(C   6,C  19,C  18)          104.0564         0.352407   
    107. A(C  21,C  20,C  25)          118.1637         0.427387   
    108. A(C  19,C  20,C  25)          118.9753         0.396527   
    109. A(C  19,C  20,C  21)          122.8417         0.400490   
    110. A(C  22,C  21,H  31)          118.7809         0.351782   
    111. A(C  20,C  21,H  31)          119.4697         0.351669   
    112. A(C  20,C  21,C  22)          121.7415         0.431895   
    113. A(C  23,C  22,H  32)          120.6785         0.352657   
    114. A(C  21,C  22,H  32)          119.9962         0.351682   
    115. A(C  21,C  22,C  23)          119.3248         0.433315   
    116. A(C  24,C  23,H  33)          119.2690         0.351603   
    117. A(C  22,C  23,H  33)          120.4102         0.352473   
    118. A(C  22,C  23,C  24)          120.3201         0.433452   
    119. A(C  25,C  24,H  34)          120.4489         0.351409   
    120. A(C  23,C  24,H  34)          119.5327         0.352205   
    121. A(C  23,C  24,C  25)          120.0184         0.431276   
    122. A(C  24,C  25,O  26)          123.1825         0.432487   
    123. A(C  20,C  25,O  26)          116.3897         0.428865   
    124. A(C  20,C  25,C  24)          120.4248         0.426642   
    125. A(C  25,O  26,C  27)          119.3416         0.418530   
    126. A(O  26,C  27,H  36)          111.3912         0.338171   
    127. A(O  26,C  27,H  35)          106.4233         0.339377   
    128. A(H  36,C  27,H  37)          109.1098         0.286644   
    129. A(H  35,C  27,H  37)          109.1732         0.287600   
    130. A(O  26,C  27,H  37)          111.4499         0.338124   
    131. A(H  35,C  27,H  36)          109.2238         0.287638   
    132. A(C  18,N  28,O  29)          119.0332         0.407075   
    133. A(O  29,N  28,O  38)          123.8586         0.497600   
    134. A(C  18,N  28,O  38)          117.0189         0.408153   
    135. A(H  42,C  41,C  43)          121.1845         0.360239   
    136. A(C  18,C  41,C  43)          122.0571         0.417840   
    137. A(C  18,C  41,H  42)          116.7268         0.333088   
    138. A(H  44,C  43,N  45)          113.7182         0.351837   
    139. A(C  41,C  43,N  45)          126.8952         0.444171   
    140. A(C  41,C  43,H  44)          119.3737         0.359420   
    141. A(C  46,N  45,C  50)          118.5459         0.386963   
    142. A(C  43,N  45,C  50)          120.9925         0.409297   
    143. A(C  43,N  45,C  46)          119.8396         0.410139   
    144. A(H  48,C  46,H  49)          108.3333         0.287448   
    145. A(H  47,C  46,H  49)          108.4558         0.286937   
    146. A(N  45,C  46,H  49)          109.6045         0.333047   
    147. A(H  47,C  46,H  48)          107.6333         0.286029   
    148. A(N  45,C  46,H  48)          110.6424         0.331927   
    149. A(N  45,C  46,H  47)          112.0647         0.331302   
    150. A(H  52,C  50,H  53)          107.9168         0.286299   
    151. A(H  51,C  50,H  53)          108.1811         0.287450   
    152. A(N  45,C  50,H  53)          110.7301         0.331474   
    153. A(H  51,C  50,H  52)          108.1377         0.286910   
    154. A(N  45,C  50,H  52)          112.1414         0.330814   
    155. A(N  45,C  50,H  51)          109.6131         0.332225   
    156. D(C   2,C   1,C   0,C   5)     -6.8826         0.017260   
    157. D(H  40,C   1,C   0,C   5)    177.5820         0.017260   
    158. D(H  40,C   1,C   0,H  11)     -4.1749         0.017260   
    159. D(C   2,C   1,C   0,H  11)    171.3605         0.017260   
    160. D(N   3,C   2,C   1,H  40)   -178.4913         0.035200   
    161. D(H  12,C   2,C   1,H  40)      2.4660         0.035200   
    162. D(N   3,C   2,C   1,C   0)      5.9248         0.035200   
    163. D(H  12,C   2,C   1,C   0)   -173.1179         0.035200   
    164. D(C   6,N   3,C   2,C   1)   -159.0796         0.030646   
    165. D(C   6,N   3,C   2,H  12)     20.0298         0.030646   
    166. D(C   4,N   3,C   2,C   1)      6.5320         0.030646   
    167. D(C   4,N   3,C   2,H  12)   -174.3586         0.030646   
    168. D(C   5,C   4,N   3,C   6)    150.4962         0.016359   
    169. D(C   5,C   4,N   3,C   2)    -16.3873         0.016359   
    170. D(H  13,C   4,N   3,C   2)    106.1812         0.016359   
    171. D(C  18,C   4,N   3,C   6)     22.5361         0.016359   
    172. D(H  13,C   4,N   3,C   6)    -86.9354         0.016359   
    173. D(C  18,C   4,N   3,C   2)   -144.3474         0.016359   
    174. D(H  14,C   5,C   4,H  13)     68.8627         0.012947   
    175. D(C   0,C   5,C   4,C  18)    134.8877         0.012947   
    176. D(H  14,C   5,C   4,N   3)   -167.4661         0.012947   
    177. D(H  14,C   5,C   0,H  11)      0.0276         0.037890   
    178. D(C   0,C   5,C   4,N   3)     15.0362         0.012947   
    179. D(C   0,C   5,C   4,H  13)   -108.6350         0.012947   
    180. D(H  14,C   5,C   4,C  18)    -47.6146         0.012947   
    181. D(C   4,C   5,C   0,H  11)    177.4207         0.037890   
    182. D(H  14,C   5,C   0,C   1)    178.2649         0.037890   
    183. D(C   4,C   5,C   0,C   1)     -4.3420         0.037890   
    184. D(C   7,C   6,N   3,C   4)    123.4472         0.018234   
    185. D(C   7,C   6,N   3,C   2)    -69.5983         0.018234   
    186. D(H  15,C   6,N   3,C   2)     48.8031         0.018234   
    187. D(C  19,C   6,N   3,C   4)     -1.6280         0.018234   
    188. D(H  15,C   6,N   3,C   4)   -118.1514         0.018234   
    189. D(C  19,C   6,N   3,C   2)    165.3265         0.018234   
    190. D(O   9,C   7,C   6,C  19)    -61.9569         0.011364   
    191. D(O   9,C   7,C   6,N   3)    177.6642         0.011364   
    192. D(O   9,C   7,C   6,H  15)     56.4997         0.011364   
    193. D(O   8,C   7,C   6,C  19)    120.0974         0.011364   
    194. D(O   8,C   7,C   6,H  15)   -121.4460         0.011364   
    195. D(O   8,C   7,C   6,N   3)     -0.2815         0.011364   
    196. D(C  10,O   9,C   7,O   8)     -5.1208         0.037213   
    197. D(C  10,O   9,C   7,C   6)    176.8971         0.037213   
    198. D(H  39,C  10,O   9,C   7)    -60.4303         0.019441   
    199. D(H  17,C  10,O   9,C   7)     60.4879         0.019441   
    200. D(H  16,C  10,O   9,C   7)   -179.7802         0.019441   
    201. D(C  41,C  18,C   4,H  13)    -46.0994         0.009389   
    202. D(C  41,C  18,C   4,C   5)     73.9873         0.009389   
    203. D(C  41,C  18,C   4,N   3)   -161.9408         0.009389   
    204. D(N  28,C  18,C   4,C   5)    -45.1510         0.009389   
    205. D(N  28,C  18,C   4,N   3)     78.9209         0.009389   
    206. D(C  19,C  18,C   4,H  13)     82.4449         0.009389   
    207. D(N  28,C  18,C   4,H  13)   -165.2376         0.009389   
    208. D(C  19,C  18,C   4,N   3)    -33.3965         0.009389   
    209. D(C  19,C  18,C   4,C   5)   -157.4685         0.009389   
    210. D(H  30,C  19,C   6,C   7)     98.8631         0.009485   
    211. D(H  30,C  19,C   6,N   3)   -136.1149         0.009485   
    212. D(C  20,C  19,C   6,H  15)   -138.2287         0.009485   
    213. D(C  20,C  19,C   6,C   7)    -21.2929         0.009485   
    214. D(C  20,C  19,C   6,N   3)    103.7291         0.009485   
    215. D(C  18,C  19,C   6,H  15)     98.0385         0.009485   
    216. D(C  18,C  19,C   6,C   7)   -145.0257         0.009485   
    217. D(H  30,C  19,C   6,H  15)    -18.0728         0.009485   
    218. D(C  18,C  19,C   6,N   3)    -20.0037         0.009485   
    219. D(H  30,C  19,C  18,C  41)    -86.8983         0.009380   
    220. D(H  30,C  19,C  18,C   4)    148.3843         0.009380   
    221. D(C  20,C  19,C  18,C  41)     33.1530         0.009380   
    222. D(C  20,C  19,C  18,N  28)    158.0368         0.009380   
    223. D(C  20,C  19,C  18,C   4)    -91.5644         0.009380   
    224. D(C   6,C  19,C  18,C  41)    157.3044         0.009380   
    225. D(H  30,C  19,C  18,N  28)     37.9855         0.009380   
    226. D(C   6,C  19,C  18,N  28)    -77.8118         0.009380   
    227. D(C   6,C  19,C  18,C   4)     32.5870         0.009380   
    228. D(C  25,C  20,C  19,H  30)      8.4911         0.011894   
    229. D(C  25,C  20,C  19,C  18)   -112.2797         0.011894   
    230. D(C  25,C  20,C  19,C   6)    129.1066         0.011894   
    231. D(C  21,C  20,C  19,H  30)   -169.8855         0.011894   
    232. D(C  21,C  20,C  19,C  18)     69.3438         0.011894   
    233. D(C  21,C  20,C  19,C   6)    -49.2699         0.011894   
    234. D(H  31,C  21,C  20,C  25)   -178.0240         0.025773   
    235. D(H  31,C  21,C  20,C  19)      0.3650         0.025773   
    236. D(C  22,C  21,C  20,C  25)      0.9384         0.025773   
    237. D(C  22,C  21,C  20,C  19)    179.3274         0.025773   
    238. D(H  32,C  22,C  21,H  31)     -1.2239         0.025877   
    239. D(H  32,C  22,C  21,C  20)    179.8068         0.025877   
    240. D(C  23,C  22,C  21,H  31)    178.5504         0.025877   
    241. D(C  23,C  22,C  21,C  20)     -0.4190         0.025877   
    242. D(H  33,C  23,C  22,H  32)     -0.1476         0.026790   
    243. D(H  33,C  23,C  22,C  21)   -179.9202         0.026790   
    244. D(C  24,C  23,C  22,H  32)    179.5602         0.026790   
    245. D(C  24,C  23,C  22,C  21)     -0.2124         0.026790   
    246. D(H  34,C  24,C  23,H  33)      0.0871         0.025973   
    247. D(H  34,C  24,C  23,C  22)   -179.6240         0.025973   
    248. D(C  25,C  24,C  23,H  33)   -179.9955         0.025973   
    249. D(C  25,C  24,C  23,C  22)      0.2934         0.025973   
    250. D(O  26,C  25,C  24,H  34)     -0.4922         0.025249   
    251. D(O  26,C  25,C  24,C  23)    179.5911         0.025249   
    252. D(C  20,C  25,C  24,H  34)   -179.8370         0.025249   
    253. D(C  20,C  25,C  24,C  23)      0.2463         0.025249   
    254. D(O  26,C  25,C  20,C  21)    179.7667         0.022882   
    255. D(O  26,C  25,C  20,C  19)      1.3139         0.022882   
    256. D(C  24,C  25,C  20,C  21)     -0.8454         0.022882   
    257. D(C  24,C  25,C  20,C  19)   -179.2983         0.022882   
    258. D(C  27,O  26,C  25,C  24)      1.1926         0.030797   
    259. D(C  27,O  26,C  25,C  20)   -179.4381         0.030797   
    260. D(H  37,C  27,O  26,C  25)    -61.7301         0.021640   
    261. D(H  36,C  27,O  26,C  25)     60.3884         0.021640   
    262. D(H  35,C  27,O  26,C  25)    179.3435         0.021640   
    263. D(O  38,N  28,C  18,C  41)    -36.5031         0.008528   
    264. D(O  38,N  28,C  18,C  19)   -166.7723         0.008528   
    265. D(O  38,N  28,C  18,C   4)     84.8665         0.008528   
    266. D(O  29,N  28,C  18,C  41)    146.7983         0.008528   
    267. D(O  29,N  28,C  18,C  19)     16.5291         0.008528   
    268. D(O  29,N  28,C  18,C   4)    -91.8320         0.008528   
    269. D(C  43,C  41,C  18,N  28)    -81.7854         0.014386   
    270. D(C  43,C  41,C  18,C  19)     42.2433         0.014386   
    271. D(C  43,C  41,C  18,C   4)    161.6039         0.014386   
    272. D(H  42,C  41,C  18,N  28)     96.1906         0.014386   
    273. D(H  42,C  41,C  18,C  19)   -139.7807         0.014386   
    274. D(H  42,C  41,C  18,C   4)    -20.4201         0.014386   
    275. D(N  45,C  43,C  41,H  42)      3.6452         0.034905   
    276. D(N  45,C  43,C  41,C  18)   -178.4679         0.034905   
    277. D(H  44,C  43,C  41,H  42)   -177.7493         0.034905   
    278. D(H  44,C  43,C  41,C  18)      0.1376         0.034905   
    279. D(C  50,N  45,C  43,H  44)      8.1787         0.033752   
    280. D(C  50,N  45,C  43,C  41)   -173.1486         0.033752   
    281. D(C  46,N  45,C  43,H  44)    179.0065         0.033752   
    282. D(C  46,N  45,C  43,C  41)     -2.3208         0.033752   
    283. D(H  49,C  46,N  45,C  50)    -16.2775         0.018684   
    284. D(H  49,C  46,N  45,C  43)    172.6716         0.018684   
    285. D(H  48,C  46,N  45,C  50)   -135.6828         0.018684   
    286. D(H  48,C  46,N  45,C  43)     53.2663         0.018684   
    287. D(H  47,C  46,N  45,C  50)    104.1856         0.018684   
    288. D(H  47,C  46,N  45,C  43)    -66.8653         0.018684   
    289. D(H  53,C  50,N  45,C  46)     55.0410         0.018247   
    290. D(H  53,C  50,N  45,C  43)   -134.0153         0.018247   
    291. D(H  52,C  50,N  45,C  46)    -65.5641         0.018247   
    292. D(H  52,C  50,N  45,C  43)    105.3796         0.018247   
    293. D(H  51,C  50,N  45,C  46)    174.3180         0.018247   
    294. D(H  51,C  50,N  45,C  43)    -14.7383         0.018247   
    -----------------------------------------------------------------

Number of atoms                         .... 54
Number of degrees of freedom            .... 294

         *************************************************************
         *                GEOMETRY OPTIMIZATION CYCLE   1            *
         *************************************************************
---------------------------------
CARTESIAN COORDINATES (ANGSTROEM)
---------------------------------
  C      4.410727    0.401315    1.189538
  C      4.248923    1.829659    1.008462
  C      3.039840    2.280164    0.589567
  N      1.964321    1.452074    0.454653
  C      1.975753    0.057102    0.873999
  C      3.370733   -0.449139    1.086712
  C      0.831304    1.776786   -0.376284
  C     -0.013255    2.916266    0.163779
  O      0.193452    3.522810    1.185022
  O     -1.002630    3.186980   -0.678614
  C     -1.926994    4.191894   -0.278418
  H      5.410286    0.002665    1.386974
  H      2.859712    3.324584    0.321893
  H      1.385144   -0.089201    1.804962
  H      3.502140   -1.527485    1.196317
  H      1.167051    2.104531   -1.373620
  H     -2.662092    4.271748   -1.086648
  H     -1.415881    5.153875   -0.132167
  C      1.099162   -0.652737   -0.196634
  C      0.050979    0.443460   -0.541101
  C     -1.199560    0.358417    0.303011
  C     -1.214279    0.656989    1.666784
  C     -2.385795    0.583990    2.421779
  C     -3.574243    0.212603    1.801260
  C     -3.595210   -0.079488    0.437182
  C     -2.416561   -0.005681   -0.312472
  O     -2.362079   -0.282271   -1.633705
  C     -3.542888   -0.640877   -2.313174
  N      2.024158   -0.822530   -1.428359
  O      2.034750    0.040649   -2.279712
  H     -0.244776    0.338778   -1.589007
  H     -0.291605    0.972462    2.157458
  H     -2.364069    0.820815    3.487637
  H     -4.502254    0.150977    2.375228
  H     -4.534823   -0.363213   -0.037222
  H     -3.260580   -0.804738   -3.360184
  H     -4.296199    0.162507   -2.261777
  H     -3.976672   -1.569143   -1.905497
  O      2.742707   -1.793887   -1.445500
  H     -2.424301    3.901105    0.658471
  H      5.084311    2.518379    1.130513
  C      0.617429   -1.985255    0.246114
  H      1.170370   -2.462537    1.057198
  C     -0.432094   -2.606698   -0.350112
  H     -0.942533   -2.116390   -1.185815
  N     -0.968212   -3.800349   -0.010363
  C     -0.386145   -4.568549    1.057964
  H      0.626113   -4.934234    0.803086
  H     -0.300585   -3.959103    1.973262
  H     -1.023164   -5.434599    1.278204
  C     -1.990948   -4.412876   -0.821643
  H     -2.401132   -3.670985   -1.519972
  H     -1.601384   -5.262399   -1.411803
  H     -2.815641   -4.786452   -0.193294

----------------------------
CARTESIAN COORDINATES (A.U.)
----------------------------
  NO LB      ZA    FRAG     MASS         X           Y           Z
   0 C     6.0000    0    12.011    8.335066    0.758375    2.247901
   1 C     6.0000    0    12.011    8.029301    3.457554    1.905717
   2 C     6.0000    0    12.011    5.744465    4.308886    1.114120
   3 N     7.0000    0    14.007    3.712029    2.744022    0.859170
   4 C     6.0000    0    12.011    3.733632    0.107907    1.651619
   5 C     6.0000    0    12.011    6.369762   -0.848750    2.053588
   6 C     6.0000    0    12.011    1.570937    3.357639   -0.711074
   7 C     6.0000    0    12.011   -0.025048    5.510944    0.309497
   8 O     8.0000    0    15.999    0.365571    6.657146    2.239367
   9 O     8.0000    0    15.999   -1.894696    6.022519   -1.282395
  10 C     6.0000    0    12.011   -3.641491    7.921532   -0.526134
  11 H     1.0000    0     1.008   10.223959    0.005036    2.621001
  12 H     1.0000    0     1.008    5.404073    6.282553    0.608290
  13 H     1.0000    0     1.008    2.617543   -0.168565    3.410884
  14 H     1.0000    0     1.008    6.618085   -2.886528    2.260711
  15 H     1.0000    0     1.008    2.205407    3.976987   -2.595766
  16 H     1.0000    0     1.008   -5.030625    8.072434   -2.053467
  17 H     1.0000    0     1.008   -2.675627    9.739412   -0.249759
  18 C     6.0000    0    12.011    2.077115   -1.233494   -0.371584
  19 C     6.0000    0    12.011    0.096336    0.838018   -1.022533
  20 C     6.0000    0    12.011   -2.266840    0.677310    0.572608
  21 C     6.0000    0    12.011   -2.294655    1.241529    3.149765
  22 C     6.0000    0    12.011   -4.508499    1.103581    4.576499
  23 C     6.0000    0    12.011   -6.754340    0.401761    3.403888
  24 C     6.0000    0    12.011   -6.793962   -0.150211    0.826154
  25 C     6.0000    0    12.011   -4.566638   -0.010736   -0.590487
  26 O     8.0000    0    15.999   -4.463682   -0.533415   -3.087255
  27 C     6.0000    0    12.011   -6.695088   -1.211082   -4.371265
  28 N     7.0000    0    14.007    3.825104   -1.554356   -2.699207
  29 O     8.0000    0    15.999    3.845120    0.076815   -4.308031
  30 H     1.0000    0     1.008   -0.462560    0.640198   -3.002788
  31 H     1.0000    0     1.008   -0.551054    1.837687    4.077005
  32 H     1.0000    0     1.008   -4.467443    1.551116    6.590679
  33 H     1.0000    0     1.008   -8.508027    0.285305    4.488530
  34 H     1.0000    0     1.008   -8.569574   -0.686373   -0.070339
  35 H     1.0000    0     1.008   -6.161603   -1.520734   -6.349828
  36 H     1.0000    0     1.008   -8.118640    0.307094   -4.274139
  37 H     1.0000    0     1.008   -7.514821   -2.965251   -3.600867
  38 O     8.0000    0    15.999    5.182965   -3.389955   -2.731599
  39 H     1.0000    0     1.008   -4.581265    7.372020    1.244330
  40 H     1.0000    0     1.008    9.607955    4.759047    2.136360
  41 C     6.0000    0    12.011    1.166772   -3.751588    0.465088
  42 H     1.0000    0     1.008    2.211679   -4.653521    1.997815
  43 C     6.0000    0    12.011   -0.816539   -4.925945   -0.661616
  44 H     1.0000    0     1.008   -1.781129   -3.999397   -2.240866
  45 N     7.0000    0    14.007   -1.829656   -7.181619   -0.019583
  46 C     6.0000    0    12.011   -0.729708   -8.633306    1.999262
  47 H     1.0000    0     1.008    1.183182   -9.324351    1.517613
  48 H     1.0000    0     1.008   -0.568023   -7.481620    3.728925
  49 H     1.0000    0     1.008   -1.933500  -10.269904    2.415456
  50 C     6.0000    0    12.011   -3.762346   -8.339127   -1.552680
  51 H     1.0000    0     1.008   -4.537482   -6.937156   -2.872331
  52 H     1.0000    0     1.008   -3.026177   -9.944493   -2.667921
  53 H     1.0000    0     1.008   -5.320790   -9.045083   -0.365273

--------------------------------
INTERNAL COORDINATES (ANGSTROEM)
--------------------------------
 C      0   0   0     0.000000000000     0.00000000     0.00000000
 C      1   0   0     1.448839409503     0.00000000     0.00000000
 C      2   1   0     1.356580066542   117.74382705     0.00000000
 N      3   2   1     1.364065964262   122.11877227     5.92483639
 C      4   3   2     1.456684124690   123.14061103     6.53196340
 C      1   2   3     1.347379943605   121.77087049   353.11744157
 C      4   3   2     1.442089353404   122.66837469   200.92044502
 C      7   4   3     1.517683306507   113.65504308   290.40169021
 O      8   7   4     1.205637040255   125.71368247   359.71846675
 O      8   7   4     1.327318698305   110.00397044   177.66416264
 C     10   8   7     1.422834421255   116.73060470   176.89710051
 H      1   2   3     1.094084544757   118.93371527   171.36051379
 H      3   2   1     1.093118750667   122.66829636   186.88206357
 H      5   4   3     1.112167103478   111.27106655   106.18115559
 H      6   1   2     1.091838427328   121.52248635   178.26490980
 H      7   4   3     1.102189607069   110.42689183    48.80311295
 H     11  10   8     1.095436654408   106.25557613   180.21976452
 H     11  10   8     1.099105681057   110.70010872    60.48794502
 C      5   4   3     1.555165009859   103.56178929   215.65256794
 C      7   4   3     1.553650530650   105.21832460   165.32653949
 C     20   7   4     1.511160206899   113.87051981   103.72911255
 C     21  20   7     1.396151382793   122.84174633   310.73011499
 C     22  21  20     1.395634637820   121.74145876   179.32744497
 C     23  22  21     1.391179636795   119.32482535   359.58102664
 C     24  23  22     1.395157896961   120.32010418   359.78757387
 C     25  24  23     1.398800220963   120.01837090     0.29342655
 O     26  25  24     1.350972596581   123.18246208   179.59109137
 C     27  26  25     1.408753448861   119.34158599     1.19265000
 N     19   5   4     1.549707630003   105.11425238    78.92091208
 O     29  19   5     1.212432310323   119.03320498   268.16797272
 H     20   7   4     1.093863028896   108.63585040   223.88506624
 H     22  21  20     1.091609590596   119.46973785     0.36504766
 H     23  22  21     1.092067477707   119.99624599   179.80681934
 H     24  23  22     1.092905048493   120.41023903   180.07978095
 H     25  24  23     1.090152108933   119.53266431   180.37598912
 H     28  27  26     1.096712439195   106.42333983   179.34348159
 H     28  27  26     1.102517558040   111.39119518    60.38840283
 H     28  27  26     1.102745148138   111.44989262   298.26992886
 O     29  19   5     1.208362901090   117.01891506    84.86651846
 H     11  10   8     1.099833393333   110.28052262   299.56967535
 H      2   1   3     1.089543388555   121.57056825   184.46460596
 C     19   5   4     1.484485330044   112.78679127   198.05920343
 H     42  19   5     1.091512305043   116.72675573   339.57989937
 C     42  19   5     1.357635950045   122.05706207   161.60389721
 H     44  42  19     1.095148123221   119.37368657     0.13759945
 N     44  42  19     1.351907764134   126.89518352   181.53206799
 C     46  44  42     1.438838354861   119.83961834   357.67915665
 H     47  46  44     1.106053602984   112.06474828   293.13466677
 H     47  46  44     1.102957555539   110.64235465    53.26625502
 H     47  46  44     1.097424925205   109.60448559   172.67157075
 C     46  44  42     1.441996355691   120.99246118   186.85144386
 H     51  46  44     1.098324433844   109.61307998   345.26171688
 H     51  46  44     1.105322696422   112.14138801   105.37960054
 H     51  46  44     1.102043573470   110.73005166   225.98468438

---------------------------
INTERNAL COORDINATES (A.U.)
---------------------------
 C      0   0   0     0.000000000000     0.00000000     0.00000000
 C      1   0   0     2.737909695992     0.00000000     0.00000000
 C      2   1   0     2.563564804501   117.74382705     0.00000000
 N      3   2   1     2.577711101058   122.11877227     5.92483639
 C      4   3   2     2.752734059295   123.14061103     6.53196340
 C      1   2   3     2.546179091751   121.77087049   353.11744157
 C      4   3   2     2.725153938578   122.66837469   200.92044502
 C      7   4   3     2.868005807322   113.65504308   290.40169021
 O      8   7   4     2.278323822993   125.71368247   359.71846675
 O      8   7   4     2.508268832229   110.00397044   177.66416264
 C     10   8   7     2.688767390088   116.73060470   176.89710051
 H      1   2   3     2.067520156947   118.93371527   171.36051379
 H      3   2   1     2.065695070615   122.66829636   186.88206357
 H      5   4   3     2.101691240730   111.27106655   106.18115559
 H      6   1   2     2.063275610141   121.52248635   178.26490980
 H      7   4   3     2.082836505014   110.42689183    48.80311295
 H     11  10   8     2.070075273890   106.25557613   180.21976452
 H     11  10   8     2.077008729434   110.70010872    60.48794502
 C      5   4   3     2.938835961691   103.56178929   215.65256794
 C      7   4   3     2.935974010751   105.21832460   165.32653949
 C     20   7   4     2.855678935518   113.87051981   103.72911255
 C     21  20   7     2.638343754974   122.84174633   310.73011499
 C     22  21  20     2.637367248494   121.74145876   179.32744497
 C     23  22  21     2.628948516631   119.32482535   359.58102664
 C     24  23  22     2.636466338835   120.32010418   359.78757387
 C     25  24  23     2.643349333689   120.01837090     0.29342655
 O     26  25  24     2.552968221971   123.18246208   179.59109137
 C     27  26  25     2.662158208564   119.34158599     1.19265000
 N     19   5   4     2.928523008354   105.11425238    78.92091208
 O     29  19   5     2.291165022427   119.03320498   268.16797272
 H     20   7   4     2.067101552635   108.63585040   223.88506624
 H     22  21  20     2.062843171388   119.46973785     0.36504766
 H     23  22  21     2.063708452628   119.99624599   179.80681934
 H     24  23  22     2.065291232031   120.41023903   180.07978095
 H     25  24  23     2.060088930199   119.53266431   180.37598912
 H     28  27  26     2.072486157743   106.42333983   179.34348159
 H     28  27  26     2.083456242535   111.39119518    60.38840283
 H     28  27  26     2.083886325490   111.44989262   298.26992886
 O     29  19   5     2.283474953451   117.01891506    84.86651846
 H     11  10   8     2.078383906341   110.28052262   299.56967535
 H      2   1   3     2.058938615394   121.57056825   184.46460596
 C     19   5   4     2.805270723608   112.78679127   198.05920343
 H     42  19   5     2.062659328337   116.72675573   339.57989937
 C     42  19   5     2.565560135151   122.05706207   161.60389721
 H     44  42  19     2.069530028965   119.37368657     0.13759945
 N     44  42  19     2.554735432535   126.89518352   181.53206799
 C     46  44  42     2.719010441668   119.83961834   357.67915665
 H     47  46  44     2.090138399076   112.06474828   293.13466677
 H     47  46  44     2.084287717307   110.64235465    53.26625502
 H     47  46  44     2.073832561176   109.60448559   172.67157075
 C     46  44  42     2.724978198368   120.99246118   186.85144386
 H     51  46  44     2.075532386159   109.61307998   345.26171688
 H     51  46  44     2.088757185844   112.14138801   105.37960054
 H     51  46  44     2.082560541506   110.73005166   225.98468438

---------------------
BASIS SET INFORMATION
---------------------
There are 4 groups of distinct atoms

 Group   1 Type C   : 11s6p2d1f contracted to 5s3p2d1f pattern {62111/411/11/1}
 Group   2 Type N   : 11s6p2d1f contracted to 5s3p2d1f pattern {62111/411/11/1}
 Group   3 Type O   : 11s6p2d1f contracted to 5s3p2d1f pattern {62111/411/11/1}
 Group   4 Type H   : 5s1p contracted to 3s1p pattern {311/1}

Atom   0C    basis set group =>   1
Atom   1C    basis set group =>   1
Atom   2C    basis set group =>   1
Atom   3N    basis set group =>   2
Atom   4C    basis set group =>   1
Atom   5C    basis set group =>   1
Atom   6C    basis set group =>   1
Atom   7C    basis set group =>   1
Atom   8O    basis set group =>   3
Atom   9O    basis set group =>   3
Atom  10C    basis set group =>   1
Atom  11H    basis set group =>   4
Atom  12H    basis set group =>   4
Atom  13H    basis set group =>   4
Atom  14H    basis set group =>   4
Atom  15H    basis set group =>   4
Atom  16H    basis set group =>   4
Atom  17H    basis set group =>   4
Atom  18C    basis set group =>   1
Atom  19C    basis set group =>   1
Atom  20C    basis set group =>   1
Atom  21C    basis set group =>   1
Atom  22C    basis set group =>   1
Atom  23C    basis set group =>   1
Atom  24C    basis set group =>   1
Atom  25C    basis set group =>   1
Atom  26O    basis set group =>   3
Atom  27C    basis set group =>   1
Atom  28N    basis set group =>   2
Atom  29O    basis set group =>   3
Atom  30H    basis set group =>   4
Atom  31H    basis set group =>   4
Atom  32H    basis set group =>   4
Atom  33H    basis set group =>   4
Atom  34H    basis set group =>   4
Atom  35H    basis set group =>   4
Atom  36H    basis set group =>   4
Atom  37H    basis set group =>   4
Atom  38O    basis set group =>   3
Atom  39H    basis set group =>   4
Atom  40H    basis set group =>   4
Atom  41C    basis set group =>   1
Atom  42H    basis set group =>   4
Atom  43C    basis set group =>   1
Atom  44H    basis set group =>   4
Atom  45N    basis set group =>   2
Atom  46C    basis set group =>   1
Atom  47H    basis set group =>   4
Atom  48H    basis set group =>   4
Atom  49H    basis set group =>   4
Atom  50C    basis set group =>   1
Atom  51H    basis set group =>   4
Atom  52H    basis set group =>   4
Atom  53H    basis set group =>   4
---------------------------------
AUXILIARY/J BASIS SET INFORMATION
---------------------------------
There are 4 groups of distinct atoms

 Group   1 Type C   : 12s5p4d2f1g contracted to 6s4p3d1f1g pattern {711111/2111/211/2/1}
 Group   2 Type N   : 12s5p4d2f1g contracted to 6s4p3d1f1g pattern {711111/2111/211/2/1}
 Group   3 Type O   : 12s5p4d2f1g contracted to 6s4p3d1f1g pattern {711111/2111/211/2/1}
 Group   4 Type H   : 5s2p1d contracted to 3s1p1d pattern {311/2/1}

Atom   0C    basis set group =>   1
Atom   1C    basis set group =>   1
Atom   2C    basis set group =>   1
Atom   3N    basis set group =>   2
Atom   4C    basis set group =>   1
Atom   5C    basis set group =>   1
Atom   6C    basis set group =>   1
Atom   7C    basis set group =>   1
Atom   8O    basis set group =>   3
Atom   9O    basis set group =>   3
Atom  10C    basis set group =>   1
Atom  11H    basis set group =>   4
Atom  12H    basis set group =>   4
Atom  13H    basis set group =>   4
Atom  14H    basis set group =>   4
Atom  15H    basis set group =>   4
Atom  16H    basis set group =>   4
Atom  17H    basis set group =>   4
Atom  18C    basis set group =>   1
Atom  19C    basis set group =>   1
Atom  20C    basis set group =>   1
Atom  21C    basis set group =>   1
Atom  22C    basis set group =>   1
Atom  23C    basis set group =>   1
Atom  24C    basis set group =>   1
Atom  25C    basis set group =>   1
Atom  26O    basis set group =>   3
Atom  27C    basis set group =>   1
Atom  28N    basis set group =>   2
Atom  29O    basis set group =>   3
Atom  30H    basis set group =>   4
Atom  31H    basis set group =>   4
Atom  32H    basis set group =>   4
Atom  33H    basis set group =>   4
Atom  34H    basis set group =>   4
Atom  35H    basis set group =>   4
Atom  36H    basis set group =>   4
Atom  37H    basis set group =>   4
Atom  38O    basis set group =>   3
Atom  39H    basis set group =>   4
Atom  40H    basis set group =>   4
Atom  41C    basis set group =>   1
Atom  42H    basis set group =>   4
Atom  43C    basis set group =>   1
Atom  44H    basis set group =>   4
Atom  45N    basis set group =>   2
Atom  46C    basis set group =>   1
Atom  47H    basis set group =>   4
Atom  48H    basis set group =>   4
Atom  49H    basis set group =>   4
Atom  50C    basis set group =>   1
Atom  51H    basis set group =>   4
Atom  52H    basis set group =>   4
Atom  53H    basis set group =>   4


           ************************************************************
           *        Program running with 24 parallel MPI-processes    *
           *              working on a common directory               *
           ************************************************************
------------------------------------------------------------------------------
                           ORCA GTO INTEGRAL CALCULATION
                           -- RI-GTO INTEGRALS CHOSEN --
------------------------------------------------------------------------------
------------------------------------------------------------------------------
                   ___                                                        
                  /   \      - P O W E R E D   B Y -                         
                 /     \                                                     
                 |  |  |   _    _      __       _____    __    __             
                 |  |  |  | |  | |    /  \     |  _  \  |  |  /  |          
                  \  \/   | |  | |   /    \    | | | |  |  | /  /          
                 / \  \   | |__| |  /  /\  \   | |_| |  |  |/  /          
                |  |  |   |  __  | /  /__\  \  |    /   |      \           
                |  |  |   | |  | | |   __   |  |    \   |  |\   \          
                \     /   | |  | | |  |  |  |  | |\  \  |  | \   \       
                 \___/    |_|  |_| |__|  |__|  |_| \__\ |__|  \__/        
                                                                              
                      - O R C A' S   B I G   F R I E N D -                    
                                      &                                       
                       - I N T E G R A L  F E E D E R -                       
                                                                              
 v1 FN, 2020, v2 2021                                                         
------------------------------------------------------------------------------


Reading SHARK input file 3_CHCHNMe2/3_CHCHNMe2.SHARKINP.tmp ... ok
----------------------
SHARK INTEGRAL PACKAGE
----------------------

Number of atoms                             ...     54
Number of basis functions                   ...   1049
Number of shells                            ...    419
Maximum angular momentum                    ...      3
Integral batch strategy                     ... SHARK/LIBINT Hybrid
RI-J (if used) integral strategy            ... SPLIT-RIJ (Revised 2003 algorithm where possible)
Printlevel                                  ...      1
Contraction scheme used                     ... SEGMENTED contraction
Coulomb Range Separation                    ... NOT USED
Exchange Range Separation                   ... NOT USED
Finite Nucleus Model                        ... NOT USED
Auxiliary Coulomb fitting basis             ... AVAILABLE
   # of basis functions in Aux-J            ...   1696
   # of shells in Aux-J                     ...    560
   Maximum angular momentum in Aux-J        ...      4
Auxiliary J/K fitting basis                 ... NOT available
Auxiliary Correlation fitting basis         ... NOT available
Auxiliary 'external' fitting basis          ... NOT available
Integral threshold                          ...     2.500000e-11
Primitive cut-off                           ...     2.500000e-12
Primitive pair pre-selection threshold      ...     2.500000e-12

Calculating pre-screening integrals         ... done (  0.1 sec) Dimension = 419
Organizing shell pair data                  ... done (  0.8 sec)
Shell pair information
Total number of shell pairs                 ...     87990
Shell pairs after pre-screening             ...     61115
Total number of primitive shell pairs       ...    267528
Primitive shell pairs kept                  ...    120484
          la=0 lb=0:  16258 shell pairs
          la=1 lb=0:  17823 shell pairs
          la=1 lb=1:   4905 shell pairs
          la=2 lb=0:   8574 shell pairs
          la=2 lb=1:   4792 shell pairs
          la=2 lb=2:   1212 shell pairs
          la=3 lb=0:   3970 shell pairs
          la=3 lb=1:   2245 shell pairs
          la=3 lb=2:   1070 shell pairs
          la=3 lb=3:    266 shell pairs

Calculating one electron integrals          ... done (  0.1 sec)
Calculating RI/J V-Matrix + Cholesky decomp.... done (  0.3 sec)
Calculating Nuclear repulsion               ... done (  0.0 sec) ENN=   3069.655244029580 Eh

SHARK setup successfully completed in   2.2 seconds

Maximum memory used throughout the entire GTOINT-calculation: 90.1 MB


           ************************************************************
           *        Program running with 24 parallel MPI-processes    *
           *              working on a common directory               *
           ************************************************************
-------------------------------------------------------------------------------
                                 ORCA SCF
-------------------------------------------------------------------------------

------------
SCF SETTINGS
------------
Hamiltonian:
 Density Functional     Method          .... DFT(GTOs)
 Exchange Functional    Exchange        .... PBE
   PBE kappa parameter   XKappa         ....  0.804000
   PBE mue parameter    XMuePBE         ....  0.219520
 Correlation Functional Correlation     .... PBE
   PBE beta parameter  CBetaPBE         ....  0.066725
 LDA part of GGA corr.  LDAOpt          .... PW91-LDA
 Gradients option       PostSCFGGA      .... off
 Hybrid DFT is turned on
   Fraction HF Exchange ScalHFX         ....  0.250000
   Scaling of DF-GGA-X  ScalDFX         ....  0.750000
   Scaling of DF-GGA-C  ScalDFC         ....  1.000000
   Scaling of DF-LDA-C  ScalLDAC        ....  1.000000
   Perturbative correction              ....  0.000000
   Density functional embedding theory  .... OFF
   NL short-range parameter             ....  6.900000
 RI-approximation to the Coulomb term is turned on
   Number of AuxJ basis functions       .... 1696
   RIJ-COSX (HFX calculated with COS-X)).... on


General Settings:
 Integral files         IntName         .... 3_CHCHNMe2/3_CHCHNMe2
 Hartree-Fock type      HFTyp           .... RHF
 Total Charge           Charge          ....    0
 Multiplicity           Mult            ....    1
 Number of Electrons    NEL             ....  212
 Basis Dimension        Dim             .... 1049
 Nuclear Repulsion      ENuc            ....   3069.6552440296 Eh

Convergence Acceleration:
 DIIS                   CNVDIIS         .... on
   Start iteration      DIISMaxIt       ....    12
   Startup error        DIISStart       ....  0.200000
   # of expansion vecs  DIISMaxEq       ....     5
   Bias factor          DIISBfac        ....   1.050
   Max. coefficient     DIISMaxC        ....  10.000
 Trust-Rad. Augm. Hess. CNVTRAH         .... auto
   Auto Start mean grad. ratio tolernc. ....  1.125000
   Auto Start start iteration           ....    20
   Auto Start num. interpolation iter.  ....    10
   Max. Number of Micro iterations      ....    16
   Max. Number of Macro iterations      .... Maxiter - #DIIS iter
   Number of Davidson start vectors     ....     2
   Converg. threshold I  (grad. norm)   ....   1.000e-05
   Converg. threshold II (energy diff.) ....   1.000e-08
   Grad. Scal. Fac. for Micro threshold ....   0.100
   Minimum threshold for Micro iter.    ....   0.010
   NR start threshold (gradient norm)   ....   0.001
   Initial trust radius                 ....   0.400
   Minimum AH scaling param. (alpha)    ....   1.000
   Maximum AH scaling param. (alpha)    .... 1000.000
   Orbital update algorithm             .... Taylor
   White noise on init. David. guess    .... on
   Maximum white noise                  ....   0.010
   Quad. conv. algorithm                .... NR
 SOSCF                  CNVSOSCF        .... on
   Start iteration      SOSCFMaxIt      ....   150
   Startup grad/error   SOSCFStart      ....  0.003300
 Level Shifting         CNVShift        .... on
   Level shift para.    LevelShift      ....    0.2500
   Turn off err/grad.   ShiftErr        ....    0.0010
 Zerner damping         CNVZerner       .... off
 Static damping         CNVDamp         .... on
   Fraction old density DampFac         ....    0.7000
   Max. Damping (<1)    DampMax         ....    0.9800
   Min. Damping (>=0)   DampMin         ....    0.0000
   Turn off err/grad.   DampErr         ....    0.1000
 Fernandez-Rico         CNVRico         .... off

SCF Procedure:
 Maximum # iterations   MaxIter         ....   800
 SCF integral mode      SCFMode         .... Direct
   Integral package                     .... SHARK and LIBINT hybrid scheme
 Reset frequency        DirectResetFreq ....    20
 Integral Threshold     Thresh          ....  2.500e-11 Eh
 Primitive CutOff       TCut            ....  2.500e-12 Eh

Convergence Tolerance:
 Convergence Check Mode ConvCheckMode   .... Total+1el-Energy
 Convergence forced     ConvForced      .... 0
 Energy Change          TolE            ....  1.000e-08 Eh
 1-El. energy change                    ....  1.000e-05 Eh
 Orbital Gradient       TolG            ....  1.000e-05
 Orbital Rotation angle TolX            ....  1.000e-05
 DIIS Error             TolErr          ....  5.000e-07


Diagonalization of the overlap matrix:
Smallest eigenvalue                        ... 5.144e-06
Time for diagonalization                   ...    0.203 sec
Threshold for overlap eigenvalues          ... 1.000e-08
Number of eigenvalues below threshold      ... 0
Time for construction of square roots      ...    0.172 sec
Total time needed                          ...    0.382 sec

Time for model grid setup =    0.499 sec

------------------------------
INITIAL GUESS: MODEL POTENTIAL
------------------------------
Loading Hartree-Fock densities                     ... done
Calculating cut-offs                               ... done
Initializing the effective Hamiltonian             ... done
Setting up the integral package (SHARK)            ... done
Starting the Coulomb interaction                   ... done (   1.1 sec)
Reading the grid                                   ... done
Mapping shells                                     ... done
Starting the XC term evaluation                    ... done (   0.4 sec)
  promolecular density results
     # of electrons  =    211.992386858
     EX              =   -175.276288269
     EC              =     -7.176721936
     EX+EC           =   -182.453010205
Transforming the Hamiltonian                       ... done (   0.1 sec)
Diagonalizing the Hamiltonian                      ... done (   0.2 sec)
Back transforming the eigenvectors                 ... done (   0.1 sec)
Now organizing SCF variables                       ... done
                      ------------------
                      INITIAL GUESS DONE (   2.6 sec)
                      ------------------
-------------------
DFT GRID GENERATION
-------------------

General Integration Accuracy     IntAcc      ... 4.388
Radial Grid Type                 RadialGrid  ... OptM3 with GC (2021)
Angular Grid (max. ang.)         AngularGrid ... 4 (Lebedev-302)
Angular grid pruning method      GridPruning ... 4 (adaptive)
Weight generation scheme         WeightScheme... Becke
Basis function cutoff            BFCut       ... 1.0000e-11
Integration weight cutoff        WCut        ... 1.0000e-14
Angular grids for H and He will be reduced by one unit
Partially contracted basis set               ... off
Rotationally invariant grid construction     ... off

Total number of grid points                  ...   251373
Total number of batches                      ...     3955
Average number of points per batch           ...       63
Average number of grid points per atom       ...     4655
Time for grid setup =    2.031 sec

--------------------
COSX GRID GENERATION
--------------------

GRIDX 1
-------
General Integration Accuracy     IntAcc      ... 3.816
Radial Grid Type                 RadialGrid  ... OptM3 with GC (2021)
Angular Grid (max. ang.)         AngularGrid ... 1 (Lebedev-50)
Angular grid pruning method      GridPruning ... 4 (adaptive)
Weight generation scheme         WeightScheme... Becke
Basis function cutoff            BFCut       ... 1.0000e-11
Integration weight cutoff        WCut        ... 1.0000e-14
Angular grids for H and He will be reduced by one unit
Partially contracted basis set               ... on
Rotationally invariant grid construction     ... off

Total number of grid points                  ...    31886
Total number of batches                      ...      524
Average number of points per batch           ...       60
Average number of grid points per atom       ...      590
UseSFitting                                  ... on

GRIDX 2
-------
General Integration Accuracy     IntAcc      ... 4.020
Radial Grid Type                 RadialGrid  ... OptM3 with GC (2021)
Angular Grid (max. ang.)         AngularGrid ... 2 (Lebedev-110)
Angular grid pruning method      GridPruning ... 4 (adaptive)
Weight generation scheme         WeightScheme... Becke
Basis function cutoff            BFCut       ... 1.0000e-11
Integration weight cutoff        WCut        ... 1.0000e-14
Angular grids for H and He will be reduced by one unit
Partially contracted basis set               ... on
Rotationally invariant grid construction     ... off

Total number of grid points                  ...    68214
Total number of batches                      ...     1092
Average number of points per batch           ...       62
Average number of grid points per atom       ...     1263
UseSFitting                                  ... on

GRIDX 3
-------
General Integration Accuracy     IntAcc      ... 4.338
Radial Grid Type                 RadialGrid  ... OptM3 with GC (2021)
Angular Grid (max. ang.)         AngularGrid ... 3 (Lebedev-194)
Angular grid pruning method      GridPruning ... 4 (adaptive)
Weight generation scheme         WeightScheme... Becke
Basis function cutoff            BFCut       ... 1.0000e-11
Integration weight cutoff        WCut        ... 1.0000e-14
Angular grids for H and He will be reduced by one unit
Partially contracted basis set               ... on
Rotationally invariant grid construction     ... off

Total number of grid points                  ...   148549
Total number of batches                      ...     2351
Average number of points per batch           ...       63
Average number of grid points per atom       ...     2751
UseSFitting                                  ... on

Time for X-Grid setup             =    3.702 sec


--------------------
CPCM SOLVATION MODEL
--------------------
CPCM parameters:
  Epsilon                                         ...      47.2000
  Refrac                                          ...       1.4790
  Rsolv                                           ...       1.3000
  Surface type                                    ... GAUSSIAN VDW
  Epsilon function type                           ...         CPCM
Radii:
 Radius for C  used is    3.8550 Bohr (=   2.0400 Ang.)
 Radius for N  used is    3.5149 Bohr (=   1.8600 Ang.)
 Radius for O  used is    3.4469 Bohr (=   1.8240 Ang.)
 Radius for H  used is    2.4944 Bohr (=   1.3200 Ang.)
Calculating surface                               ...        done! (  0.0s)
GEPOL surface points                              ...         2673
GEPOL Volume                                      ...    3102.0385
GEPOL Surface-area                                ...    1516.9880
Calculating surface distance matrix               ...        done! (  0.1s)
Performing Cholesky decomposition & store         ...        done! (  0.5s)
Overall time for CPCM initialization              ...                 0.6s
--------------
SCF ITERATIONS
--------------
ITER       Energy         Delta-E        Max-DP      RMS-DP      [F,P]     Damp
               ***  Starting incremental Fock matrix formation  ***
  0  -1353.8359697930   0.000000000000 0.07367524  0.00060096  0.2638756 0.7000
  1  -1354.1305624862  -0.294592693151 0.06308817  0.00050720  0.1057741 0.7000
                               ***Turning on DIIS***
  2  -1354.2509766492  -0.120414163050 0.09577242  0.00100301  0.0381116 0.0000
  3  -1354.4452514821  -0.194274832921 0.06212162  0.00037726  0.0519778 0.0000
  4  -1354.4822924921  -0.037041009964 0.01962692  0.00017337  0.0154217 0.0000
  5  -1354.4846052047  -0.002312712569 0.00933965  0.00005748  0.0068313 0.0000
                      *** Initiating the SOSCF procedure ***
                           *** Shutting down DIIS ***
                      *** Re-Reading the Fockian *** 
                      *** Removing any level shift *** 
ITER      Energy       Delta-E        Grad      Rot      Max-DP    RMS-DP
  6  -1354.48483137  -0.0002261689  0.000210  0.000210  0.003373  0.000020
               *** Restarting incremental Fock matrix formation ***
  7  -1354.48482848   0.0000028923  0.000168  0.000979  0.001691  0.000021
  8  -1354.48482878  -0.0000003019  0.000189  0.000294  0.000393  0.000006
  9  -1354.48483229  -0.0000035034  0.000087  0.000253  0.000469  0.000005
 10  -1354.48483205   0.0000002322  0.000156  0.000180  0.000204  0.000001
 11  -1354.48483240  -0.0000003432  0.000020  0.000038  0.000222  0.000002
 12  -1354.48483239   0.0000000047  0.000020  0.000024  0.000094  0.000001
                  ***Gradient check signals convergence***
              ***Rediagonalizing the Fockian in SOSCF/NRSCF***

               *****************************************************
               *                     SUCCESS                       *
               *           SCF CONVERGED AFTER  13 CYCLES          *
               *****************************************************

Old exchange energy                            =    -44.684670549 Eh
New exchange energy                            =    -44.684678781 Eh
Exchange energy change after final integration =     -0.000008232 Eh
Total energy after final integration           =  -1354.484840657 Eh
Final COS-X integration done in                =    26.763 sec

----------------
TOTAL SCF ENERGY
----------------

Total Energy       :        -1354.48484066 Eh          -36857.40631 eV

Components:
Nuclear Repulsion  :         3069.65524403 Eh           83529.56575 eV
Electronic Energy  :        -4424.14008469 Eh         -120386.97206 eV
One Electron Energy:        -7953.51295244 Eh         -216426.09033 eV
Two Electron Energy:         3529.37286776 Eh           96039.11827 eV
Max COSX asymmetry :            0.00000337 Eh               0.00009 eV
CPCM Dielectric    :           -0.03330496 Eh              -0.90627 eV

Virial components:
Potential Energy   :        -2702.40799323 Eh          -73536.26001 eV
Kinetic Energy     :         1347.92315257 Eh           36678.85370 eV
Virial Ratio       :            2.00486800


DFT components:
N(Alpha)           :      105.999826392257 electrons
N(Beta)            :      105.999826392257 electrons
N(Total)           :      211.999652784515 electrons
E(X)               :     -133.782283987256 Eh       
E(C)               :       -7.162306352924 Eh       
E(XC)              :     -140.944590340180 Eh       
DFET-embed. en.    :        0.000000000000 Eh       
CPCM Solvation Model Properties:
Surface-charge          :           -0.03547270
Charge-correction       :           -0.00028351 Eh              -0.00771 eV
Free-energy (cav+disp)  :  This term is not implemented in the current solvation scheme

---------------
SCF CONVERGENCE
---------------

  Last Energy change         ...   -3.2175e-08  Tolerance :   1.0000e-08
  Last MAX-Density change    ...    1.9984e-15  Tolerance :   1.0000e-07
  Last RMS-Density change    ...    1.2351e-17  Tolerance :   5.0000e-09
  Last Orbital Gradient      ...    1.9412e-06  Tolerance :   1.0000e-05
  Last Orbital Rotation      ...    7.5874e-06  Tolerance :   1.0000e-05

             **** THE GBW FILE WAS UPDATED (3_CHCHNMe2/3_CHCHNMe2.gbw) ****
             **** DENSITY 3_CHCHNMe2/3_CHCHNMe2.scfp WAS UPDATED ****
             **** ENERGY FILE WAS UPDATED (3_CHCHNMe2/3_CHCHNMe2.en.tmp) ****
             **** THE GBW FILE WAS UPDATED (3_CHCHNMe2/3_CHCHNMe2.gbw) ****
             **** DENSITY 3_CHCHNMe2/3_CHCHNMe2.scfp WAS UPDATED ****
----------------
ORBITAL ENERGIES
----------------

  NO   OCC          E(Eh)            E(eV) 
   0   2.0000     -19.263461      -524.1854 
   1   2.0000     -19.247628      -523.7546 
   2   2.0000     -19.245876      -523.7069 
   3   2.0000     -19.244393      -523.6666 
   4   2.0000     -19.204859      -522.5908 
   5   2.0000     -14.613248      -397.6467 
   6   2.0000     -14.419217      -392.3668 
   7   2.0000     -14.411930      -392.1686 
   8   2.0000     -10.359039      -281.8838 
   9   2.0000     -10.301176      -280.3092 
  10   2.0000     -10.293186      -280.0918 
  11   2.0000     -10.284485      -279.8551 
  12   2.0000     -10.282757      -279.8080 
  13   2.0000     -10.272759      -279.5360 
  14   2.0000     -10.270009      -279.4611 
  15   2.0000     -10.263515      -279.2844 
  16   2.0000     -10.259103      -279.1644 
  17   2.0000     -10.258271      -279.1417 
  18   2.0000     -10.247402      -278.8460 
  19   2.0000     -10.245234      -278.7870 
  20   2.0000     -10.243221      -278.7322 
  21   2.0000     -10.232761      -278.4476 
  22   2.0000     -10.232146      -278.4309 
  23   2.0000     -10.229299      -278.3534 
  24   2.0000     -10.228984      -278.3448 
  25   2.0000     -10.224846      -278.2322 
  26   2.0000     -10.223819      -278.2043 
  27   2.0000     -10.208772      -277.7948 
  28   2.0000     -10.205687      -277.7109 
  29   2.0000      -1.276451       -34.7340 
  30   2.0000      -1.154189       -31.4071 
  31   2.0000      -1.111226       -30.2380 
  32   2.0000      -1.097596       -29.8671 
  33   2.0000      -1.062192       -28.9037 
  34   2.0000      -1.011340       -27.5200 
  35   2.0000      -0.984140       -26.7798 
  36   2.0000      -0.898452       -24.4481 
  37   2.0000      -0.875277       -23.8175 
  38   2.0000      -0.850005       -23.1298 
  39   2.0000      -0.807398       -21.9704 
  40   2.0000      -0.791514       -21.5382 
  41   2.0000      -0.783515       -21.3205 
  42   2.0000      -0.775373       -21.0990 
  43   2.0000      -0.762715       -20.7545 
  44   2.0000      -0.744311       -20.2537 
  45   2.0000      -0.742651       -20.2086 
  46   2.0000      -0.719343       -19.5743 
  47   2.0000      -0.699299       -19.0289 
  48   2.0000      -0.684977       -18.6392 
  49   2.0000      -0.664448       -18.0806 
  50   2.0000      -0.645080       -17.5535 
  51   2.0000      -0.622521       -16.9396 
  52   2.0000      -0.615389       -16.7456 
  53   2.0000      -0.603105       -16.4113 
  54   2.0000      -0.590359       -16.0645 
  55   2.0000      -0.584792       -15.9130 
  56   2.0000      -0.567079       -15.4310 
  57   2.0000      -0.559238       -15.2176 
  58   2.0000      -0.556030       -15.1303 
  59   2.0000      -0.544264       -14.8102 
  60   2.0000      -0.541184       -14.7264 
  61   2.0000      -0.530150       -14.4261 
  62   2.0000      -0.523670       -14.2498 
  63   2.0000      -0.514547       -14.0015 
  64   2.0000      -0.509696       -13.8695 
  65   2.0000      -0.504875       -13.7383 
  66   2.0000      -0.500698       -13.6247 
  67   2.0000      -0.492703       -13.4071 
  68   2.0000      -0.489388       -13.3169 
  69   2.0000      -0.481119       -13.0919 
  70   2.0000      -0.480112       -13.0645 
  71   2.0000      -0.478313       -13.0155 
  72   2.0000      -0.465850       -12.6764 
  73   2.0000      -0.458531       -12.4773 
  74   2.0000      -0.448668       -12.2089 
  75   2.0000      -0.443152       -12.0588 
  76   2.0000      -0.433814       -11.8047 
  77   2.0000      -0.431211       -11.7338 
  78   2.0000      -0.422977       -11.5098 
  79   2.0000      -0.421352       -11.4656 
  80   2.0000      -0.409742       -11.1496 
  81   2.0000      -0.408455       -11.1146 
  82   2.0000      -0.403561       -10.9814 
  83   2.0000      -0.401742       -10.9320 
  84   2.0000      -0.396882       -10.7997 
  85   2.0000      -0.388792       -10.5796 
  86   2.0000      -0.385914       -10.5012 
  87   2.0000      -0.379184       -10.3181 
  88   2.0000      -0.376714       -10.2509 
  89   2.0000      -0.366555        -9.9745 
  90   2.0000      -0.362403        -9.8615 
  91   2.0000      -0.354919        -9.6579 
  92   2.0000      -0.349479        -9.5098 
  93   2.0000      -0.342677        -9.3247 
  94   2.0000      -0.341407        -9.2902 
  95   2.0000      -0.340435        -9.2637 
  96   2.0000      -0.332620        -9.0511 
  97   2.0000      -0.329816        -8.9747 
  98   2.0000      -0.319998        -8.7076 
  99   2.0000      -0.316694        -8.6177 
 100   2.0000      -0.306741        -8.3468 
 101   2.0000      -0.292984        -7.9725 
 102   2.0000      -0.269407        -7.3309 
 103   2.0000      -0.240282        -6.5384 
 104   2.0000      -0.206867        -5.6291 
 105   2.0000      -0.196307        -5.3418 
 106   0.0000      -0.063911        -1.7391 
 107   0.0000      -0.024986        -0.6799 
 108   0.0000      -0.018905        -0.5144 
 109   0.0000      -0.007808        -0.2125 
 110   0.0000       0.005691         0.1549 
 111   0.0000       0.025103         0.6831 
 112   0.0000       0.041315         1.1242 
 113   0.0000       0.054755         1.4900 
 114   0.0000       0.056940         1.5494 
 115   0.0000       0.063334         1.7234 
 116   0.0000       0.069030         1.8784 
 117   0.0000       0.076115         2.0712 
 118   0.0000       0.081732         2.2240 
 119   0.0000       0.082414         2.2426 
[...]
 70:    961.84   0.000844    4.26  0.000274  ( 0.009185  0.009407  0.010044)
 71:    962.64   0.005676   28.68  0.001840  ( 0.025687 -0.025802  0.022678)
 72:    985.04   0.004320   21.83  0.001369  ( 0.019621  0.030443  0.007538)
 73:    989.51   0.000395    2.00  0.000125  (-0.002575  0.010857  0.000171)
 74:    994.70   0.002337   11.81  0.000733  (-0.003006 -0.026775 -0.002683)
 75:   1006.53   0.014063   71.07  0.004360  (-0.000282  0.056768  0.033723)
 76:   1007.72   0.003162   15.98  0.000979  (-0.023094  0.013580  0.016170)
 77:   1038.34   0.003464   17.50  0.001041  (-0.015397  0.028109  0.003710)
 78:   1044.76   0.011431   57.77  0.003414  ( 0.037585 -0.042593 -0.013697)
 79:   1058.86   0.003287   16.61  0.000969  (-0.001609 -0.023235 -0.020643)
 80:   1075.85   0.008738   44.16  0.002535  (-0.046383 -0.009177 -0.017291)
 81:   1087.78   0.003174   16.04  0.000911  (-0.005560  0.012239 -0.027017)
 82:   1089.34   0.006298   31.83  0.001804  ( 0.022359  0.005116  0.035748)
 83:   1102.87   0.012316   62.24  0.003485  (-0.048163 -0.032629  0.010032)
 84:   1120.19   0.002345   11.85  0.000653  ( 0.007473  0.012123  0.021223)
 85:   1135.56   0.032682  165.16  0.008981  ( 0.044757  0.079791  0.024732)
 86:   1140.88   0.009016   45.56  0.002466  ( 0.022632  0.023355  0.037529)
 87:   1152.58   0.008309   41.99  0.002250  (-0.022830  0.038619 -0.015392)
 88:   1157.86   0.005215   26.36  0.001406  ( 0.026311  0.025967 -0.006250)
 89:   1170.68   0.000294    1.49  0.000078  ( 0.000477  0.007414 -0.004828)
 90:   1171.42   0.000229    1.16  0.000061  (-0.002756  0.006744 -0.002809)
 91:   1175.40   0.001332    6.73  0.000354  (-0.017421 -0.002735 -0.006538)
 92:   1193.86   0.001836    9.28  0.000480  ( 0.011149  0.017488  0.007057)
 93:   1198.15   0.000693    3.50  0.000180  ( 0.007156 -0.010925 -0.003151)
 94:   1206.18   0.013853   70.01  0.003584  ( 0.045517 -0.037179  0.011395)
 95:   1216.09   0.026546  134.15  0.006812  (-0.045668  0.068125 -0.009239)
 96:   1220.40   0.003096   15.65  0.000792  ( 0.003580  0.027668  0.003657)
 97:   1246.72   0.040093  202.61  0.010036  ( 0.091632 -0.026476  0.030630)
 98:   1255.83   0.064605  326.49  0.016054  (-0.112715  0.041375 -0.040463)
 99:   1270.72   0.003533   17.85  0.000868  (-0.003947 -0.022282  0.018855)
100:   1273.32   0.020541  103.81  0.005034  (-0.022405  0.065874 -0.013889)
101:   1295.29   0.027400  138.47  0.006601  ( 0.010927  0.024112  0.076814)
102:   1299.41   0.057601  291.09  0.013833  (-0.058334 -0.004320 -0.102039)
103:   1308.32   0.005046   25.50  0.001204  ( 0.003623 -0.018980 -0.028813)
104:   1328.85   0.006576   33.23  0.001544  (-0.020684  0.033213  0.003665)
105:   1333.56   0.005554   28.07  0.001300  ( 0.014088  0.032654 -0.005914)
106:   1338.20   0.003795   19.18  0.000885  (-0.001348 -0.000189  0.029718)
107:   1345.09   0.038365  193.88  0.008901  (-0.092322  0.007685 -0.017841)
108:   1375.44   0.008736   44.15  0.001982  ( 0.043391 -0.008471  0.005245)
109:   1385.92   0.003560   17.99  0.000802  ( 0.013428  0.003506  0.024677)
110:   1388.23   0.011003   55.60  0.002473  (-0.034968 -0.034127 -0.009272)
111:   1396.81   0.019269   97.38  0.004305  (-0.021319 -0.060278  0.014729)
112:   1423.58   0.018257   92.26  0.004002  ( 0.040992  0.031063  0.036835)
113:   1428.26   0.012830   64.84  0.002803  ( 0.032141  0.040551 -0.011216)
114:   1438.32   0.025672  129.74  0.005570  (-0.048302  0.001867  0.056862)
115:   1440.34   0.017673   89.31  0.003829  (-0.016045  0.037971  0.046150)
116:   1458.75   0.003430   17.34  0.000734  ( 0.007057 -0.024891 -0.008032)
117:   1460.41   0.008043   40.64  0.001719  (-0.030398 -0.028186 -0.000383)
118:   1465.72   0.003383   17.10  0.000720  (-0.007353 -0.025711  0.002276)
119:   1466.05   0.005274   26.65  0.001123  ( 0.024386  0.008003 -0.021537)
120:   1466.33   0.008432   42.61  0.001794  (-0.010403  0.008867  0.040095)
121:   1467.45   0.006205   31.36  0.001320  ( 0.025331 -0.025562  0.004944)
122:   1473.56   0.003823   19.32  0.000810  (-0.015343  0.001759 -0.023896)
123:   1474.87   0.002865   14.48  0.000606  ( 0.006053 -0.023178  0.005676)
124:   1484.03   0.004152   20.98  0.000873  ( 0.000510  0.003646  0.029317)
125:   1488.16   0.019965  100.89  0.004187  ( 0.057615  0.028307  0.008110)
126:   1489.97   0.006690   33.81  0.001401  ( 0.031920  0.017602 -0.008511)
127:   1497.80   0.014841   75.00  0.003092  (-0.008013 -0.017111 -0.052298)
128:   1515.75   0.010809   54.62  0.002225  ( 0.005010  0.045329 -0.012066)
129:   1539.43   0.033481  169.20  0.006787  (-0.001077 -0.016528 -0.080701)
130:   1623.45   0.032722  165.36  0.006290  (-0.017216 -0.073707  0.023681)
131:   1633.75   0.134669  680.56  0.025723  ( 0.084685 -0.127758  0.047218)
132:   1648.48   0.006406   32.37  0.001213  (-0.021900 -0.002316 -0.026977)
133:   1664.55   0.011163   56.41  0.002093  ( 0.001401 -0.002102  0.045678)
134:   1703.51   0.160108  809.12  0.029330  ( 0.113958  0.126897  0.015516)
135:   1707.08   0.011622   58.73  0.002125  ( 0.035594 -0.028208  0.007865)
136:   1796.84   0.091237  461.07  0.015845  (-0.048547 -0.050341 -0.104663)
137:   2939.70   0.023638  119.46  0.002509  (-0.035411 -0.025040  0.025068)
138:   3005.15   0.013422   67.83  0.001394  (-0.025346  0.013006 -0.024129)
139:   3011.85   0.031874  161.08  0.003302  ( 0.004044  0.052611  0.022763)
140:   3036.29   0.012706   64.21  0.001306  ( 0.028723  0.009760  0.019636)
141:   3069.89   0.010266   51.88  0.001044  ( 0.022199 -0.023461  0.000570)
142:   3071.73   0.003008   15.20  0.000306  ( 0.009791 -0.008133  0.011983)
143:   3085.71   0.009510   48.06  0.000962  (-0.018650  0.006567  0.023892)
144:   3091.60   0.005816   29.39  0.000587  ( 0.023733 -0.000069 -0.004877)
145:   3107.51   0.007673   38.78  0.000771  ( 0.006509 -0.026201  0.006458)
146:   3144.74   0.002615   13.21  0.000259  (-0.003556  0.010803 -0.011407)
147:   3148.53   0.004802   24.27  0.000476  (-0.011351 -0.018466  0.002482)
148:   3153.37   0.003971   20.07  0.000393  (-0.010193 -0.014415  0.009018)
149:   3166.16   0.003825   19.33  0.000377  (-0.006063  0.002689  0.018248)
150:   3168.65   0.000577    2.91  0.000057  (-0.005178  0.001024 -0.005378)
151:   3177.30   0.000205    1.04  0.000020  ( 0.004022 -0.000533 -0.001919)
152:   3184.91   0.003402   17.19  0.000333  ( 0.015473 -0.008809  0.004036)
153:   3189.09   0.002223   11.23  0.000218  ( 0.008904  0.000556  0.011744)
154:   3193.64   0.000217    1.10  0.000021  (-0.004374 -0.001030  0.001022)
155:   3205.00   0.002705   13.67  0.000263  ( 0.005528  0.013810 -0.006487)
156:   3205.28   0.002631   13.29  0.000256  (-0.013298  0.000640  0.008881)
157:   3207.25   0.000205    1.04  0.000020  (-0.002589 -0.003588 -0.000618)
158:   3213.95   0.001069    5.40  0.000104  (-0.004380  0.008231 -0.004108)
159:   3217.51   0.002191   11.07  0.000212  (-0.003168 -0.003613 -0.013761)
160:   3231.85   0.000447    2.26  0.000043  (-0.005997 -0.001376 -0.002293)
161:   3243.04   0.001141    5.76  0.000110  (-0.004379 -0.009518 -0.000097)

* The epsilon (eps) is given for a Dirac delta lineshape.
** The dipole moment derivative (T) already includes vibrational overlap.

The first frequency considered to be a vibration is 6
The total number of vibrations considered is 156


--------------------------
THERMOCHEMISTRY AT 298.15K
--------------------------

Temperature         ... 298.15 K
Pressure            ... 1.00 atm
Total Mass          ... 399.45 AMU

Throughout the following assumptions are being made:
  (1) The electronic state is orbitally nondegenerate
  (2) There are no thermally accessible electronically excited states
  (3) Hindered rotations indicated by low frequency modes are not
      treated as such but are treated as vibrations and this may
      cause some error
  (4) All equations used are the standard statistical mechanics
      equations for an ideal gas
  (5) All vibrations are strictly harmonic

freq.      16.61  E(vib)   ...       0.57 
freq.      27.82  E(vib)   ...       0.55 
freq.      38.42  E(vib)   ...       0.54 
freq.      46.73  E(vib)   ...       0.53 
freq.      50.30  E(vib)   ...       0.52 
freq.      56.04  E(vib)   ...       0.52 
freq.      57.37  E(vib)   ...       0.51 
freq.      73.58  E(vib)   ...       0.49 
freq.      79.07  E(vib)   ...       0.49 
freq.      89.31  E(vib)   ...       0.47 
freq.      94.26  E(vib)   ...       0.47 
freq.     109.24  E(vib)   ...       0.45 
freq.     114.73  E(vib)   ...       0.44 
freq.     135.41  E(vib)   ...       0.42 
freq.     151.34  E(vib)   ...       0.40 
freq.     159.17  E(vib)   ...       0.39 
freq.     159.81  E(vib)   ...       0.39 
freq.     170.96  E(vib)   ...       0.38 
freq.     185.48  E(vib)   ...       0.37 
freq.     201.22  E(vib)   ...       0.35 
freq.     204.75  E(vib)   ...       0.35 
freq.     209.69  E(vib)   ...       0.34 
freq.     214.61  E(vib)   ...       0.34 
freq.     247.34  E(vib)   ...       0.31 
freq.     262.56  E(vib)   ...       0.29 
freq.     275.70  E(vib)   ...       0.28 
freq.     291.58  E(vib)   ...       0.27 
freq.     307.68  E(vib)   ...       0.26 
freq.     327.13  E(vib)   ...       0.24 
freq.     339.58  E(vib)   ...       0.23 
freq.     347.54  E(vib)   ...       0.23 
freq.     375.07  E(vib)   ...       0.21 
freq.     376.76  E(vib)   ...       0.21 
freq.     409.40  E(vib)   ...       0.19 
freq.     436.68  E(vib)   ...       0.17 
freq.     461.58  E(vib)   ...       0.16 
freq.     483.91  E(vib)   ...       0.15 
freq.     488.44  E(vib)   ...       0.15 
freq.     500.47  E(vib)   ...       0.14 
freq.     543.53  E(vib)   ...       0.12 
freq.     563.08  E(vib)   ...       0.11 
freq.     565.75  E(vib)   ...       0.11 
freq.     596.48  E(vib)   ...       0.10 
freq.     599.25  E(vib)   ...       0.10 
freq.     617.42  E(vib)   ...       0.09 
freq.     629.70  E(vib)   ...       0.09 
freq.     664.83  E(vib)   ...       0.08 
freq.     700.97  E(vib)   ...       0.07 
freq.     710.88  E(vib)   ...       0.07 
freq.     737.03  E(vib)   ...       0.06 
freq.     748.55  E(vib)   ...       0.06 
freq.     757.98  E(vib)   ...       0.06 
freq.     769.80  E(vib)   ...       0.05 
freq.     778.76  E(vib)   ...       0.05 
freq.     787.33  E(vib)   ...       0.05 
freq.     800.44  E(vib)   ...       0.05 
freq.     831.90  E(vib)   ...       0.04 
freq.     843.41  E(vib)   ...       0.04 
freq.     865.43  E(vib)   ...       0.04 
freq.     871.85  E(vib)   ...       0.04 
freq.     878.46  E(vib)   ...       0.04 
freq.     903.33  E(vib)   ...       0.03 
freq.     937.51  E(vib)   ...       0.03 
freq.     942.48  E(vib)   ...       0.03 
freq.     961.84  E(vib)   ...       0.03 
freq.     962.64  E(vib)   ...       0.03 
freq.     985.04  E(vib)   ...       0.02 
freq.     989.51  E(vib)   ...       0.02 
freq.     994.70  E(vib)   ...       0.02 
freq.    1006.53  E(vib)   ...       0.02 
freq.    1007.72  E(vib)   ...       0.02 
freq.    1038.34  E(vib)   ...       0.02 
freq.    1044.76  E(vib)   ...       0.02 
freq.    1058.86  E(vib)   ...       0.02 
freq.    1075.85  E(vib)   ...       0.02 
freq.    1087.78  E(vib)   ...       0.02 
freq.    1089.34  E(vib)   ...       0.02 
freq.    1102.87  E(vib)   ...       0.02 
freq.    1120.19  E(vib)   ...       0.01 
freq.    1135.56  E(vib)   ...       0.01 
freq.    1140.88  E(vib)   ...       0.01 
freq.    1152.58  E(vib)   ...       0.01 
freq.    1157.86  E(vib)   ...       0.01 
freq.    1170.68  E(vib)   ...       0.01 
freq.    1171.42  E(vib)   ...       0.01 
freq.    1175.40  E(vib)   ...       0.01 
freq.    1193.86  E(vib)   ...       0.01 
freq.    1198.15  E(vib)   ...       0.01 
freq.    1206.18  E(vib)   ...       0.01 
freq.    1216.09  E(vib)   ...       0.01 
freq.    1220.40  E(vib)   ...       0.01 
freq.    1246.72  E(vib)   ...       0.01 
freq.    1255.83  E(vib)   ...       0.01 
freq.    1270.72  E(vib)   ...       0.01 
freq.    1273.32  E(vib)   ...       0.01 
freq.    1295.29  E(vib)   ...       0.01 
freq.    1299.41  E(vib)   ...       0.01 
freq.    1308.32  E(vib)   ...       0.01 
freq.    1328.85  E(vib)   ...       0.01 
freq.    1333.56  E(vib)   ...       0.01 
freq.    1338.20  E(vib)   ...       0.01 
freq.    1345.09  E(vib)   ...       0.01 
freq.    1375.44  E(vib)   ...       0.01 
freq.    1385.92  E(vib)   ...       0.00 
freq.    1388.23  E(vib)   ...       0.00 
freq.    1396.81  E(vib)   ...       0.00 
freq.    1423.58  E(vib)   ...       0.00 
freq.    1428.26  E(vib)   ...       0.00 
freq.    1438.32  E(vib)   ...       0.00 
freq.    1440.34  E(vib)   ...       0.00 
freq.    1458.75  E(vib)   ...       0.00 
freq.    1460.41  E(vib)   ...       0.00 
freq.    1465.72  E(vib)   ...       0.00 
freq.    1466.05  E(vib)   ...       0.00 
freq.    1466.33  E(vib)   ...       0.00 
freq.    1467.45  E(vib)   ...       0.00 
freq.    1473.56  E(vib)   ...       0.00 
freq.    1474.87  E(vib)   ...       0.00 
freq.    1484.03  E(vib)   ...       0.00 
freq.    1488.16  E(vib)   ...       0.00 
freq.    1489.97  E(vib)   ...       0.00 
freq.    1497.80  E(vib)   ...       0.00 
freq.    1515.75  E(vib)   ...       0.00 
freq.    1539.43  E(vib)   ...       0.00 
freq.    1623.45  E(vib)   ...       0.00 
freq.    1633.75  E(vib)   ...       0.00 
freq.    1648.48  E(vib)   ...       0.00 
freq.    1664.55  E(vib)   ...       0.00 
freq.    1703.51  E(vib)   ...       0.00 
freq.    1707.08  E(vib)   ...       0.00 
freq.    1796.84  E(vib)   ...       0.00 
freq.    2939.70  E(vib)   ...       0.00 
freq.    3005.15  E(vib)   ...       0.00 
freq.    3011.85  E(vib)   ...       0.00 
freq.    3036.29  E(vib)   ...       0.00 
freq.    3069.89  E(vib)   ...       0.00 
freq.    3071.73  E(vib)   ...       0.00 
freq.    3085.71  E(vib)   ...       0.00 
freq.    3091.60  E(vib)   ...       0.00 
freq.    3107.51  E(vib)   ...       0.00 
freq.    3144.74  E(vib)   ...       0.00 
freq.    3148.53  E(vib)   ...       0.00 
freq.    3153.37  E(vib)   ...       0.00 
freq.    3166.16  E(vib)   ...       0.00 
freq.    3168.65  E(vib)   ...       0.00 
freq.    3177.30  E(vib)   ...       0.00 
freq.    3184.91  E(vib)   ...       0.00 
freq.    3189.09  E(vib)   ...       0.00 
freq.    3193.64  E(vib)   ...       0.00 
freq.    3205.00  E(vib)   ...       0.00 
freq.    3205.28  E(vib)   ...       0.00 
freq.    3207.25  E(vib)   ...       0.00 
freq.    3213.95  E(vib)   ...       0.00 
freq.    3217.51  E(vib)   ...       0.00 
freq.    3231.85  E(vib)   ...       0.00 
freq.    3243.04  E(vib)   ...       0.00 

------------
INNER ENERGY
------------

The inner energy is: U= E(el) + E(ZPE) + E(vib) + E(rot) + E(trans)
    E(el)   - is the total energy from the electronic structure calculation
              = E(kin-el) + E(nuc-el) + E(el-el) + E(nuc-nuc)
    E(ZPE)  - the the zero temperature vibrational energy from the frequency calculation
    E(vib)  - the the finite temperature correction to E(ZPE) due to population
              of excited vibrational states
    E(rot)  - is the rotational thermal energy
    E(trans)- is the translational thermal energy

Summary of contributions to the inner energy U:
Electronic energy                ...  -1354.55837077 Eh
Zero point energy                ...      0.44072611 Eh     276.56 kcal/mol
Thermal vibrational correction   ...      0.02555705 Eh      16.04 kcal/mol
Thermal rotational correction    ...      0.00141627 Eh       0.89 kcal/mol
Thermal translational correction ...      0.00141627 Eh       0.89 kcal/mol
-----------------------------------------------------------------------
Total thermal energy                  -1354.08925506 Eh


Summary of corrections to the electronic energy:
(perhaps to be used in another calculation)
Total thermal correction                  0.02838960 Eh      17.81 kcal/mol
Non-thermal (ZPE) correction              0.44072611 Eh     276.56 kcal/mol
-----------------------------------------------------------------------
Total correction                          0.46911571 Eh     294.37 kcal/mol


--------
ENTHALPY
--------

The enthalpy is H = U + kB*T
                kB is Boltzmann's constant
Total free energy                 ...  -1354.08925506 Eh 
Thermal Enthalpy correction       ...      0.00094421 Eh       0.59 kcal/mol
-----------------------------------------------------------------------
Total Enthalpy                    ...  -1354.08831085 Eh


Note: Only C1 symmetry has been detected, increase convergence thresholds 
      if your molecule has a higher symmetry. Symmetry factor of 1.0 is   
      used for the rotational entropy correction. 
 

Note: Rotational entropy computed according to Herzberg 
Infrared and Raman Spectra, Chapter V,1, Van Nostrand Reinhold, 1945 
Point Group:  C1, Symmetry Number:   1  
Rotational constants in cm-1:     0.006997     0.005937     0.004088 

Vibrational entropy computed according to the QRRHO of S. Grimme
Chem.Eur.J. 2012 18 9955


-------
ENTROPY
-------

The entropy contributions are T*S = T*(S(el)+S(vib)+S(rot)+S(trans))
     S(el)   - electronic entropy
     S(vib)  - vibrational entropy
     S(rot)  - rotational entropy
     S(trans)- translational entropy
The entropies will be listed as multiplied by the temperature to get
units of energy

Electronic entropy                ...      0.00000000 Eh      0.00 kcal/mol
Vibrational entropy               ...      0.04626599 Eh     29.03 kcal/mol
Rotational entropy                ...      0.01686998 Eh     10.59 kcal/mol
Translational entropy             ...      0.02083265 Eh     13.07 kcal/mol
-----------------------------------------------------------------------
Final entropy term                ...      0.08396863 Eh     52.69 kcal/mol

In case the symmetry of your molecule has not been determined correctly
or in case you have a reason to use a different symmetry number we print 
out the resulting rotational entropy values for sn=1,12 :
 --------------------------------------------------------
|  sn= 1 | S(rot)=       0.01686998 Eh     10.59 kcal/mol|
|  sn= 2 | S(rot)=       0.01621553 Eh     10.18 kcal/mol|
|  sn= 3 | S(rot)=       0.01583269 Eh      9.94 kcal/mol|
|  sn= 4 | S(rot)=       0.01556107 Eh      9.76 kcal/mol|
|  sn= 5 | S(rot)=       0.01535038 Eh      9.63 kcal/mol|
|  sn= 6 | S(rot)=       0.01517824 Eh      9.52 kcal/mol|
|  sn= 7 | S(rot)=       0.01503269 Eh      9.43 kcal/mol|
|  sn= 8 | S(rot)=       0.01490661 Eh      9.35 kcal/mol|
|  sn= 9 | S(rot)=       0.01479541 Eh      9.28 kcal/mol|
|  sn=10 | S(rot)=       0.01469593 Eh      9.22 kcal/mol|
|  sn=11 | S(rot)=       0.01460594 Eh      9.17 kcal/mol|
|  sn=12 | S(rot)=       0.01452378 Eh      9.11 kcal/mol|
 --------------------------------------------------------


-------------------
GIBBS FREE ENERGY
-------------------

The Gibbs free energy is G = H - T*S

Total enthalpy                    ...  -1354.08831085 Eh 
Total entropy correction          ...     -0.08396863 Eh    -52.69 kcal/mol
-----------------------------------------------------------------------
Final Gibbs free energy         ...  -1354.17227948 Eh

For completeness - the Gibbs free energy minus the electronic energy
G-E(el)                           ...      0.38609129 Eh    242.28 kcal/mol


Timings for individual modules:

Sum of individual times         ...    10816.585 sec (= 180.276 min)
GTO integral calculation        ...       58.410 sec (=   0.973 min)   0.5 %
SCF iterations                  ...     3503.329 sec (=  58.389 min)  32.4 %
SCF Gradient evaluation         ...      964.647 sec (=  16.077 min)   8.9 %
Geometry relaxation             ...        4.553 sec (=   0.076 min)   0.0 %
Analytical frequency calculation...     6285.645 sec (= 104.761 min)  58.1 %
                             ****ORCA TERMINATED NORMALLY****
TOTAL RUN TIME: 0 days 3 hours 1 minutes 13 seconds 70 msec
