
                                 *****************
                                 * O   R   C   A *
                                 *****************

                                            #,                                       
                                            ###                                      
                                            ####                                     
                                            #####                                    
                                            ######                                   
                                           ########,                                 
                                     ,,################,,,,,                         
                               ,,#################################,,                 
                          ,,##########################################,,             
                       ,#########################################, ''#####,          
                    ,#############################################,,   '####,        
                  ,##################################################,,,,####,       
                ,###########''''           ''''###############################       
              ,#####''   ,,,,##########,,,,          '''####'''          '####       
            ,##' ,,,,###########################,,,                        '##       
           ' ,,###''''                  '''############,,,                           
         ,,##''                                '''############,,,,        ,,,,,,###''
      ,#''                                            '''#######################'''  
     '                                                          ''''####''''         
             ,#######,   #######,   ,#######,      ##                                
            ,#'     '#,  ##    ##  ,#'     '#,    #''#        ######   ,####,        
            ##       ##  ##   ,#'  ##            #'  '#       #        #'  '#        
            ##       ##  #######   ##           ,######,      #####,   #    #        
            '#,     ,#'  ##    ##  '#,     ,#' ,#      #,         ##   #,  ,#        
             '#######'   ##     ##  '#######'  #'      '#     #####' # '####'        



                  #######################################################
                  #                        -***-                        #
                  #          Department of theory and spectroscopy      #
                  #    Directorship and core code : Frank Neese         #
                  #        Max Planck Institute fuer Kohlenforschung    #
                  #                Kaiser Wilhelm Platz 1               #
                  #                 D-45470 Muelheim/Ruhr               #
                  #                      Germany                        #
                  #                                                     #
                  #                  All rights reserved                #
                  #                        -***-                        #
                  #######################################################


                         Program Version 5.0.4 -  RELEASE  -


 With contributions from (in alphabetic order):
   Daniel Aravena         : Magnetic Suceptibility
   Michael Atanasov       : Ab Initio Ligand Field Theory (pilot matlab implementation)
   Alexander A. Auer      : GIAO ZORA, VPT2 properties, NMR spectrum
   Ute Becker             : Parallelization
   Giovanni Bistoni       : ED, misc. LED, open-shell LED, HFLD
   Martin Brehm           : Molecular dynamics
   Dmytro Bykov           : SCF Hessian
   Vijay G. Chilkuri      : MRCI spin determinant printing, contributions to CSF-ICE
   Dipayan Datta          : RHF DLPNO-CCSD density
   Achintya Kumar Dutta   : EOM-CC, STEOM-CC
   Dmitry Ganyushin       : Spin-Orbit,Spin-Spin,Magnetic field MRCI
   Miquel Garcia          : C-PCM and meta-GGA Hessian, CC/C-PCM, Gaussian charge scheme
   Yang Guo               : DLPNO-NEVPT2, F12-NEVPT2, CIM, IAO-localization
   Andreas Hansen         : Spin unrestricted coupled pair/coupled cluster methods
   Benjamin Helmich-Paris : MC-RPA, TRAH-SCF, COSX integrals
   Lee Huntington         : MR-EOM, pCC
   Robert Izsak           : Overlap fitted RIJCOSX, COSX-SCS-MP3, EOM
   Marcus Kettner         : VPT2
   Christian Kollmar      : KDIIS, OOCD, Brueckner-CCSD(T), CCSD density, CASPT2, CASPT2-K
   Simone Kossmann        : Meta GGA functionals, TD-DFT gradient, OOMP2, MP2 Hessian
   Martin Krupicka        : Initial AUTO-CI
   Lucas Lang             : DCDCAS
   Marvin Lechner         : AUTO-CI (C++ implementation), FIC-MRCC
   Dagmar Lenk            : GEPOL surface, SMD
   Dimitrios Liakos       : Extrapolation schemes; Compound Job, initial MDCI parallelization
   Dimitrios Manganas     : Further ROCIS development; embedding schemes
   Dimitrios Pantazis     : SARC Basis sets
   Anastasios Papadopoulos: AUTO-CI, single reference methods and gradients
   Taras Petrenko         : DFT Hessian,TD-DFT gradient, ASA, ECA, R-Raman, ABS, FL, XAS/XES, NRVS
   Peter Pinski           : DLPNO-MP2, DLPNO-MP2 Gradient
   Christoph Reimann      : Effective Core Potentials
   Marius Retegan         : Local ZFS, SOC
   Christoph Riplinger    : Optimizer, TS searches, QM/MM, DLPNO-CCSD(T), (RO)-DLPNO pert. Triples
   Tobias Risthaus        : Range-separated hybrids, TD-DFT gradient, RPA, STAB
   Michael Roemelt        : Original ROCIS implementation
   Masaaki Saitow         : Open-shell DLPNO-CCSD energy and density
   Barbara Sandhoefer     : DKH picture change effects
   Avijit Sen             : IP-ROCIS
   Kantharuban Sivalingam : CASSCF convergence, NEVPT2, FIC-MRCI
   Bernardo de Souza      : ESD, SOC TD-DFT
   Georgi Stoychev        : AutoAux, RI-MP2 NMR, DLPNO-MP2 response
   Willem Van den Heuvel  : Paramagnetic NMR
   Boris Wezisla          : Elementary symmetry handling
   Frank Wennmohs         : Technical directorship


 We gratefully acknowledge several colleagues who have allowed us to
 interface, adapt or use parts of their codes:
   Stefan Grimme, W. Hujo, H. Kruse, P. Pracht,  : VdW corrections, initial TS optimization,
                  C. Bannwarth, S. Ehlert          DFT functionals, gCP, sTDA/sTD-DF
   Ed Valeev, F. Pavosevic, A. Kumar             : LibInt (2-el integral package), F12 methods
   Garnet Chan, S. Sharma, J. Yang, R. Olivares  : DMRG
   Ulf Ekstrom                                   : XCFun DFT Library
   Mihaly Kallay                                 : mrcc  (arbitrary order and MRCC methods)
   Jiri Pittner, Ondrej Demel                    : Mk-CCSD
   Frank Weinhold                                : gennbo (NPA and NBO analysis)
   Christopher J. Cramer and Donald G. Truhlar   : smd solvation model
   Lars Goerigk                                  : TD-DFT with DH, B97 family of functionals
   V. Asgeirsson, H. Jonsson                     : NEB implementation
   FAccTs GmbH                                   : IRC, NEB, NEB-TS, DLPNO-Multilevel, CI-OPT
                                                   MM, QMMM, 2- and 3-layer-ONIOM, Crystal-QMMM,
                                                   LR-CPCM, SF, NACMEs, symmetry and pop. for TD-DFT,
                                                   nearIR, NL-DFT gradient (VV10), updates on ESD,
                                                   ML-optimized integration grids
   S Lehtola, MJT Oliveira, MAL Marques          : LibXC Library
   Liviu Ungur et al                             : ANISO software


 Your calculation uses the libint2 library for the computation of 2-el integrals
 For citations please refer to: http://libint.valeyev.net

 Your ORCA version has been built with support for libXC version: 5.1.0
 For citations please refer to: https://tddft.org/programs/libxc/

 This ORCA versions uses:
   CBLAS   interface :  Fast vector & matrix operations
   LAPACKE interface :  Fast linear algebra routines
   SCALAPACK package :  Parallel linear algebra routines
   Shared memory     :  Shared parallel matrices
   BLAS/LAPACK       :  OpenBLAS 0.3.15  USE64BITINT DYNAMIC_ARCH NO_AFFINITY Haswell SINGLE_THREADED
        Core in use  :  Haswell
   Copyright (c) 2011-2014, The OpenBLAS Project


Your calculation utilizes the atom-pairwise dispersion correction
with the Becke-Johnson damping scheme (D3BJ)
Cite in your paper:
S.Grimme, S.Ehrlich, L.Goerigk, J Comput Chem, (2011), 32, 1456–1465 
S.Grimme, J.Antony, S.Ehrlich and H.Krieg, J.Chem.Phys., 132, (2010), 154104 
   

================================================================================

----- Orbital basis set information -----
Your calculation utilizes the basis: def2-TZVP
   F. Weigend and R. Ahlrichs, Phys. Chem. Chem. Phys. 7, 3297 (2005).

----- AuxJ basis set information -----
Your calculation utilizes the auxiliary basis: def2/J
   F. Weigend, Phys. Chem. Chem. Phys. 8, 1057 (2006).

================================================================================
                                        WARNINGS
                       Please study these warnings very carefully!
================================================================================


WARNING: Geometry Optimization
  ===> : Switching off AutoStart
         For restart on a previous wavefunction, please use MOREAD

INFO   : the flag for use of the SHARK integral package has been found!

================================================================================
                                       INPUT FILE
================================================================================
NAME = 3_CO2Me/3_CO2Me.inp
|  1> %pal nprocs 24 end
|  2> ! PBE0 D3BJ def2-TZVP TightSCF OPT FREQ TightOpt
|  3> ! CPCM(dmso)
|  4> %scf
|  5> MaxIter 800
|  6> end
|  7> 
|  8> %geom
|  9> MaxIter 800
| 10> MaxStep 0.15
| 11> end
| 12> 
| 13> *xyz 0 1
| 14> C      -4.25764700     -0.78197500      0.16513300
| 15> C      -4.00601900     -1.72404200     -0.90186200
| 16> C      -2.71535900     -2.01075200     -1.20480900
| 17> N      -1.67472200     -1.47618700     -0.50528000
| 18> C      -1.82679600     -0.44203500      0.49040400
| 19> C      -3.25338100     -0.18169300      0.83905000
| 20> C      -0.31459300     -1.48592300     -0.94805900
| 21> C       0.53642800     -2.38499600     -0.05787000
| 22> O       0.14018300     -2.95424300      0.92761600
| 23> O       1.75294000     -2.52447300     -0.56529500
| 24> C       2.66724300     -3.33088600      0.16759900
| 25> H      -5.29233000     -0.56529300      0.44663800
| 26> H      -2.42838300     -2.69854700     -2.00432200
| 27> H      -1.23877300     -0.69591500      1.39051900
| 28> H      -3.44340200      0.51205300      1.65914400
| 29> H      -0.23999500     -1.90807100     -1.96068800
| 30> H       2.83266300     -2.90957000      1.16938400
| 31> H       3.60306800     -3.32667700     -0.40161900
| 32> C      -0.97573300      0.75063500     -0.11674200
| 33> C       0.07936900      0.04135000     -1.00907500
| 34> C       1.52933900      0.38783800     -0.81650500
| 35> C       2.29562900      0.83697400     -1.88840200
| 36> C       3.64898900      1.14802400     -1.73174500
| 37> C       4.24088600      1.01128400     -0.47989600
| 38> C       3.49530500      0.56366800      0.61453300
| 39> C       2.14886500      0.24885300      0.43903100
| 40> O       1.33437300     -0.19924400      1.41541700
| 41> C       1.80612500     -0.29623300      2.73979100
| 42> N      -1.92628200      1.54556400     -0.97226200
| 43> O      -2.15495000      1.16958500     -2.09809700
| 44> H      -0.17664000      0.34123100     -2.03125600
| 45> H       1.81931700      0.94639800     -2.86661200
| 46> H       4.23261700      1.49879300     -2.58549900
| 47> H       5.29733200      1.25438300     -0.34075100
| 48> H       3.96812200      0.45941700      1.59166100
| 49> H       0.96448800     -0.65997400      3.34076500
| 50> H       2.12839500      0.68718100      3.11833300
| 51> H       2.64277900     -1.00906300      2.81398100
| 52> O      -2.50314300      2.46152800     -0.42435000
| 53> H       2.28471200     -4.35649400      0.26623500
| 54> H      -4.82030400     -2.19451400     -1.45142200
| 55> C      -0.52084300      1.71011100      0.98000500
| 56> O      -0.87302100      1.63251300      2.12893800
| 57> O       0.27042700      2.64747400      0.49332200
| 58> C       0.76756600      3.61194900      1.41736600
| 59> H      -0.06375900      4.15372200      1.88956300
| 60> H       1.36900900      3.11782100      2.19356600
| 61> H       1.39029900      4.29808000      0.83386000
| 62> *
| 63> 
| 64>                          ****END OF INPUT****
================================================================================

                       *****************************
                       * Geometry Optimization Run *
                       *****************************

Geometry optimization settings:
Update method            Update   .... BFGS
Choice of coordinates    CoordSys .... Z-matrix Internals
Initial Hessian          InHess   .... Almoef's Model

Convergence Tolerances:
Energy Change            TolE     ....  1.0000e-06 Eh
Max. Gradient            TolMAXG  ....  1.0000e-04 Eh/bohr
RMS Gradient             TolRMSG  ....  3.0000e-05 Eh/bohr
Max. Displacement        TolMAXD  ....  1.0000e-03 bohr
RMS Displacement         TolRMSD  ....  6.0000e-04 bohr
Strict Convergence                ....  False
------------------------------------------------------------------------------
                        ORCA OPTIMIZATION COORDINATE SETUP
------------------------------------------------------------------------------

The optimization will be done in new redundant internal coordinates
Making redundant internal coordinates   ...  (new redundants) done
Evaluating the initial hessian          ...  (Almloef) done
Evaluating the coordinates              ...  done
Calculating the B-matrix                .... done
Calculating the G-matrix                .... done
Diagonalizing the G-matrix              .... done
Small eigenvalue found = 3.496e-03
Small eigenvalue found = 5.384e-03
Small eigenvalue found = 9.262e-03
Small eigenvalue found = 9.639e-03
Small eigenvalue found = 1.111e-02
Small eigenvalue found = 2.179e-02
Small eigenvalue found = 2.294e-02
The first mode is                       ....  123
The number of degrees of freedom        ....  138

    -----------------------------------------------------------------
                    Redundant Internal Coordinates


    -----------------------------------------------------------------
         Definition                    Initial Value    Approx d2E/dq
    -----------------------------------------------------------------
      1. B(C   1,C   0)                  1.4454         0.509676   
      2. B(C   2,C   1)                  1.3564         0.706916   
      3. B(N   3,C   2)                  1.3631         0.617735   
      4. B(C   4,N   3)                  1.4436         0.459577   
      5. B(C   5,C   0)                  1.3502         0.723152   
      6. B(C   5,C   4)                  1.4915         0.430381   
      7. B(C   6,N   3)                  1.4304         0.482380   
      8. B(C   7,C   6)                  1.5248         0.380784   
      9. B(O   8,C   7)                  1.2051         1.103805   
     10. B(O   9,C   7)                  1.3255         0.709333   
     11. B(C  10,O   9)                  1.4225         0.496697   
     12. B(H  11,C   0)                  1.0940         0.354889   
     13. B(H  12,C   2)                  1.0930         0.356160   
     14. B(H  13,C   4)                  1.1047         0.341129   
     15. B(H  14,C   5)                  1.0908         0.358982   
     16. B(H  15,C   6)                  1.0996         0.347580   
     17. B(H  16,C  10)                  1.0993         0.348015   
     18. B(H  17,C  10)                  1.0954         0.353090   
     19. B(C  18,C   4)                  1.5860         0.304112   
     20. B(C  19,C  18)                  1.5532         0.342992   
     21. B(C  19,C   6)                  1.5784         0.312669   
     22. B(C  20,C  19)                  1.5032         0.412256   
     23. B(C  21,C  20)                  1.3921         0.620041   
     24. B(C  22,C  21)                  1.3975         0.607920   
     25. B(C  23,C  22)                  1.3915         0.621450   
     26. B(C  24,C  23)                  1.3979         0.607003   
     27. B(C  25,C  24)                  1.3938         0.616028   
     28. B(C  25,C  20)                  1.4069         0.587085   
     29. B(O  26,C  25)                  1.3482         0.652588   
     30. B(C  27,O  26)                  1.4092         0.521433   
     31. B(N  28,C  18)                  1.5058         0.365728   
     32. B(O  29,N  28)                  1.2088         0.975291   
     33. B(H  30,C  19)                  1.0956         0.352777   
     34. B(H  31,C  21)                  1.0935         0.355500   
     35. B(H  32,C  22)                  1.0920         0.357408   
     36. B(H  33,C  23)                  1.0929         0.356220   
     37. B(H  34,C  24)                  1.0905         0.359431   
     38. B(H  35,C  27)                  1.0963         0.351887   
     39. B(H  36,C  27)                  1.1019         0.344656   
     40. B(H  37,C  27)                  1.1016         0.345021   
     41. B(O  38,N  28)                  1.2132         0.959427   
     42. B(H  39,C  10)                  1.0991         0.348313   
     43. B(H  40,C   1)                  1.0892         0.361121   
     44. B(C  41,C  18)                  1.5266         0.378331   
     45. B(O  42,C  41)                  1.2042         1.107407   
     46. B(O  43,C  41)                  1.3197         0.724484   
     47. B(C  44,O  43)                  1.4252         0.491704   
     48. B(H  45,C  44)                  1.0989         0.348512   
     49. B(H  46,C  44)                  1.0993         0.348050   
     50. B(H  47,C  44)                  1.0950         0.353530   
     51. A(C   1,C   0,H  11)          118.9270         0.340629   
     52. A(C   1,C   0,C   5)          121.9191         0.430798   
     53. A(C   5,C   0,H  11)          119.1426         0.361364   
     54. A(C   0,C   1,C   2)          117.9232         0.429046   
     55. A(C   2,C   1,H  40)          120.4885         0.361037   
     56. A(C   0,C   1,H  40)          121.5884         0.341622   
     57. A(N   3,C   2,H  12)          114.9438         0.349870   
     58. A(C   1,C   2,H  12)          123.1086         0.360187   
     59. A(C   1,C   2,N   3)          121.9330         0.441249   
     60. A(C   4,N   3,C   6)          108.5748         0.388656   
     61. A(C   2,N   3,C   4)          123.6746         0.405909   
     62. A(C   2,N   3,C   6)          124.3604         0.409401   
     63. A(C   5,C   4,H  13)          111.0248         0.329022   
     64. A(C   5,C   4,C  18)          118.1309         0.359395   
     65. A(N   3,C   4,C  18)          102.6000         0.361184   
     66. A(N   3,C   4,C   5)          112.7702         0.383442   
     67. A(N   3,C   4,H  13)          109.9543         0.330610   
     68. A(H  13,C   4,C  18)          101.4846         0.310878   
     69. A(C   0,C   5,H  14)          121.8985         0.362071   
     70. A(C   4,C   5,H  14)          116.9601         0.331809   
     71. A(C   0,C   5,C   4)          121.1414         0.417963   
     72. A(C   7,C   6,C  19)          116.9868         0.353662   
     73. A(N   3,C   6,C  19)          104.0462         0.365918   
     74. A(C   7,C   6,H  15)          105.8664         0.323454   
     75. A(N   3,C   6,H  15)          110.6202         0.334310   
     76. A(N   3,C   6,C   7)          110.7318         0.378550   
     77. A(H  15,C   6,C  19)          108.5979         0.313225   
     78. A(C   6,C   7,O   8)          124.9200         0.438215   
     79. A(C   6,C   7,O   9)          110.5359         0.404956   
     80. A(O   8,C   7,O   9)          124.4123         0.487708   
     81. A(C   7,O   9,C  10)          116.8940         0.421782   
     82. A(H  16,C  10,H  39)          109.1618         0.287783   
     83. A(H  16,C  10,H  17)          110.0925         0.288397   
     84. A(O   9,C  10,H  17)          106.2139         0.336820   
     85. A(H  17,C  10,H  39)          110.3398         0.288435   
     86. A(O   9,C  10,H  39)          110.5823         0.336058   
     87. A(O   9,C  10,H  16)          110.4246         0.336010   
     88. A(C  19,C  18,N  28)          110.0890         0.354605   
     89. A(C   4,C  18,N  28)          106.0067         0.347470   
     90. A(C  19,C  18,C  41)          119.8241         0.358871   
     91. A(C   4,C  18,C  41)          110.9478         0.351621   
     92. A(C   4,C  18,C  19)          103.9480         0.345856   
     93. A(N  28,C  18,C  41)          105.3366         0.360566   
     94. A(C  20,C  19,H  30)          106.3696         0.328509   
     95. A(C  18,C  19,H  30)          104.6124         0.318743   
     96. A(C   6,C  19,H  30)          104.0392         0.313979   
     97. A(C  18,C  19,C  20)          118.4496         0.364167   
     98. A(C   6,C  19,C  20)          117.3118         0.358462   
     99. A(C   6,C  19,C  18)          104.4829         0.347474   
    100. A(C  21,C  20,C  25)          118.4646         0.429837   
    101. A(C  19,C  20,C  25)          121.0843         0.399762   
    102. A(C  19,C  20,C  21)          120.4446         0.403627   
    103. A(C  22,C  21,H  31)          119.9901         0.350973   
    104. A(C  20,C  21,H  31)          118.7721         0.352146   
    105. A(C  20,C  21,C  22)          121.2378         0.432538   
    106. A(C  23,C  22,H  32)          120.5029         0.352601   
    107. A(C  21,C  22,H  32)          120.0945         0.351290   
    108. A(C  21,C  22,C  23)          119.4022         0.432714   
    109. A(C  24,C  23,H  33)          119.1505         0.351003   
    110. A(C  22,C  23,H  33)          120.2551         0.352402   
    111. A(C  22,C  23,C  24)          120.5944         0.432597   
    112. A(C  25,C  24,H  34)          120.6677         0.352414   
    113. A(C  23,C  24,H  34)          120.0585         0.351536   
    114. A(C  23,C  24,C  25)          119.2732         0.431916   
    115. A(C  24,C  25,O  26)          124.5751         0.434714   
    116. A(C  20,C  25,O  26)          114.4000         0.430969   
    117. A(C  20,C  25,C  24)          121.0247         0.429336   
    118. A(C  25,O  26,C  27)          120.0834         0.419173   
    119. A(O  26,C  27,H  36)          111.0586         0.338194   
    120. A(O  26,C  27,H  35)          106.3211         0.339368   
    121. A(H  36,C  27,H  37)          109.4036         0.286921   
    122. A(H  35,C  27,H  37)          109.3564         0.287854   
    123. A(O  26,C  27,H  37)          111.2267         0.338254   
    124. A(H  35,C  27,H  36)          109.4095         0.287806   
    125. A(C  18,N  28,O  29)          118.9722         0.419911   
    126. A(O  29,N  28,O  38)          124.4369         0.497181   
    127. A(C  18,N  28,O  38)          116.2396         0.418685   
    128. A(O  42,C  41,O  43)          124.9582         0.489915   
    129. A(C  18,C  41,O  43)          111.1091         0.406007   
    130. A(C  18,C  41,O  42)          123.9053         0.437962   
    131. A(C  41,O  43,C  44)          116.7892         0.422614   
    132. A(H  46,C  44,H  47)          110.2902         0.288458   
    133. A(H  45,C  44,H  47)          110.5044         0.288517   
    134. A(O  43,C  44,H  47)          106.0761         0.336324   
    135. A(H  45,C  44,H  46)          109.3967         0.287813   
    136. A(O  43,C  44,H  46)          110.1493         0.335451   
    137. A(O  43,C  44,H  45)          110.3864         0.335525   
    138. D(H  40,C   1,C   0,H  11)      2.1120         0.017703   
    139. D(C   2,C   1,C   0,H  11)   -177.8812         0.017703   
    140. D(C   2,C   1,C   0,C   5)      0.8868         0.017703   
    141. D(H  40,C   1,C   0,C   5)   -179.1200         0.017703   
    142. D(N   3,C   2,C   1,H  40)   -177.6106         0.035255   
    143. D(H  12,C   2,C   1,C   0)   -179.0760         0.035255   
    144. D(H  12,C   2,C   1,H  40)      0.9307         0.035255   
    145. D(N   3,C   2,C   1,C   0)      2.3827         0.035255   
    146. D(C   6,N   3,C   2,C   1)   -165.0408         0.030882   
    147. D(C   6,N   3,C   2,H  12)     16.3067         0.030882   
    148. D(C   4,N   3,C   2,C   1)     -8.2289         0.030882   
    149. D(C   4,N   3,C   2,H  12)    173.1186         0.030882   
    150. D(C   5,C   4,N   3,C   6)    169.6296         0.018029   
    151. D(C   5,C   4,N   3,C   2)      9.6836         0.018029   
    152. D(H  13,C   4,N   3,C   2)    134.1793         0.018029   
    153. D(C  18,C   4,N   3,C   6)     41.4751         0.018029   
    154. D(C  18,C   4,N   3,C   2)   -118.4709         0.018029   
    155. D(H  13,C   4,N   3,C   6)    -65.8746         0.018029   
    156. D(H  14,C   5,C   4,H  13)     49.8611         0.013679   
    157. D(C   0,C   5,C   4,C  18)    113.2996         0.013679   
    158. D(H  14,C   5,C   4,N   3)    173.7683         0.013679   
    159. D(H  14,C   5,C   0,H  11)      0.1721         0.037041   
    160. D(C   0,C   5,C   4,N   3)     -6.2179         0.013679   
    161. D(C   0,C   5,C   4,H  13)   -130.1250         0.013679   
    162. D(H  14,C   5,C   4,C  18)    -66.7142         0.013679   
    163. D(C   4,C   5,C   0,H  11)   -179.8425         0.037041   
    164. D(H  14,C   5,C   0,C   1)   -178.5934         0.037041   
    165. D(C   4,C   5,C   0,C   1)      1.3921         0.037041   
    166. D(C   7,C   6,N   3,C   2)   -112.4370         0.019909   
    167. D(H  15,C   6,N   3,C   2)      4.6122         0.019909   
    168. D(C   7,C   6,N   3,C   4)     87.7867         0.019909   
    169. D(C  19,C   6,N   3,C   4)    -38.7155         0.019909   
    170. D(C  19,C   6,N   3,C   2)    121.0608         0.019909   
    171. D(H  15,C   6,N   3,C   4)   -155.1641         0.019909   
    172. D(O   9,C   7,C   6,C  19)    -68.8390         0.010817   
    173. D(O   9,C   7,C   6,N   3)    172.2163         0.010817   
    174. D(O   9,C   7,C   6,H  15)     52.2793         0.010817   
    175. D(O   8,C   7,C   6,C  19)    115.1887         0.010817   
    176. D(O   8,C   7,C   6,H  15)   -123.6930         0.010817   
    177. D(O   8,C   7,C   6,N   3)     -3.7560         0.010817   
    178. D(C  10,O   9,C   7,O   8)     -4.5690         0.037776   
    179. D(C  10,O   9,C   7,C   6)    179.4340         0.037776   
    180. D(H  39,C  10,O   9,C   7)     60.2241         0.019496   
    181. D(H  17,C  10,O   9,C   7)    179.9508         0.019496   
    182. D(H  16,C  10,O   9,C   7)    -60.7051         0.019496   
    183. D(C  41,C  18,C   4,H  13)    -42.8726         0.007677   
    184. D(C  41,C  18,C   4,C   5)     78.7127         0.007677   
    185. D(C  41,C  18,C   4,N   3)   -156.5916         0.007677   
    186. D(N  28,C  18,C   4,C   5)    -35.1440         0.007677   
    187. D(N  28,C  18,C   4,N   3)     89.5517         0.007677   
    188. D(C  19,C  18,C   4,H  13)     87.2027         0.007677   
    189. D(N  28,C  18,C   4,H  13)   -156.7292         0.007677   
    190. D(C  19,C  18,C   4,N   3)    -26.5164         0.007677   
    191. D(C  19,C  18,C   4,C   5)   -151.2121         0.007677   
    192. D(H  30,C  19,C   6,C   7)    147.1697         0.008058   
    193. D(H  30,C  19,C   6,N   3)    -90.3577         0.008058   
    194. D(C  20,C  19,C   6,H  15)    -89.6389         0.008058   
    195. D(C  20,C  19,C   6,C   7)     30.0349         0.008058   
    196. D(C  20,C  19,C   6,N   3)    152.5075         0.008058   
    197. D(C  18,C  19,C   6,H  15)    136.9572         0.008058   
    198. D(C  18,C  19,C   6,C   7)   -103.3690         0.008058   
    199. D(H  30,C  19,C   6,H  15)     27.4959         0.008058   
    200. D(C  18,C  19,C   6,N   3)     19.1036         0.008058   
    201. D(H  30,C  19,C  18,C  41)   -121.8044         0.009511   
    202. D(H  30,C  19,C  18,C   4)    113.6547         0.009511   
    203. D(C  20,C  19,C  18,C  41)     -3.6067         0.009511   
    204. D(C  20,C  19,C  18,N  28)    118.6881         0.009511   
    205. D(C  20,C  19,C  18,C   4)   -128.1477         0.009511   
    206. D(C   6,C  19,C  18,C  41)    129.1535         0.009511   
    207. D(H  30,C  19,C  18,N  28)      0.4905         0.009511   
    208. D(C   6,C  19,C  18,N  28)   -108.5517         0.009511   
    209. D(C   6,C  19,C  18,C   4)      4.6125         0.009511   
    210. D(C  25,C  20,C  19,H  30)    173.8805         0.012582   
    211. D(C  25,C  20,C  19,C  18)     56.6092         0.012582   
    212. D(C  25,C  20,C  19,C   6)    -70.2551         0.012582   
    213. D(C  21,C  20,C  19,H  30)     -7.0660         0.012582   
    214. D(C  21,C  20,C  19,C  18)   -124.3373         0.012582   
    215. D(C  21,C  20,C  19,C   6)    108.7984         0.012582   
    216. D(H  31,C  21,C  20,C  25)    179.9725         0.026603   
    217. D(H  31,C  21,C  20,C  19)      0.8945         0.026603   
    218. D(C  22,C  21,C  20,C  25)     -0.1266         0.026603   
    219. D(C  22,C  21,C  20,C  19)   -179.2046         0.026603   
    220. D(H  32,C  22,C  21,H  31)     -0.1058         0.025514   
    221. D(H  32,C  22,C  21,C  20)    179.9945         0.025514   
    222. D(C  23,C  22,C  21,H  31)    179.6504         0.025514   
    223. D(C  23,C  22,C  21,C  20)     -0.2493         0.025514   
    224. D(H  33,C  23,C  22,H  32)     -0.0052         0.026732   
    225. D(H  33,C  23,C  22,C  21)   -179.7604         0.026732   
    226. D(C  24,C  23,C  22,H  32)    179.9387         0.026732   
    227. D(C  24,C  23,C  22,C  21)      0.1835         0.026732   
    228. D(H  34,C  24,C  23,H  33)     -0.0743         0.025433   
    229. D(H  34,C  24,C  23,C  22)    179.9812         0.025433   
    230. D(C  25,C  24,C  23,H  33)   -179.7971         0.025433   
    231. D(C  25,C  24,C  23,C  22)      0.2584         0.025433   
    232. D(O  26,C  25,C  24,H  34)     -0.1782         0.026239   
    233. D(O  26,C  25,C  24,C  23)    179.5429         0.026239   
    234. D(C  20,C  25,C  24,H  34)    179.6326         0.026239   
    235. D(C  20,C  25,C  24,C  23)     -0.6464         0.026239   
    236. D(O  26,C  25,C  20,C  21)   -179.5919         0.023707   
    237. D(O  26,C  25,C  20,C  19)     -0.5201         0.023707   
    238. D(C  24,C  25,C  20,C  21)      0.5793         0.023707   
    239. D(C  24,C  25,C  20,C  19)    179.6511         0.023707   
    240. D(C  27,O  26,C  25,C  24)      4.1330         0.031495   
    241. D(C  27,O  26,C  25,C  20)   -175.6890         0.031495   
    242. D(H  37,C  27,O  26,C  25)    -62.1767         0.021561   
    243. D(H  36,C  27,O  26,C  25)     59.9274         0.021561   
    244. D(H  35,C  27,O  26,C  25)    178.8613         0.021561   
    245. D(O  38,N  28,C  18,C  41)    -26.4854         0.011490   
    246. D(O  38,N  28,C  18,C  19)   -156.9829         0.011490   
    247. D(O  38,N  28,C  18,C   4)     91.1827         0.011490   
    248. D(O  29,N  28,C  18,C  41)    160.0155         0.011490   
    249. D(O  29,N  28,C  18,C  19)     29.5180         0.011490   
    250. D(O  29,N  28,C  18,C   4)    -82.3164         0.011490   
    251. D(O  43,C  41,C  18,N  28)    -70.4366         0.010687   
    252. D(O  43,C  41,C  18,C  19)     54.1574         0.010687   
    253. D(O  43,C  41,C  18,C   4)    175.2858         0.010687   
    254. D(O  42,C  41,C  18,N  28)    107.7447         0.010687   
    255. D(O  42,C  41,C  18,C  19)   -127.6614         0.010687   
    256. D(O  42,C  41,C  18,C   4)     -6.5330         0.010687   
    257. D(C  44,O  43,C  41,O  42)      1.8476         0.039575   
    258. D(C  44,O  43,C  41,C  18)   -179.9942         0.039575   
    259. D(H  47,C  44,O  43,C  41)   -179.6956         0.019095   
    260. D(H  46,C  44,O  43,C  41)     60.9536         0.019095   
    261. D(H  45,C  44,O  43,C  41)    -59.9606         0.019095   
    -----------------------------------------------------------------

Number of atoms                         .... 48
Number of degrees of freedom            .... 261

         *************************************************************
         *                GEOMETRY OPTIMIZATION CYCLE   1            *
         *************************************************************
---------------------------------
CARTESIAN COORDINATES (ANGSTROEM)
---------------------------------
  C     -4.257647   -0.781975    0.165133
  C     -4.006019   -1.724042   -0.901862
  C     -2.715359   -2.010752   -1.204809
  N     -1.674722   -1.476187   -0.505280
  C     -1.826796   -0.442035    0.490404
  C     -3.253381   -0.181693    0.839050
  C     -0.314593   -1.485923   -0.948059
  C      0.536428   -2.384996   -0.057870
  O      0.140183   -2.954243    0.927616
  O      1.752940   -2.524473   -0.565295
  C      2.667243   -3.330886    0.167599
  H     -5.292330   -0.565293    0.446638
  H     -2.428383   -2.698547   -2.004322
  H     -1.238773   -0.695915    1.390519
  H     -3.443402    0.512053    1.659144
  H     -0.239995   -1.908071   -1.960688
  H      2.832663   -2.909570    1.169384
  H      3.603068   -3.326677   -0.401619
  C     -0.975733    0.750635   -0.116742
  C      0.079369    0.041350   -1.009075
  C      1.529339    0.387838   -0.816505
  C      2.295629    0.836974   -1.888402
  C      3.648989    1.148024   -1.731745
  C      4.240886    1.011284   -0.479896
  C      3.495305    0.563668    0.614533
  C      2.148865    0.248853    0.439031
  O      1.334373   -0.199244    1.415417
  C      1.806125   -0.296233    2.739791
  N     -1.926282    1.545564   -0.972262
  O     -2.154950    1.169585   -2.098097
  H     -0.176640    0.341231   -2.031256
  H      1.819317    0.946398   -2.866612
  H      4.232617    1.498793   -2.585499
  H      5.297332    1.254383   -0.340751
  H      3.968122    0.459417    1.591661
  H      0.964488   -0.659974    3.340765
  H      2.128395    0.687181    3.118333
  H      2.642779   -1.009063    2.813981
  O     -2.503143    2.461528   -0.424350
  H      2.284712   -4.356494    0.266235
  H     -4.820304   -2.194514   -1.451422
  C     -0.520843    1.710111    0.980005
  O     -0.873021    1.632513    2.128938
  O      0.270427    2.647474    0.493322
  C      0.767566    3.611949    1.417366
  H     -0.063759    4.153722    1.889563
  H      1.369009    3.117821    2.193566
  H      1.390299    4.298080    0.833860

----------------------------
CARTESIAN COORDINATES (A.U.)
----------------------------
  NO LB      ZA    FRAG     MASS         X           Y           Z
   0 C     6.0000    0    12.011   -8.045787   -1.477719    0.312056
   1 C     6.0000    0    12.011   -7.570279   -3.257967   -1.704272
   2 C     6.0000    0    12.011   -5.131285   -3.799771   -2.276759
   3 N     7.0000    0    14.007   -3.164766   -2.789589   -0.954841
   4 C     6.0000    0    12.011   -3.452144   -0.835325    0.926729
   5 C     6.0000    0    12.011   -6.147999   -0.343350    1.585575
   6 C     6.0000    0    12.011   -0.594495   -2.807988   -1.791572
   7 C     6.0000    0    12.011    1.013702   -4.506989   -0.109358
   8 O     8.0000    0    15.999    0.264907   -5.582710    1.752940
   9 O     8.0000    0    15.999    3.312577   -4.770563   -1.068253
  10 C     6.0000    0    12.011    5.040359   -6.294462    0.316716
  11 H     1.0000    0     1.008  -10.001054   -1.068249    0.844024
  12 H     1.0000    0     1.008   -4.588979   -5.099515   -3.787620
  13 H     1.0000    0     1.008   -2.340942   -1.315089    2.627700
  14 H     1.0000    0     1.008   -6.507087    0.967640    3.135328
  15 H     1.0000    0     1.008   -0.453525   -3.605732   -3.705163
  16 H     1.0000    0     1.008    5.352957   -5.498290    2.209816
  17 H     1.0000    0     1.008    6.808812   -6.286508   -0.758950
  18 C     6.0000    0    12.011   -1.843868    1.418495   -0.220610
  19 C     6.0000    0    12.011    0.149986    0.078140   -1.906875
  20 C     6.0000    0    12.011    2.890032    0.732908   -1.542971
  21 C     6.0000    0    12.011    4.338110    1.581652   -3.568563
  22 C     6.0000    0    12.011    6.895590    2.169451   -3.272524
  23 C     6.0000    0    12.011    8.014113    1.911050   -0.906872
  24 C     6.0000    0    12.011    6.605169    1.065178    1.161299
  25 C     6.0000    0    12.011    4.060766    0.470264    0.829648
  26 O     8.0000    0    15.999    2.521600   -0.376517    2.674750
  27 C     6.0000    0    12.011    3.413082   -0.559799    5.177455
  28 N     7.0000    0    14.007   -3.640145    2.920693   -1.837309
  29 O     8.0000    0    15.999   -4.072265    2.210195   -3.964829
  30 H     1.0000    0     1.008   -0.333801    0.644833   -3.838518
  31 H     1.0000    0     1.008    3.438011    1.788433   -5.417112
  32 H     1.0000    0     1.008    7.998487    2.832308   -4.885885
  33 H     1.0000    0     1.008   10.010507    2.370440   -0.643926
  34 H     1.0000    0     1.008    7.498664    0.868172    3.007803
  35 H     1.0000    0     1.008    1.822618   -1.247170    6.313131
  36 H     1.0000    0     1.008    4.022084    1.298584    5.892795
  37 H     1.0000    0     1.008    4.994129   -1.906853    5.317653
  38 O     8.0000    0    15.999   -4.730255    4.651614   -0.801905
  39 H     1.0000    0     1.008    4.317480   -8.232581    0.503111
  40 H     1.0000    0     1.008   -9.109054   -4.147030   -2.742790
  41 C     6.0000    0    12.011   -0.984251    3.231641    1.851941
  42 O     8.0000    0    15.999   -1.649771    3.085002    4.023110
  43 O     8.0000    0    15.999    0.511033    5.003001    0.932243
  44 C     6.0000    0    12.011    1.450490    6.825594    2.678434
  45 H     1.0000    0     1.008   -0.120487    7.849397    3.570757
  46 H     1.0000    0     1.008    2.587052    5.891828    4.145239
  47 H     1.0000    0     1.008    2.627284    8.122194    1.575767

--------------------------------
INTERNAL COORDINATES (ANGSTROEM)
--------------------------------
 C      0   0   0     0.000000000000     0.00000000     0.00000000
 C      1   0   0     1.445435994051     0.00000000     0.00000000
 C      2   1   0     1.356385912825   117.92316508     0.00000000
 N      3   2   1     1.363094247231   121.93297367     2.38267709
 C      4   3   2     1.443600875740   123.67461399   351.77109353
 C      1   2   3     1.350204725651   121.91909029     0.88679323
 C      4   3   2     1.430419144579   124.36043596   194.95915533
 C      7   4   3     1.524796857778   110.73177059   247.56303452
 O      8   7   4     1.205087093629   124.91996610   356.24404072
 O      8   7   4     1.325456679902   110.53589137   172.21631447
 C     10   8   7     1.422457562676   116.89403132   179.43404393
 H      1   2   3     1.093967579336   118.92704874   182.11876137
 H      3   2   1     1.092995070332   123.10864747   180.92401839
 H      5   4   3     1.104732146791   109.95433771   134.17933207
 H      6   1   2     1.090846305303   121.89853947   181.40663376
 H      7   4   3     1.099632341807   110.62022486     4.61218479
 H     11  10   8     1.099292560914   110.42464812   299.29491033
 H     11  10   8     1.095351668566   106.21391447   179.95079368
 C      5   4   3     1.586000070676   102.60004762   241.52908692
 C     19   5   4     1.553249376152   103.94795129   333.48363965
 C     20  19   5     1.503180009162   118.44958941   231.85233555
 C     21  20  19     1.392079986640   120.44455548   235.66268984
 C     22  21  20     1.397453687157   121.23778043   180.79541178
 C     23  22  21     1.391461751185   119.40215308   359.75072679
 C     24  23  22     1.397864781393   120.59438014     0.18347701
 C     25  24  23     1.393847233318   119.27316865     0.25842198
 O     26  25  24     1.348153463249   124.57511309   179.54288957
 C     27  26  25     1.409227911837   120.08342805     4.13295301
 N     19   5   4     1.505778863858   106.00670995    89.55172011
 O     29  19   5     1.208781911633   118.97220627   277.68359888
 H     20  19   5     1.095592633693   104.61236933   113.65472332
 H     22  21  20     1.093499674083   118.77205326     0.89454129
 H     23  22  21     1.092042318897   120.09453919   179.99451849
 H     24  23  22     1.092948583302   120.25509703   180.23960209
 H     25  24  23     1.090505990297   120.05853493   179.98122285
 H     28  27  26     1.096280120921   106.32105532   178.86125298
 H     28  27  26     1.101932436250   111.05858678    59.92740994
 H     28  27  26     1.101644534646   111.22670338   297.82333107
 O     29  19   5     1.213246150771   116.23960684    91.18270308
 H     11  10   8     1.099059050334   110.58227465    60.22406160
 H      2   1   3     1.089229157528   121.58837133   179.99320392
 C     19   5   4     1.526555956618   110.94783380   203.40841171
 O     42  19   5     1.204200079628   123.90533772   353.46703565
 O     42  19   5     1.319703735373   111.10914085   175.28580895
 C     44  42  19     1.425207537477   116.78921780   180.00577228
 H     45  44  42     1.098903656361   110.38640319   300.03939525
 H     45  44  42     1.099264573537   110.14926319    60.95361602
 H     45  44  42     1.095012050384   106.07605016   180.30437227

---------------------------
INTERNAL COORDINATES (A.U.)
---------------------------
 C      0   0   0     0.000000000000     0.00000000     0.00000000
 C      1   0   0     2.731478172868     0.00000000     0.00000000
 C      2   1   0     2.563197907147   117.92316508     0.00000000
 N      3   2   1     2.575874821991   121.93297367     2.38267709
 C      4   3   2     2.728010301837   123.67461399   351.77109353
 C      1   2   3     2.551517156206   121.91909029     0.88679323
 C      4   3   2     2.703100439972   124.36043596   194.95915533
 C      7   4   3     2.881448471065   110.73177059   247.56303452
 O      8   7   4     2.277284574481   124.91996610   356.24404072
 O      8   7   4     2.504750127392   110.53589137   172.21631447
 C     10   8   7     2.688055230583   116.89403132   179.43404393
 H      1   2   3     2.067299124334   118.92704874   182.11876137
 H      3   2   1     2.065461348653   123.10864747   180.92401839
 H      5   4   3     2.087641208774   109.95433771   134.17933207
 H      6   1   2     2.061400771222   121.89853947   181.40663376
 H      7   4   3     2.078003974019   110.62022486     4.61218479
 H     11  10   8     2.077361881185   110.42464812   299.29491033
 H     11  10   8     2.069914673923   106.21391447   179.95079368
 C      5   4   3     2.997105781958   102.60004762   241.52908692
 C     19   5   4     2.935215938612   103.94795129   333.48363965
 C     20  19   5     2.840598547301   118.44958941   231.85233555
 C     21  20  19     2.630649931263   120.44455548   235.66268984
 C     22  21  20     2.640804753565   121.23778043   180.79541178
 C     23  22  21     2.629481635566   119.40215308   359.75072679
 C     24  23  22     2.641581609086   120.59438014     0.18347701
 C     25  24  23     2.633989543495   119.27316865     0.25842198
 O     26  25  24     2.547640832037   124.57511309   179.54288957
 C     27  26  25     2.663054813650   120.08342805     4.13295301
 N     19   5   4     2.845509670939   106.00670995    89.55172011
 O     29  19   5     2.284266768623   118.97220627   277.68359888
 H     20  19   5     2.070370032022   104.61236933   113.65472332
 H     22  21  20     2.066414911549   118.77205326     0.89454129
 H     23  22  21     2.063660909367   120.09453919   179.99451849
 H     24  23  22     2.065373500898   120.25509703   180.23960209
 H     25  24  23     2.060757669062   120.05853493   179.98122285
 H     28  27  26     2.071669194602   106.32105532   178.86125298
 H     28  27  26     2.082350522597   111.05858678    59.92740994
 H     28  27  26     2.081806467413   111.22670338   297.82333107
 O     29  19   5     2.292702957992   116.23960684    91.18270308
 H     11  10   8     2.076920610139   110.58227465    60.22406160
 H      2   1   3     2.058344804810   121.58837133   179.99320392
 C     19   5   4     2.884772686114   110.94783380   203.40841171
 O     42  19   5     2.275608360944   123.90533772   353.46703565
 O     42  19   5     2.493878637768   111.10914085   175.28580895
 C     44  42  19     2.693251929832   116.78921780   180.00577228
 H     45  44  42     2.076626958087   110.38640319   300.03939525
 H     45  44  42     2.077308992706   110.14926319    60.95361602
 H     45  44  42     2.069272888569   106.07605016   180.30437227

---------------------
BASIS SET INFORMATION
---------------------
There are 4 groups of distinct atoms

 Group   1 Type C   : 11s6p2d1f contracted to 5s3p2d1f pattern {62111/411/11/1}
 Group   2 Type N   : 11s6p2d1f contracted to 5s3p2d1f pattern {62111/411/11/1}
 Group   3 Type O   : 11s6p2d1f contracted to 5s3p2d1f pattern {62111/411/11/1}
 Group   4 Type H   : 5s1p contracted to 3s1p pattern {311/1}

Atom   0C    basis set group =>   1
Atom   1C    basis set group =>   1
Atom   2C    basis set group =>   1
Atom   3N    basis set group =>   2
Atom   4C    basis set group =>   1
Atom   5C    basis set group =>   1
Atom   6C    basis set group =>   1
Atom   7C    basis set group =>   1
Atom   8O    basis set group =>   3
Atom   9O    basis set group =>   3
Atom  10C    basis set group =>   1
Atom  11H    basis set group =>   4
Atom  12H    basis set group =>   4
Atom  13H    basis set group =>   4
Atom  14H    basis set group =>   4
Atom  15H    basis set group =>   4
Atom  16H    basis set group =>   4
Atom  17H    basis set group =>   4
Atom  18C    basis set group =>   1
Atom  19C    basis set group =>   1
Atom  20C    basis set group =>   1
Atom  21C    basis set group =>   1
Atom  22C    basis set group =>   1
Atom  23C    basis set group =>   1
Atom  24C    basis set group =>   1
Atom  25C    basis set group =>   1
Atom  26O    basis set group =>   3
Atom  27C    basis set group =>   1
Atom  28N    basis set group =>   2
Atom  29O    basis set group =>   3
Atom  30H    basis set group =>   4
Atom  31H    basis set group =>   4
Atom  32H    basis set group =>   4
Atom  33H    basis set group =>   4
Atom  34H    basis set group =>   4
Atom  35H    basis set group =>   4
Atom  36H    basis set group =>   4
Atom  37H    basis set group =>   4
Atom  38O    basis set group =>   3
Atom  39H    basis set group =>   4
Atom  40H    basis set group =>   4
Atom  41C    basis set group =>   1
Atom  42O    basis set group =>   3
Atom  43O    basis set group =>   3
Atom  44C    basis set group =>   1
Atom  45H    basis set group =>   4
Atom  46H    basis set group =>   4
Atom  47H    basis set group =>   4
---------------------------------
AUXILIARY/J BASIS SET INFORMATION
---------------------------------
There are 4 groups of distinct atoms

 Group   1 Type C   : 12s5p4d2f1g contracted to 6s4p3d1f1g pattern {711111/2111/211/2/1}
 Group   2 Type N   : 12s5p4d2f1g contracted to 6s4p3d1f1g pattern {711111/2111/211/2/1}
 Group   3 Type O   : 12s5p4d2f1g contracted to 6s4p3d1f1g pattern {711111/2111/211/2/1}
 Group   4 Type H   : 5s2p1d contracted to 3s1p1d pattern {311/2/1}

Atom   0C    basis set group =>   1
Atom   1C    basis set group =>   1
Atom   2C    basis set group =>   1
Atom   3N    basis set group =>   2
Atom   4C    basis set group =>   1
Atom   5C    basis set group =>   1
Atom   6C    basis set group =>   1
Atom   7C    basis set group =>   1
Atom   8O    basis set group =>   3
Atom   9O    basis set group =>   3
Atom  10C    basis set group =>   1
Atom  11H    basis set group =>   4
Atom  12H    basis set group =>   4
Atom  13H    basis set group =>   4
Atom  14H    basis set group =>   4
Atom  15H    basis set group =>   4
Atom  16H    basis set group =>   4
Atom  17H    basis set group =>   4
Atom  18C    basis set group =>   1
Atom  19C    basis set group =>   1
Atom  20C    basis set group =>   1
Atom  21C    basis set group =>   1
Atom  22C    basis set group =>   1
Atom  23C    basis set group =>   1
Atom  24C    basis set group =>   1
Atom  25C    basis set group =>   1
Atom  26O    basis set group =>   3
Atom  27C    basis set group =>   1
Atom  28N    basis set group =>   2
Atom  29O    basis set group =>   3
Atom  30H    basis set group =>   4
Atom  31H    basis set group =>   4
Atom  32H    basis set group =>   4
Atom  33H    basis set group =>   4
Atom  34H    basis set group =>   4
Atom  35H    basis set group =>   4
Atom  36H    basis set group =>   4
Atom  37H    basis set group =>   4
Atom  38O    basis set group =>   3
Atom  39H    basis set group =>   4
Atom  40H    basis set group =>   4
Atom  41C    basis set group =>   1
Atom  42O    basis set group =>   3
Atom  43O    basis set group =>   3
Atom  44C    basis set group =>   1
Atom  45H    basis set group =>   4
Atom  46H    basis set group =>   4
Atom  47H    basis set group =>   4


           ************************************************************
           *        Program running with 24 parallel MPI-processes    *
           *              working on a common directory               *
           ************************************************************
------------------------------------------------------------------------------
                           ORCA GTO INTEGRAL CALCULATION
                           -- RI-GTO INTEGRALS CHOSEN --
------------------------------------------------------------------------------
------------------------------------------------------------------------------
                   ___                                                        
                  /   \      - P O W E R E D   B Y -                         
                 /     \                                                     
                 |  |  |   _    _      __       _____    __    __             
                 |  |  |  | |  | |    /  \     |  _  \  |  |  /  |          
                  \  \/   | |  | |   /    \    | | | |  |  | /  /          
                 / \  \   | |__| |  /  /\  \   | |_| |  |  |/  /          
                |  |  |   |  __  | /  /__\  \  |    /   |      \           
                |  |  |   | |  | | |   __   |  |    \   |  |\   \          
                \     /   | |  | | |  |  |  |  | |\  \  |  | \   \       
                 \___/    |_|  |_| |__|  |__|  |_| \__\ |__|  \__/        
                                                                              
                      - O R C A' S   B I G   F R I E N D -                    
                                      &                                       
                       - I N T E G R A L  F E E D E R -                       
                                                                              
 v1 FN, 2020, v2 2021                                                         
------------------------------------------------------------------------------


Reading SHARK input file 3_CO2Me/3_CO2Me.SHARKINP.tmp ... ok
----------------------
SHARK INTEGRAL PACKAGE
----------------------

Number of atoms                             ...     48
Number of basis functions                   ...    988
Number of shells                            ...    388
Maximum angular momentum                    ...      3
Integral batch strategy                     ... SHARK/LIBINT Hybrid
RI-J (if used) integral strategy            ... SPLIT-RIJ (Revised 2003 algorithm where possible)
Printlevel                                  ...      1
Contraction scheme used                     ... SEGMENTED contraction
Coulomb Range Separation                    ... NOT USED
Exchange Range Separation                   ... NOT USED
Finite Nucleus Model                        ... NOT USED
Auxiliary Coulomb fitting basis             ... AVAILABLE
   # of basis functions in Aux-J            ...   1592
   # of shells in Aux-J                     ...    520
   Maximum angular momentum in Aux-J        ...      4
Auxiliary J/K fitting basis                 ... NOT available
Auxiliary Correlation fitting basis         ... NOT available
Auxiliary 'external' fitting basis          ... NOT available
Integral threshold                          ...     2.500000e-11
Primitive cut-off                           ...     2.500000e-12
Primitive pair pre-selection threshold      ...     2.500000e-12

Calculating pre-screening integrals         ... done (  0.1 sec) Dimension = 388
Organizing shell pair data                  ... done (  0.8 sec)
Shell pair information
Total number of shell pairs                 ...     75466
Shell pairs after pre-screening             ...     55238
Total number of primitive shell pairs       ...    232216
Primitive shell pairs kept                  ...    110435
          la=0 lb=0:  14014 shell pairs
          la=1 lb=0:  15837 shell pairs
          la=1 lb=1:   4470 shell pairs
          la=2 lb=0:   7943 shell pairs
          la=2 lb=1:   4553 shell pairs
          la=2 lb=2:   1186 shell pairs
          la=3 lb=0:   3673 shell pairs
          la=3 lb=1:   2178 shell pairs
          la=3 lb=2:   1105 shell pairs
          la=3 lb=3:    279 shell pairs

Calculating one electron integrals          ... done (  0.1 sec)
Calculating RI/J V-Matrix + Cholesky decomp.... done (  0.3 sec)
Calculating Nuclear repulsion               ... done (  0.0 sec) ENN=   3010.950395200962 Eh

SHARK setup successfully completed in   2.3 seconds

Maximum memory used throughout the entire GTOINT-calculation: 82.2 MB


           ************************************************************
           *        Program running with 24 parallel MPI-processes    *
           *              working on a common directory               *
           ************************************************************
-------------------------------------------------------------------------------
                                 ORCA SCF
-------------------------------------------------------------------------------

------------
SCF SETTINGS
------------
Hamiltonian:
 Density Functional     Method          .... DFT(GTOs)
 Exchange Functional    Exchange        .... PBE
   PBE kappa parameter   XKappa         ....  0.804000
   PBE mue parameter    XMuePBE         ....  0.219520
 Correlation Functional Correlation     .... PBE
   PBE beta parameter  CBetaPBE         ....  0.066725
 LDA part of GGA corr.  LDAOpt          .... PW91-LDA
 Gradients option       PostSCFGGA      .... off
 Hybrid DFT is turned on
   Fraction HF Exchange ScalHFX         ....  0.250000
   Scaling of DF-GGA-X  ScalDFX         ....  0.750000
   Scaling of DF-GGA-C  ScalDFC         ....  1.000000
   Scaling of DF-LDA-C  ScalLDAC        ....  1.000000
   Perturbative correction              ....  0.000000
   Density functional embedding theory  .... OFF
   NL short-range parameter             ....  6.900000
 RI-approximation to the Coulomb term is turned on
   Number of AuxJ basis functions       .... 1592
   RIJ-COSX (HFX calculated with COS-X)).... on


General Settings:
 Integral files         IntName         .... 3_CO2Me/3_CO2Me
 Hartree-Fock type      HFTyp           .... RHF
 Total Charge           Charge          ....    0
 Multiplicity           Mult            ....    1
 Number of Electrons    NEL             ....  204
 Basis Dimension        Dim             ....  988
 Nuclear Repulsion      ENuc            ....   3010.9503952010 Eh

Convergence Acceleration:
 DIIS                   CNVDIIS         .... on
   Start iteration      DIISMaxIt       ....    12
   Startup error        DIISStart       ....  0.200000
   # of expansion vecs  DIISMaxEq       ....     5
   Bias factor          DIISBfac        ....   1.050
   Max. coefficient     DIISMaxC        ....  10.000
 Trust-Rad. Augm. Hess. CNVTRAH         .... auto
   Auto Start mean grad. ratio tolernc. ....  1.125000
   Auto Start start iteration           ....    20
   Auto Start num. interpolation iter.  ....    10
   Max. Number of Micro iterations      ....    16
   Max. Number of Macro iterations      .... Maxiter - #DIIS iter
   Number of Davidson start vectors     ....     2
   Converg. threshold I  (grad. norm)   ....   1.000e-05
   Converg. threshold II (energy diff.) ....   1.000e-08
   Grad. Scal. Fac. for Micro threshold ....   0.100
   Minimum threshold for Micro iter.    ....   0.010
   NR start threshold (gradient norm)   ....   0.001
   Initial trust radius                 ....   0.400
   Minimum AH scaling param. (alpha)    ....   1.000
   Maximum AH scaling param. (alpha)    .... 1000.000
   Orbital update algorithm             .... Taylor
   White noise on init. David. guess    .... on
   Maximum white noise                  ....   0.010
   Quad. conv. algorithm                .... NR
 SOSCF                  CNVSOSCF        .... on
   Start iteration      SOSCFMaxIt      ....   150
   Startup grad/error   SOSCFStart      ....  0.003300
 Level Shifting         CNVShift        .... on
   Level shift para.    LevelShift      ....    0.2500
   Turn off err/grad.   ShiftErr        ....    0.0010
 Zerner damping         CNVZerner       .... off
 Static damping         CNVDamp         .... on
   Fraction old density DampFac         ....    0.7000
   Max. Damping (<1)    DampMax         ....    0.9800
   Min. Damping (>=0)   DampMin         ....    0.0000
   Turn off err/grad.   DampErr         ....    0.1000
 Fernandez-Rico         CNVRico         .... off

SCF Procedure:
 Maximum # iterations   MaxIter         ....   800
 SCF integral mode      SCFMode         .... Direct
   Integral package                     .... SHARK and LIBINT hybrid scheme
 Reset frequency        DirectResetFreq ....    20
 Integral Threshold     Thresh          ....  2.500e-11 Eh
 Primitive CutOff       TCut            ....  2.500e-12 Eh

Convergence Tolerance:
 Convergence Check Mode ConvCheckMode   .... Total+1el-Energy
 Convergence forced     ConvForced      .... 0
 Energy Change          TolE            ....  1.000e-08 Eh
 1-El. energy change                    ....  1.000e-05 Eh
 Orbital Gradient       TolG            ....  1.000e-05
 Orbital Rotation angle TolX            ....  1.000e-05
 DIIS Error             TolErr          ....  5.000e-07


Diagonalization of the overlap matrix:
Smallest eigenvalue                        ... 5.039e-06
Time for diagonalization                   ...    0.440 sec
Threshold for overlap eigenvalues          ... 1.000e-08
Number of eigenvalues below threshold      ... 0
Time for construction of square roots      ...    0.247 sec
Total time needed                          ...    0.697 sec

Time for model grid setup =    0.407 sec

------------------------------
INITIAL GUESS: MODEL POTENTIAL
------------------------------
Loading Hartree-Fock densities                     ... done
Calculating cut-offs                               ... done
Initializing the effective Hamiltonian             ... done
Setting up the integral package (SHARK)            ... done
Starting the Coulomb interaction                   ... done (   0.6 sec)
Reading the grid                                   ... done
Mapping shells                                     ... done
Starting the XC term evaluation                    ... done (   0.3 sec)
  promolecular density results
     # of electrons  =    203.991351260
     EX              =   -173.336689611
     EC              =     -6.940167632
     EX+EC           =   -180.276857243
Transforming the Hamiltonian                       ... done (   0.2 sec)
Diagonalizing the Hamiltonian                      ... done (   0.3 sec)
Back transforming the eigenvectors                 ... done (   0.1 sec)
Now organizing SCF variables                       ... done
                      ------------------
                      INITIAL GUESS DONE (   2.1 sec)
                      ------------------
-------------------
DFT GRID GENERATION
-------------------

General Integration Accuracy     IntAcc      ... 4.388
Radial Grid Type                 RadialGrid  ... OptM3 with GC (2021)
Angular Grid (max. ang.)         AngularGrid ... 4 (Lebedev-302)
Angular grid pruning method      GridPruning ... 4 (adaptive)
Weight generation scheme         WeightScheme... Becke
Basis function cutoff            BFCut       ... 1.0000e-11
Integration weight cutoff        WCut        ... 1.0000e-14
Angular grids for H and He will be reduced by one unit
Partially contracted basis set               ... off
Rotationally invariant grid construction     ... off

Total number of grid points                  ...   229828
Total number of batches                      ...     3618
Average number of points per batch           ...       63
Average number of grid points per atom       ...     4788
Time for grid setup =    1.484 sec

--------------------
COSX GRID GENERATION
--------------------

GRIDX 1
-------
General Integration Accuracy     IntAcc      ... 3.816
Radial Grid Type                 RadialGrid  ... OptM3 with GC (2021)
Angular Grid (max. ang.)         AngularGrid ... 1 (Lebedev-50)
Angular grid pruning method      GridPruning ... 4 (adaptive)
Weight generation scheme         WeightScheme... Becke
Basis function cutoff            BFCut       ... 1.0000e-11
Integration weight cutoff        WCut        ... 1.0000e-14
Angular grids for H and He will be reduced by one unit
Partially contracted basis set               ... on
Rotationally invariant grid construction     ... off

Total number of grid points                  ...    29153
Total number of batches                      ...      478
Average number of points per batch           ...       60
Average number of grid points per atom       ...      607
UseSFitting                                  ... on

GRIDX 2
-------
General Integration Accuracy     IntAcc      ... 4.020
Radial Grid Type                 RadialGrid  ... OptM3 with GC (2021)
Angular Grid (max. ang.)         AngularGrid ... 2 (Lebedev-110)
Angular grid pruning method      GridPruning ... 4 (adaptive)
Weight generation scheme         WeightScheme... Becke
Basis function cutoff            BFCut       ... 1.0000e-11
Integration weight cutoff        WCut        ... 1.0000e-14
Angular grids for H and He will be reduced by one unit
Partially contracted basis set               ... on
Rotationally invariant grid construction     ... off

Total number of grid points                  ...    62961
Total number of batches                      ...     1006
Average number of points per batch           ...       62
Average number of grid points per atom       ...     1312
UseSFitting                                  ... on

GRIDX 3
-------
General Integration Accuracy     IntAcc      ... 4.338
Radial Grid Type                 RadialGrid  ... OptM3 with GC (2021)
Angular Grid (max. ang.)         AngularGrid ... 3 (Lebedev-194)
Angular grid pruning method      GridPruning ... 4 (adaptive)
Weight generation scheme         WeightScheme... Becke
Basis function cutoff            BFCut       ... 1.0000e-11
Integration weight cutoff        WCut        ... 1.0000e-14
Angular grids for H and He will be reduced by one unit
Partially contracted basis set               ... on
Rotationally invariant grid construction     ... off

Total number of grid points                  ...   137364
Total number of batches                      ...     2170
Average number of points per batch           ...       63
Average number of grid points per atom       ...     2862
UseSFitting                                  ... on

Time for X-Grid setup             =    3.231 sec


--------------------
CPCM SOLVATION MODEL
--------------------
CPCM parameters:
  Epsilon                                         ...      47.2000
  Refrac                                          ...       1.4790
  Rsolv                                           ...       1.3000
  Surface type                                    ... GAUSSIAN VDW
  Epsilon function type                           ...         CPCM
Radii:
 Radius for C  used is    3.8550 Bohr (=   2.0400 Ang.)
 Radius for N  used is    3.5149 Bohr (=   1.8600 Ang.)
 Radius for O  used is    3.4469 Bohr (=   1.8240 Ang.)
 Radius for H  used is    2.4944 Bohr (=   1.3200 Ang.)
Calculating surface                               ...        done! (  0.0s)
GEPOL surface points                              ...         2395
GEPOL Volume                                      ...    2870.8066
GEPOL Surface-area                                ...    1371.2244
Calculating surface distance matrix               ...        done! (  0.1s)
Performing Cholesky decomposition & store         ...        done! (  4.9s)
Overall time for CPCM initialization              ...                 5.0s
--------------
SCF ITERATIONS
--------------
ITER       Energy         Delta-E        Max-DP      RMS-DP      [F,P]     Damp
               ***  Starting incremental Fock matrix formation  ***
  0  -1370.3658229236   0.000000000000 0.14571658  0.00071379  0.2669649 0.7000
  1  -1370.6648657499  -0.299042826369 0.11038669  0.00055578  0.1050914 0.7000
                               ***Turning on DIIS***
  2  -1370.7782008467  -0.113335096728 0.14663771  0.00100535  0.0339768 0.0000
  3  -1370.9756229969  -0.197422150215 0.10421891  0.00043056  0.0524778 0.0000
  4  -1371.0071327825  -0.031509785596 0.02415670  0.00018497  0.0190029 0.0000
  5  -1371.0100207683  -0.002887985825 0.01568687  0.00005550  0.0042369 0.0000
                      *** Initiating the SOSCF procedure ***
                           *** Shutting down DIIS ***
                      *** Re-Reading the Fockian *** 
                      *** Removing any level shift *** 
ITER      Energy       Delta-E        Grad      Rot      Max-DP    RMS-DP
  6  -1371.01015721  -0.0001364460  0.000219  0.000219  0.006366  0.000022
               *** Restarting incremental Fock matrix formation ***
  7  -1371.01017571  -0.0000184995  0.000154  0.000809  0.005749  0.000026
  8  -1371.01017480   0.0000009124  0.000314  0.000375  0.001112  0.000006
  9  -1371.01017919  -0.0000043907  0.000086  0.000263  0.001279  0.000006
 10  -1371.01017891   0.0000002868  0.000163  0.000189  0.000300  0.000002
 11  -1371.01017932  -0.0000004191  0.000018  0.000042  0.000686  0.000002
 12  -1371.01017929   0.0000000326  0.000022  0.000025  0.000279  0.000001
                  ***Gradient check signals convergence***
              ***Rediagonalizing the Fockian in SOSCF/NRSCF***

               *****************************************************
               *                     SUCCESS                       *
               *           SCF CONVERGED AFTER  13 CYCLES          *
               *****************************************************

Old exchange energy                            =    -44.112519126 Eh
New exchange energy                            =    -44.112531686 Eh
Exchange energy change after final integration =     -0.000012560 Eh
Total energy after final integration           =  -1371.010191892 Eh
Final COS-X integration done in                =    21.147 sec

----------------
TOTAL SCF ENERGY
----------------

Total Energy       :        -1371.01019189 Eh          -37307.08398 eV

Components:
Nuclear Repulsion  :         3010.95039520 Eh           81932.12560 eV
Electronic Energy  :        -4381.96058709 Eh         -119239.20958 eV
One Electron Energy:        -7863.10274154 Eh         -213965.90341 eV
Two Electron Energy:         3481.14215445 Eh           94726.69383 eV
Max COSX asymmetry :            0.00000164 Eh               0.00004 eV
CPCM Dielectric    :           -0.03378478 Eh              -0.91933 eV

Virial components:
Potential Energy   :        -2735.71759717 Eh          -74442.66041 eV
Kinetic Energy     :         1364.70740527 Eh           37135.57643 eV
Virial Ratio       :            2.00461842


DFT components:
N(Alpha)           :      101.999876394095 electrons
N(Beta)            :      101.999876394095 electrons
N(Total)           :      203.999752788191 electrons
E(X)               :     -132.139475300583 Eh       
E(C)               :       -6.928546347711 Eh       
E(XC)              :     -139.068021648295 Eh       
DFET-embed. en.    :        0.000000000000 Eh       
CPCM Solvation Model Properties:
Surface-charge          :           -0.03108428
Charge-correction       :           -0.00012629 Eh              -0.00344 eV
Free-energy (cav+disp)  :  This term is not implemented in the current solvation scheme

---------------
SCF CONVERGENCE
---------------

  Last Energy change         ...   -4.0619e-08  Tolerance :   1.0000e-08
  Last MAX-Density change    ...    2.6645e-15  Tolerance :   1.0000e-07
  Last RMS-Density change    ...    1.2600e-17  Tolerance :   5.0000e-09
  Last Orbital Gradient      ...    2.4798e-06  Tolerance :   1.0000e-05
  Last Orbital Rotation      ...    5.2648e-06  Tolerance :   1.0000e-05

             **** THE GBW FILE WAS UPDATED (3_CO2Me/3_CO2Me.gbw) ****
             **** DENSITY 3_CO2Me/3_CO2Me.scfp WAS UPDATED ****
             **** ENERGY FILE WAS UPDATED (3_CO2Me/3_CO2Me.en.tmp) ****
             **** THE GBW FILE WAS UPDATED (3_CO2Me/3_CO2Me.gbw) ****
             **** DENSITY 3_CO2Me/3_CO2Me.scfp WAS UPDATED ****
----------------
ORBITAL ENERGIES
----------------

  NO   OCC          E(Eh)            E(eV) 
   0   2.0000     -19.271066      -524.3924 
   1   2.0000     -19.264321      -524.2088 
   2   2.0000     -19.258017      -524.0373 
   3   2.0000     -19.256292      -523.9903 
   4   2.0000     -19.252655      -523.8914 
   5   2.0000     -19.210741      -522.7508 
   6   2.0000     -19.203269      -522.5475 
   7   2.0000     -14.631562      -398.1450 
   8   2.0000     -14.428905      -392.6305 
   9   2.0000     -10.373870      -282.2874 
  10   2.0000     -10.360395      -281.9207 
  11   2.0000     -10.315722      -280.7051 
  12   2.0000     -10.294090      -280.1164 
  13   2.0000     -10.292129      -280.0631 
  14   2.0000     -10.292041      -280.0607 
  15   2.0000     -10.275790      -279.6185 
  16   2.0000     -10.273070      -279.5445 
  17   2.0000     -10.271454      -279.5005 
  18   2.0000     -10.271262      -279.4953 
  19   2.0000     -10.270096      -279.4635 
  20   2.0000     -10.244395      -278.7642 
  21   2.0000     -10.234893      -278.5056 
  22   2.0000     -10.234392      -278.4920 
  23   2.0000     -10.234367      -278.4913 
  24   2.0000     -10.230537      -278.3871 
  25   2.0000     -10.227212      -278.2966 
  26   2.0000     -10.225796      -278.2581 
  27   2.0000     -10.211505      -277.8692 
  28   2.0000      -1.291229       -35.1361 
  29   2.0000      -1.163620       -31.6637 
  30   2.0000      -1.155272       -31.4366 
  31   2.0000      -1.117071       -30.3971 
  32   2.0000      -1.111730       -30.2517 
  33   2.0000      -1.070117       -29.1194 
  34   2.0000      -1.062786       -28.9199 
  35   2.0000      -1.023313       -27.8458 
  36   2.0000      -0.902867       -24.5683 
  37   2.0000      -0.882484       -24.0136 
  38   2.0000      -0.855528       -23.2801 
  39   2.0000      -0.811975       -22.0950 
  40   2.0000      -0.796588       -21.6763 
  41   2.0000      -0.784083       -21.3360 
  42   2.0000      -0.779439       -21.2096 
  43   2.0000      -0.761376       -20.7181 
  44   2.0000      -0.747969       -20.3533 
  45   2.0000      -0.721342       -19.6287 
  46   2.0000      -0.707642       -19.2559 
  47   2.0000      -0.672169       -18.2906 
  48   2.0000      -0.654015       -17.7967 
  49   2.0000      -0.644760       -17.5448 
  50   2.0000      -0.631992       -17.1974 
  51   2.0000      -0.614237       -16.7142 
  52   2.0000      -0.600599       -16.3431 
  53   2.0000      -0.596759       -16.2386 
  54   2.0000      -0.584210       -15.8972 
  55   2.0000      -0.581279       -15.8174 
  56   2.0000      -0.564059       -15.3488 
  57   2.0000      -0.554315       -15.0837 
  58   2.0000      -0.548390       -14.9225 
  59   2.0000      -0.540131       -14.6977 
  60   2.0000      -0.530620       -14.4389 
  61   2.0000      -0.521302       -14.1853 
  62   2.0000      -0.518823       -14.1179 
  63   2.0000      -0.512816       -13.9544 
  64   2.0000      -0.507598       -13.8124 
  65   2.0000      -0.502229       -13.6663 
  66   2.0000      -0.500361       -13.6155 
  67   2.0000      -0.485240       -13.2041 
  68   2.0000      -0.482560       -13.1311 
  69   2.0000      -0.479919       -13.0593 
  70   2.0000      -0.466520       -12.6946 
  71   2.0000      -0.462282       -12.5793 
  72   2.0000      -0.455820       -12.4035 
  73   2.0000      -0.442048       -12.0287 
  74   2.0000      -0.440987       -11.9999 
  75   2.0000      -0.440326       -11.9819 
  76   2.0000      -0.433145       -11.7865 
  77   2.0000      -0.420124       -11.4322 
  78   2.0000      -0.416995       -11.3470 
  79   2.0000      -0.404576       -11.0091 
  80   2.0000      -0.402772       -10.9600 
  81   2.0000      -0.396059       -10.7773 
  82   2.0000      -0.383929       -10.4473 
  83   2.0000      -0.381812       -10.3896 
  84   2.0000      -0.379399       -10.3240 
  85   2.0000      -0.378778       -10.3071 
  86   2.0000      -0.370827       -10.0907 
  87   2.0000      -0.366986        -9.9862 
  88   2.0000      -0.360694        -9.8150 
  89   2.0000      -0.349686        -9.5154 
  90   2.0000      -0.348117        -9.4727 
  91   2.0000      -0.343834        -9.3562 
  92   2.0000      -0.339588        -9.2407 
  93   2.0000      -0.333181        -9.0663 
  94   2.0000      -0.330779        -9.0009 
  95   2.0000      -0.329038        -8.9536 
  96   2.0000      -0.313019        -8.5177 
  97   2.0000      -0.311643        -8.4802 
  98   2.0000      -0.298710        -8.1283 
  99   2.0000      -0.271582        -7.3901 
 100   2.0000      -0.241356        -6.5676 
 101   2.0000      -0.202002        -5.4967 
 102   0.0000      -0.077535        -2.1098 
 103   0.0000      -0.029570        -0.8046 
 104   0.0000      -0.019039        -0.5181 
 105   0.0000      -0.014353        -0.3906 
 106   0.0000      -0.002331        -0.0634 
 107   0.0000       0.003595         0.0978 
 108   0.0000       0.042180         1.1478 
 109   0.0000       0.053099         1.4449 
 110   0.0000       0.062037         1.6881 
 111   0.0000       0.069946         1.9033 
 112   0.0000       0.071348         1.9415 
 113   0.0000       0.074559         2.0288 
 114   0.0000       0.084996         2.3128 
 115   0.0000       0.086966         2.3665 
 116   0.0000       0.092487         2.5167 
 117   0.0000       0.094718         2.5774 
 118   0.0000       0.100914         2.7460 
 119   0.0000       0.106956         2.9104 
 120   0.0000       0.107948         2.9374 
 121   0.0000       0.115365         3.1392 
 122   0.0000       0.115876         3.1531 
 123   0.0000       0.120197         3.2707 
 124   0.0000       0.124828         3.3967 
 125   0.0000       0.128131         3.4866 
 126   0.0000       0.128751         3.5035 
 127   0.0000       0.132998         3.6190 
 128   0.0000       0.139783         3.8037 
 129   0.0000       0.142197         3.8694 
 130   0.0000       0.150444         4.0938 
 131   0.0000       0.151269         4.1162 
 132   0.0000       0.152370         4.1462 
 133   0.0000       0.161902         4.4056 
 134   0.0000       0.170072         4.6279 
 135   0.0000       0.174036         4.7358 
 136   0.0000       0.180836         4.9208 
 137   0.0000       0.183211         4.9854 
 138   0.0000       0.190974         5.1967 
 139   0.0000       0.196719         5.3530 
 140   0.0000       0.197404         5.3716 
 141   0.0000       0.201716         5.4890 
 142   0.0000       0.205958         5.6044 
 143   0.0000       0.211737         5.7617 
 144   0.0000       0.214525         5.8375 
 145   0.0000       0.218882         5.9561 
 146   0.0000       0.219968         5.9856 
 147   0.0000       0.222126         6.0444 
 148   0.0000       0.230086         6.2610 
 149   0.0000       0.236747         6.4422 
 150   0.0000       0.239140         6.5073 
 151   0.0000       0.245901         6.6913 
 152   0.0000       0.247828         6.7437 
 153   0.0000       0.251213         6.8359 
 154   0.0000       0.254752         6.9321 
 155   0.0000       0.260410         7.0861 
 156   0.0000       0.261844         7.1251 
 157   0.0000       0.262600         7.1457 
 158   0.0000       0.267292         7.2734 
 159   0.0000       0.276242         7.5169 
 160   0.0000       0.282074         7.6756 
 161   0.0000       0.285477         7.7682 
 162   0.0000       0.286438         7.7944 
 163   0.0000       0.287538         7.8243 
 164   0.0000       0.296134         8.0582 
 165   0.0000       0.298122         8.1123 
 166   0.0000       0.302432         8.2296 
 167   0.0000       0.311080         8.4649 
 168   0.0000       0.313669         8.5354 
 169   0.0000       0.319766         8.7013 
 170   0.0000       0.322090         8.7645 
 171   0.0000       0.325841         8.8666 
 172   0.0000       0.327190         8.9033 
 173   0.0000       0.332500         9.0478 
 174   0.0000       0.334623         9.1055 
 175   0.0000       0.336432         9.1548 
 176   0.0000       0.340290         9.2598 
 177   0.0000       0.343421         9.3450 
 178   0.0000       0.350828         9.5465 
 179   0.0000       0.352634         9.5957 
 180   0.0000       0.358035         9.7426 
 181   0.0000       0.364444         9.9170 
 182   0.0000       0.368788        10.0352 
 183   0.0000       0.370637        10.0855 
 184   0.0000       0.375067        10.2061 
 185   0.0000       0.378339        10.2951 
 186   0.0000       0.379888        10.3373 
 187   0.0000       0.383693        10.4408 
 188   0.0000       0.386757        10.5242 
 189   0.0000       0.390651        10.6301 
 190   0.0000       0.395587        10.7645 
 191   0.0000       0.399819        10.8796 
 192   0.0000       0.401049        10.9131 
 193   0.0000       0.406395        11.0586 
 194   0.0000       0.409025        11.1301 
 195   0.0000       0.412216        11.2170 
 196   0.0000       0.415957        11.3188 
 197   0.0000       0.421651        11.4737 
 198   0.0000       0.425117        11.5680 
 199   0.0000       0.429973        11.7002 
 200   0.0000       0.433141        11.7864 
 201   0.0000       0.435155        11.8412 
 202   0.0000       0.439898        11.9702 
 203   0.0000       0.440665        11.9911 
 204   0.0000       0.444553        12.0969 
 205   0.0000       0.449065        12.2197 
 206   0.0000       0.452696        12.3185 
 207   0.0000       0.458672        12.4811 
 208   0.0000       0.458805        12.4847 
 209   0.0000       0.463515        12.6129 
 210   0.0000       0.468295        12.7430 
 211   0.0000       0.468446        12.7471 
 212   0.0000       0.472382        12.8542 
 213   0.0000       0.479361        13.0441 
 214   0.0000       0.484264        13.1775 
 215   0.0000       0.485772        13.2185 
 216   0.0000       0.491235        13.3672 
 217   0.0000       0.491832        13.3834 
 218   0.0000       0.497588        13.5400 
 219   0.0000       0.499847        13.6015 
 220   0.0000       0.505855        13.7650 
 221   0.0000       0.512232        13.9385 
[...]
 42:    568.50   0.005839   29.51  0.003205  (-0.054205 -0.004858  0.015599)
 43:    584.93   0.002819   14.25  0.001504  ( 0.025150 -0.003179  0.029347)
 44:    588.04   0.002062   10.42  0.001094  (-0.002291  0.016191  0.028751)
 45:    605.99   0.007331   37.05  0.003775  (-0.044776  0.039355  0.014890)
 46:    623.48   0.004118   20.81  0.002061  ( 0.025837  0.025535  0.027229)
 47:    648.66   0.001961    9.91  0.000943  ( 0.015184  0.026667  0.001301)
 48:    661.93   0.011261   56.91  0.005309  (-0.045326  0.038887 -0.041739)
 49:    676.74   0.000736    3.72  0.000340  ( 0.009338  0.014618 -0.006215)
 50:    699.75   0.001495    7.55  0.000667  ( 0.000381  0.025713 -0.002291)
 51:    712.23   0.015807   79.88  0.006926  (-0.013993 -0.056121  0.059836)
 52:    758.53   0.007016   35.46  0.002887  (-0.001020 -0.052244 -0.012493)
 53:    764.76   0.003481   17.59  0.001420  (-0.011571  0.035865  0.000266)
 54:    773.92   0.016029   81.00  0.006463  ( 0.024352 -0.072929 -0.023486)
 55:    798.72   0.001433    7.24  0.000560  ( 0.010894 -0.008279  0.019303)
 56:    803.76   0.007466   37.73  0.002899  (-0.016283 -0.034817  0.037702)
 57:    821.71   0.023349  118.00  0.008867  (-0.035998 -0.087013  0.000526)
 58:    832.78   0.014728   74.43  0.005519  (-0.007398 -0.072856  0.012496)
 59:    847.54   0.015594   78.81  0.005742  ( 0.029240  0.044235 -0.054130)
 60:    870.70   0.002290   11.57  0.000821  (-0.022956  0.017011  0.002087)
 61:    874.91   0.001301    6.57  0.000464  (-0.016875  0.013351 -0.000948)
 62:    894.86   0.002631   13.30  0.000918  ( 0.015245  0.017768  0.019220)
 63:    923.09   0.004089   20.66  0.001382  (-0.016864  0.032827 -0.004500)
 64:    944.69   0.001820    9.20  0.000601  ( 0.009841  0.018564  0.012634)
 65:    948.01   0.001571    7.94  0.000517  ( 0.021623 -0.004178  0.005666)
 66:    957.63   0.000593    3.00  0.000193  ( 0.001643  0.011214  0.008054)
 67:    972.54   0.024814  125.40  0.007962  (-0.022067  0.083159 -0.023659)
 68:    989.04   0.000116    0.59  0.000037  ( 0.001769 -0.005622  0.001355)
 69:   1001.04   0.001005    5.08  0.000313  (-0.011755  0.006092 -0.011742)
 70:   1009.88   0.006826   34.49  0.002109  ( 0.022737 -0.013264  0.037635)
 71:   1012.31   0.002449   12.38  0.000755  ( 0.010811  0.022273  0.011913)
 72:   1025.01   0.003407   17.22  0.001037  (-0.012890  0.026677  0.012628)
 73:   1042.11   0.008085   40.86  0.002421  ( 0.026421 -0.039129 -0.013851)
 74:   1055.52   0.004643   23.46  0.001373  ( 0.030862 -0.006893  0.019303)
 75:   1070.06   0.009489   47.96  0.002767  (-0.030788 -0.000209 -0.042655)
 76:   1083.17   0.013257   66.99  0.003819  ( 0.005310  0.007859 -0.061068)
 77:   1088.12   0.000955    4.83  0.000274  (-0.000436 -0.015178 -0.006588)
 78:   1146.07   0.011226   56.73  0.003057  ( 0.007737 -0.013914  0.052946)
 79:   1154.56   0.005094   25.75  0.001377  (-0.031771  0.000321 -0.019169)
 80:   1155.78   0.017716   89.53  0.004783  ( 0.026238  0.054690  0.033225)
 81:   1170.58   0.000345    1.74  0.000092  ( 0.002418  0.007566  0.005374)
 82:   1170.86   0.000193    0.98  0.000052  ( 0.006237 -0.003025  0.001872)
 83:   1173.05   0.000344    1.74  0.000092  ( 0.002345  0.001240  0.009197)
 84:   1173.64   0.000731    3.70  0.000194  (-0.005917  0.004625 -0.011750)
 85:   1194.15   0.005022   25.38  0.001312  (-0.033095  0.010869 -0.009947)
 86:   1205.56   0.002289   11.57  0.000593  ( 0.014763 -0.012522 -0.014761)
 87:   1205.90   0.004399   22.23  0.001138  (-0.026470  0.012727 -0.016608)
 88:   1215.26   0.000123    0.62  0.000031  (-0.004808 -0.002427 -0.001577)
 89:   1226.61   0.006888   34.81  0.001752  ( 0.028345  0.030621  0.003358)
 90:   1242.66   0.018748   94.74  0.004708  ( 0.058635  0.030987 -0.017600)
 91:   1251.62   0.045909  232.01  0.011446  (-0.078228  0.071793  0.013133)
 92:   1257.34   0.064832  327.63  0.016091  (-0.103313  0.072373  0.013398)
 93:   1271.99   0.034867  176.20  0.008554  ( 0.082663  0.023743  0.034017)
 94:   1305.71   0.080233  405.47  0.019176  ( 0.098150  0.079890 -0.056213)
 95:   1309.12   0.026085  131.82  0.006218  (-0.008563 -0.017208 -0.076476)
 96:   1319.28   0.009610   48.57  0.002273  (-0.015523 -0.030757  0.032959)
 97:   1326.78   0.034640  175.06  0.008147  (-0.079394 -0.037283 -0.021306)
 98:   1350.98   0.003252   16.43  0.000751  ( 0.026696 -0.000239 -0.006201)
 99:   1368.23   0.019716   99.63  0.004497  ( 0.057754  0.030015 -0.016135)
100:   1376.01   0.024579  124.21  0.005574  ( 0.043011 -0.060236  0.009799)
101:   1393.12   0.011159   56.39  0.002500  ( 0.021946  0.025900  0.036703)
102:   1405.24   0.002347   11.86  0.000521  ( 0.012046  0.005044  0.018726)
103:   1424.03   0.051122  258.35  0.011203  ( 0.024192 -0.091520  0.047348)
104:   1442.56   0.017083   86.33  0.003696  (-0.053546  0.017142 -0.023119)
105:   1464.65   0.003663   18.51  0.000780  ( 0.003943  0.026087  0.009184)
106:   1465.62   0.003962   20.02  0.000844  ( 0.000304 -0.008438  0.027791)
107:   1465.98   0.004234   21.40  0.000901  ( 0.017931 -0.024039  0.001395)
108:   1468.61   0.006167   31.17  0.001310  (-0.022382  0.028164  0.004038)
109:   1469.93   0.012965   65.52  0.002752  (-0.041518 -0.030681 -0.009347)
110:   1471.20   0.004363   22.05  0.000925  (-0.006057 -0.029129  0.006345)
111:   1471.68   0.003347   16.91  0.000710  (-0.012671  0.012095  0.020070)
112:   1475.04   0.003436   17.36  0.000727  (-0.008029 -0.010670  0.023421)
113:   1483.80   0.002643   13.36  0.000556  (-0.016959 -0.007244  0.014688)
114:   1500.48   0.009899   50.02  0.002059  (-0.013223 -0.018890  0.039077)
115:   1504.17   0.027740  140.19  0.005755  (-0.069244 -0.018560 -0.024819)
116:   1542.60   0.029102  147.07  0.005887  (-0.036022 -0.026601  0.062306)
117:   1617.65   0.026458  133.71  0.005104  ( 0.066550 -0.025329 -0.005799)
118:   1639.09   0.128319  648.47  0.024430  (-0.038755  0.089062  0.122460)
119:   1654.73   0.018039   91.16  0.003402  ( 0.009632 -0.004307 -0.057363)
120:   1666.53   0.011051   55.85  0.002069  ( 0.032331  0.013939 -0.028805)
121:   1706.09   0.037031  187.14  0.006773  ( 0.079910  0.016487  0.010771)
122:   1794.85   0.074339  375.68  0.012925  (-0.068136 -0.049762  0.076198)
123:   1802.36   0.128539  649.59  0.022255  (-0.074951 -0.042466  0.121797)
124:   3035.97   0.002322   11.73  0.000239  (-0.010722 -0.004761 -0.010051)
125:   3044.29   0.010629   53.71  0.001090  ( 0.010961 -0.003359  0.030953)
126:   3074.06   0.006358   32.13  0.000645  (-0.016700  0.016268 -0.010093)
127:   3074.67   0.005201   26.28  0.000528  (-0.008419 -0.016226 -0.013918)
128:   3109.22   0.001293    6.53  0.000130  (-0.010001  0.004991  0.002198)
129:   3118.40   0.007048   35.62  0.000705  ( 0.008089 -0.025037 -0.003608)
130:   3135.50   0.001308    6.61  0.000130  (-0.008825  0.004402 -0.005734)
131:   3157.59   0.003882   19.62  0.000384  ( 0.006247  0.014985  0.010957)
132:   3159.89   0.003251   16.43  0.000321  ( 0.014078 -0.010619  0.003182)
133:   3171.29   0.003077   15.55  0.000303  (-0.013915 -0.005709  0.008751)
134:   3186.85   0.000797    4.03  0.000078  (-0.005756 -0.000168 -0.006699)
135:   3188.72   0.003270   16.53  0.000320  ( 0.015815 -0.004929 -0.006753)
136:   3190.41   0.002149   10.86  0.000210  (-0.011101 -0.001146  0.009257)
137:   3195.54   0.001788    9.04  0.000175  ( 0.007232  0.007857 -0.007784)
138:   3196.77   0.001664    8.41  0.000162  (-0.011146 -0.001578 -0.005976)
139:   3214.31   0.001111    5.61  0.000108  (-0.007589 -0.005202  0.004814)
140:   3214.38   0.002167   10.95  0.000210  (-0.008115 -0.003504  0.011500)
141:   3225.66   0.000414    2.09  0.000040  (-0.005240  0.000533  0.003505)
142:   3228.96   0.000293    1.48  0.000028  (-0.003539  0.000174 -0.003970)
143:   3246.80   0.000625    3.16  0.000060  ( 0.001668  0.005309  0.005392)

* The epsilon (eps) is given for a Dirac delta lineshape.
** The dipole moment derivative (T) already includes vibrational overlap.

The first frequency considered to be a vibration is 6
The total number of vibrations considered is 138


--------------------------
THERMOCHEMISTRY AT 298.15K
--------------------------

Temperature         ... 298.15 K
Pressure            ... 1.00 atm
Total Mass          ... 388.38 AMU

Throughout the following assumptions are being made:
  (1) The electronic state is orbitally nondegenerate
  (2) There are no thermally accessible electronically excited states
  (3) Hindered rotations indicated by low frequency modes are not
      treated as such but are treated as vibrations and this may
      cause some error
  (4) All equations used are the standard statistical mechanics
      equations for an ideal gas
  (5) All vibrations are strictly harmonic

freq.      18.20  E(vib)   ...       0.57 
freq.      45.14  E(vib)   ...       0.53 
freq.      56.20  E(vib)   ...       0.52 
freq.      71.83  E(vib)   ...       0.50 
freq.      74.60  E(vib)   ...       0.49 
freq.      86.09  E(vib)   ...       0.48 
freq.      86.76  E(vib)   ...       0.48 
freq.      89.66  E(vib)   ...       0.47 
freq.      99.92  E(vib)   ...       0.46 
freq.     103.88  E(vib)   ...       0.46 
freq.     115.06  E(vib)   ...       0.44 
freq.     125.84  E(vib)   ...       0.43 
freq.     132.85  E(vib)   ...       0.42 
freq.     147.71  E(vib)   ...       0.41 
freq.     151.03  E(vib)   ...       0.40 
freq.     167.27  E(vib)   ...       0.39 
freq.     195.53  E(vib)   ...       0.36 
freq.     198.12  E(vib)   ...       0.35 
freq.     205.75  E(vib)   ...       0.35 
freq.     225.80  E(vib)   ...       0.33 
freq.     236.94  E(vib)   ...       0.32 
freq.     246.16  E(vib)   ...       0.31 
freq.     265.68  E(vib)   ...       0.29 
freq.     282.74  E(vib)   ...       0.28 
freq.     292.38  E(vib)   ...       0.27 
freq.     302.78  E(vib)   ...       0.26 
freq.     323.97  E(vib)   ...       0.25 
freq.     342.49  E(vib)   ...       0.23 
freq.     347.79  E(vib)   ...       0.23 
freq.     375.97  E(vib)   ...       0.21 
freq.     418.60  E(vib)   ...       0.18 
freq.     452.59  E(vib)   ...       0.16 
freq.     471.60  E(vib)   ...       0.15 
freq.     482.70  E(vib)   ...       0.15 
freq.     508.70  E(vib)   ...       0.14 
freq.     549.72  E(vib)   ...       0.12 
freq.     568.50  E(vib)   ...       0.11 
freq.     584.93  E(vib)   ...       0.11 
freq.     588.04  E(vib)   ...       0.10 
freq.     605.99  E(vib)   ...       0.10 
freq.     623.48  E(vib)   ...       0.09 
freq.     648.66  E(vib)   ...       0.08 
freq.     661.93  E(vib)   ...       0.08 
freq.     676.74  E(vib)   ...       0.08 
freq.     699.75  E(vib)   ...       0.07 
freq.     712.23  E(vib)   ...       0.07 
freq.     758.53  E(vib)   ...       0.06 
freq.     764.76  E(vib)   ...       0.06 
freq.     773.92  E(vib)   ...       0.05 
freq.     798.72  E(vib)   ...       0.05 
freq.     803.76  E(vib)   ...       0.05 
freq.     821.71  E(vib)   ...       0.05 
freq.     832.78  E(vib)   ...       0.04 
freq.     847.54  E(vib)   ...       0.04 
freq.     870.70  E(vib)   ...       0.04 
freq.     874.91  E(vib)   ...       0.04 
freq.     894.86  E(vib)   ...       0.03 
freq.     923.09  E(vib)   ...       0.03 
freq.     944.69  E(vib)   ...       0.03 
freq.     948.01  E(vib)   ...       0.03 
freq.     957.63  E(vib)   ...       0.03 
freq.     972.54  E(vib)   ...       0.03 
freq.     989.04  E(vib)   ...       0.02 
freq.    1001.04  E(vib)   ...       0.02 
freq.    1009.88  E(vib)   ...       0.02 
freq.    1012.31  E(vib)   ...       0.02 
freq.    1025.01  E(vib)   ...       0.02 
freq.    1042.11  E(vib)   ...       0.02 
freq.    1055.52  E(vib)   ...       0.02 
freq.    1070.06  E(vib)   ...       0.02 
freq.    1083.17  E(vib)   ...       0.02 
freq.    1088.12  E(vib)   ...       0.02 
freq.    1146.07  E(vib)   ...       0.01 
freq.    1154.56  E(vib)   ...       0.01 
freq.    1155.78  E(vib)   ...       0.01 
freq.    1170.58  E(vib)   ...       0.01 
freq.    1170.86  E(vib)   ...       0.01 
freq.    1173.05  E(vib)   ...       0.01 
freq.    1173.64  E(vib)   ...       0.01 
freq.    1194.15  E(vib)   ...       0.01 
freq.    1205.56  E(vib)   ...       0.01 
freq.    1205.90  E(vib)   ...       0.01 
freq.    1215.26  E(vib)   ...       0.01 
freq.    1226.61  E(vib)   ...       0.01 
freq.    1242.66  E(vib)   ...       0.01 
freq.    1251.62  E(vib)   ...       0.01 
freq.    1257.34  E(vib)   ...       0.01 
freq.    1271.99  E(vib)   ...       0.01 
freq.    1305.71  E(vib)   ...       0.01 
freq.    1309.12  E(vib)   ...       0.01 
freq.    1319.28  E(vib)   ...       0.01 
freq.    1326.78  E(vib)   ...       0.01 
freq.    1350.98  E(vib)   ...       0.01 
freq.    1368.23  E(vib)   ...       0.01 
freq.    1376.01  E(vib)   ...       0.01 
freq.    1393.12  E(vib)   ...       0.00 
freq.    1405.24  E(vib)   ...       0.00 
freq.    1424.03  E(vib)   ...       0.00 
freq.    1442.56  E(vib)   ...       0.00 
freq.    1464.65  E(vib)   ...       0.00 
freq.    1465.62  E(vib)   ...       0.00 
freq.    1465.98  E(vib)   ...       0.00 
freq.    1468.61  E(vib)   ...       0.00 
freq.    1469.93  E(vib)   ...       0.00 
freq.    1471.20  E(vib)   ...       0.00 
freq.    1471.68  E(vib)   ...       0.00 
freq.    1475.04  E(vib)   ...       0.00 
freq.    1483.80  E(vib)   ...       0.00 
freq.    1500.48  E(vib)   ...       0.00 
freq.    1504.17  E(vib)   ...       0.00 
freq.    1542.60  E(vib)   ...       0.00 
freq.    1617.65  E(vib)   ...       0.00 
freq.    1639.09  E(vib)   ...       0.00 
freq.    1654.73  E(vib)   ...       0.00 
freq.    1666.53  E(vib)   ...       0.00 
freq.    1706.09  E(vib)   ...       0.00 
freq.    1794.85  E(vib)   ...       0.00 
freq.    1802.36  E(vib)   ...       0.00 
freq.    3035.97  E(vib)   ...       0.00 
freq.    3044.29  E(vib)   ...       0.00 
freq.    3074.06  E(vib)   ...       0.00 
freq.    3074.67  E(vib)   ...       0.00 
freq.    3109.22  E(vib)   ...       0.00 
freq.    3118.40  E(vib)   ...       0.00 
freq.    3135.50  E(vib)   ...       0.00 
freq.    3157.59  E(vib)   ...       0.00 
freq.    3159.89  E(vib)   ...       0.00 
freq.    3171.29  E(vib)   ...       0.00 
freq.    3186.85  E(vib)   ...       0.00 
freq.    3188.72  E(vib)   ...       0.00 
freq.    3190.41  E(vib)   ...       0.00 
freq.    3195.54  E(vib)   ...       0.00 
freq.    3196.77  E(vib)   ...       0.00 
freq.    3214.31  E(vib)   ...       0.00 
freq.    3214.38  E(vib)   ...       0.00 
freq.    3225.66  E(vib)   ...       0.00 
freq.    3228.96  E(vib)   ...       0.00 
freq.    3246.80  E(vib)   ...       0.00 

------------
INNER ENERGY
------------

The inner energy is: U= E(el) + E(ZPE) + E(vib) + E(rot) + E(trans)
    E(el)   - is the total energy from the electronic structure calculation
              = E(kin-el) + E(nuc-el) + E(el-el) + E(nuc-nuc)
    E(ZPE)  - the the zero temperature vibrational energy from the frequency calculation
    E(vib)  - the the finite temperature correction to E(ZPE) due to population
              of excited vibrational states
    E(rot)  - is the rotational thermal energy
    E(trans)- is the translational thermal energy

Summary of contributions to the inner energy U:
Electronic energy                ...  -1371.07848162 Eh
Zero point energy                ...      0.37795642 Eh     237.17 kcal/mol
Thermal vibrational correction   ...      0.02293046 Eh      14.39 kcal/mol
Thermal rotational correction    ...      0.00141627 Eh       0.89 kcal/mol
Thermal translational correction ...      0.00141627 Eh       0.89 kcal/mol
-----------------------------------------------------------------------
Total thermal energy                  -1370.67476220 Eh


Summary of corrections to the electronic energy:
(perhaps to be used in another calculation)
Total thermal correction                  0.02576300 Eh      16.17 kcal/mol
Non-thermal (ZPE) correction              0.37795642 Eh     237.17 kcal/mol
-----------------------------------------------------------------------
Total correction                          0.40371942 Eh     253.34 kcal/mol


--------
ENTHALPY
--------

The enthalpy is H = U + kB*T
                kB is Boltzmann's constant
Total free energy                 ...  -1370.67476220 Eh 
Thermal Enthalpy correction       ...      0.00094421 Eh       0.59 kcal/mol
-----------------------------------------------------------------------
Total Enthalpy                    ...  -1370.67381799 Eh


Note: Only C1 symmetry has been detected, increase convergence thresholds 
      if your molecule has a higher symmetry. Symmetry factor of 1.0 is   
      used for the rotational entropy correction. 
 

Note: Rotational entropy computed according to Herzberg 
Infrared and Raman Spectra, Chapter V,1, Van Nostrand Reinhold, 1945 
Point Group:  C1, Symmetry Number:   1  
Rotational constants in cm-1:     0.009178     0.006484     0.005109 

Vibrational entropy computed according to the QRRHO of S. Grimme
Chem.Eur.J. 2012 18 9955


-------
ENTROPY
-------

The entropy contributions are T*S = T*(S(el)+S(vib)+S(rot)+S(trans))
     S(el)   - electronic entropy
     S(vib)  - vibrational entropy
     S(rot)  - rotational entropy
     S(trans)- translational entropy
The entropies will be listed as multiplied by the temperature to get
units of energy

Electronic entropy                ...      0.00000000 Eh      0.00 kcal/mol
Vibrational entropy               ...      0.04114325 Eh     25.82 kcal/mol
Rotational entropy                ...      0.01659500 Eh     10.41 kcal/mol
Translational entropy             ...      0.02079284 Eh     13.05 kcal/mol
-----------------------------------------------------------------------
Final entropy term                ...      0.07853110 Eh     49.28 kcal/mol

In case the symmetry of your molecule has not been determined correctly
or in case you have a reason to use a different symmetry number we print 
out the resulting rotational entropy values for sn=1,12 :
 --------------------------------------------------------
|  sn= 1 | S(rot)=       0.01659500 Eh     10.41 kcal/mol|
|  sn= 2 | S(rot)=       0.01594054 Eh     10.00 kcal/mol|
|  sn= 3 | S(rot)=       0.01555771 Eh      9.76 kcal/mol|
|  sn= 4 | S(rot)=       0.01528609 Eh      9.59 kcal/mol|
|  sn= 5 | S(rot)=       0.01507540 Eh      9.46 kcal/mol|
|  sn= 6 | S(rot)=       0.01490325 Eh      9.35 kcal/mol|
|  sn= 7 | S(rot)=       0.01475771 Eh      9.26 kcal/mol|
|  sn= 8 | S(rot)=       0.01463163 Eh      9.18 kcal/mol|
|  sn= 9 | S(rot)=       0.01452042 Eh      9.11 kcal/mol|
|  sn=10 | S(rot)=       0.01442094 Eh      9.05 kcal/mol|
|  sn=11 | S(rot)=       0.01433095 Eh      8.99 kcal/mol|
|  sn=12 | S(rot)=       0.01424880 Eh      8.94 kcal/mol|
 --------------------------------------------------------


-------------------
GIBBS FREE ENERGY
-------------------

The Gibbs free energy is G = H - T*S

Total enthalpy                    ...  -1370.67381799 Eh 
Total entropy correction          ...     -0.07853110 Eh    -49.28 kcal/mol
-----------------------------------------------------------------------
Final Gibbs free energy         ...  -1370.75234909 Eh

For completeness - the Gibbs free energy minus the electronic energy
G-E(el)                           ...      0.32613253 Eh    204.65 kcal/mol


Timings for individual modules:

Sum of individual times         ...     7756.959 sec (= 129.283 min)
GTO integral calculation        ...       50.089 sec (=   0.835 min)   0.6 %
SCF iterations                  ...     2503.784 sec (=  41.730 min)  32.3 %
SCF Gradient evaluation         ...      647.342 sec (=  10.789 min)   8.3 %
Geometry relaxation             ...        2.733 sec (=   0.046 min)   0.0 %
Analytical frequency calculation...     4553.011 sec (=  75.884 min)  58.7 %
                             ****ORCA TERMINATED NORMALLY****
TOTAL RUN TIME: 0 days 2 hours 10 minutes 19 seconds 751 msec
