
                                 *****************
                                 * O   R   C   A *
                                 *****************

                                            #,                                       
                                            ###                                      
                                            ####                                     
                                            #####                                    
                                            ######                                   
                                           ########,                                 
                                     ,,################,,,,,                         
                               ,,#################################,,                 
                          ,,##########################################,,             
                       ,#########################################, ''#####,          
                    ,#############################################,,   '####,        
                  ,##################################################,,,,####,       
                ,###########''''           ''''###############################       
              ,#####''   ,,,,##########,,,,          '''####'''          '####       
            ,##' ,,,,###########################,,,                        '##       
           ' ,,###''''                  '''############,,,                           
         ,,##''                                '''############,,,,        ,,,,,,###''
      ,#''                                            '''#######################'''  
     '                                                          ''''####''''         
             ,#######,   #######,   ,#######,      ##                                
            ,#'     '#,  ##    ##  ,#'     '#,    #''#        ######   ,####,        
            ##       ##  ##   ,#'  ##            #'  '#       #        #'  '#        
            ##       ##  #######   ##           ,######,      #####,   #    #        
            '#,     ,#'  ##    ##  '#,     ,#' ,#      #,         ##   #,  ,#        
             '#######'   ##     ##  '#######'  #'      '#     #####' # '####'        



                  #######################################################
                  #                        -***-                        #
                  #          Department of theory and spectroscopy      #
                  #    Directorship and core code : Frank Neese         #
                  #        Max Planck Institute fuer Kohlenforschung    #
                  #                Kaiser Wilhelm Platz 1               #
                  #                 D-45470 Muelheim/Ruhr               #
                  #                      Germany                        #
                  #                                                     #
                  #                  All rights reserved                #
                  #                        -***-                        #
                  #######################################################


                         Program Version 5.0.4 -  RELEASE  -


 With contributions from (in alphabetic order):
   Daniel Aravena         : Magnetic Suceptibility
   Michael Atanasov       : Ab Initio Ligand Field Theory (pilot matlab implementation)
   Alexander A. Auer      : GIAO ZORA, VPT2 properties, NMR spectrum
   Ute Becker             : Parallelization
   Giovanni Bistoni       : ED, misc. LED, open-shell LED, HFLD
   Martin Brehm           : Molecular dynamics
   Dmytro Bykov           : SCF Hessian
   Vijay G. Chilkuri      : MRCI spin determinant printing, contributions to CSF-ICE
   Dipayan Datta          : RHF DLPNO-CCSD density
   Achintya Kumar Dutta   : EOM-CC, STEOM-CC
   Dmitry Ganyushin       : Spin-Orbit,Spin-Spin,Magnetic field MRCI
   Miquel Garcia          : C-PCM and meta-GGA Hessian, CC/C-PCM, Gaussian charge scheme
   Yang Guo               : DLPNO-NEVPT2, F12-NEVPT2, CIM, IAO-localization
   Andreas Hansen         : Spin unrestricted coupled pair/coupled cluster methods
   Benjamin Helmich-Paris : MC-RPA, TRAH-SCF, COSX integrals
   Lee Huntington         : MR-EOM, pCC
   Robert Izsak           : Overlap fitted RIJCOSX, COSX-SCS-MP3, EOM
   Marcus Kettner         : VPT2
   Christian Kollmar      : KDIIS, OOCD, Brueckner-CCSD(T), CCSD density, CASPT2, CASPT2-K
   Simone Kossmann        : Meta GGA functionals, TD-DFT gradient, OOMP2, MP2 Hessian
   Martin Krupicka        : Initial AUTO-CI
   Lucas Lang             : DCDCAS
   Marvin Lechner         : AUTO-CI (C++ implementation), FIC-MRCC
   Dagmar Lenk            : GEPOL surface, SMD
   Dimitrios Liakos       : Extrapolation schemes; Compound Job, initial MDCI parallelization
   Dimitrios Manganas     : Further ROCIS development; embedding schemes
   Dimitrios Pantazis     : SARC Basis sets
   Anastasios Papadopoulos: AUTO-CI, single reference methods and gradients
   Taras Petrenko         : DFT Hessian,TD-DFT gradient, ASA, ECA, R-Raman, ABS, FL, XAS/XES, NRVS
   Peter Pinski           : DLPNO-MP2, DLPNO-MP2 Gradient
   Christoph Reimann      : Effective Core Potentials
   Marius Retegan         : Local ZFS, SOC
   Christoph Riplinger    : Optimizer, TS searches, QM/MM, DLPNO-CCSD(T), (RO)-DLPNO pert. Triples
   Tobias Risthaus        : Range-separated hybrids, TD-DFT gradient, RPA, STAB
   Michael Roemelt        : Original ROCIS implementation
   Masaaki Saitow         : Open-shell DLPNO-CCSD energy and density
   Barbara Sandhoefer     : DKH picture change effects
   Avijit Sen             : IP-ROCIS
   Kantharuban Sivalingam : CASSCF convergence, NEVPT2, FIC-MRCI
   Bernardo de Souza      : ESD, SOC TD-DFT
   Georgi Stoychev        : AutoAux, RI-MP2 NMR, DLPNO-MP2 response
   Willem Van den Heuvel  : Paramagnetic NMR
   Boris Wezisla          : Elementary symmetry handling
   Frank Wennmohs         : Technical directorship


 We gratefully acknowledge several colleagues who have allowed us to
 interface, adapt or use parts of their codes:
   Stefan Grimme, W. Hujo, H. Kruse, P. Pracht,  : VdW corrections, initial TS optimization,
                  C. Bannwarth, S. Ehlert          DFT functionals, gCP, sTDA/sTD-DF
   Ed Valeev, F. Pavosevic, A. Kumar             : LibInt (2-el integral package), F12 methods
   Garnet Chan, S. Sharma, J. Yang, R. Olivares  : DMRG
   Ulf Ekstrom                                   : XCFun DFT Library
   Mihaly Kallay                                 : mrcc  (arbitrary order and MRCC methods)
   Jiri Pittner, Ondrej Demel                    : Mk-CCSD
   Frank Weinhold                                : gennbo (NPA and NBO analysis)
   Christopher J. Cramer and Donald G. Truhlar   : smd solvation model
   Lars Goerigk                                  : TD-DFT with DH, B97 family of functionals
   V. Asgeirsson, H. Jonsson                     : NEB implementation
   FAccTs GmbH                                   : IRC, NEB, NEB-TS, DLPNO-Multilevel, CI-OPT
                                                   MM, QMMM, 2- and 3-layer-ONIOM, Crystal-QMMM,
                                                   LR-CPCM, SF, NACMEs, symmetry and pop. for TD-DFT,
                                                   nearIR, NL-DFT gradient (VV10), updates on ESD,
                                                   ML-optimized integration grids
   S Lehtola, MJT Oliveira, MAL Marques          : LibXC Library
   Liviu Ungur et al                             : ANISO software


 Your calculation uses the libint2 library for the computation of 2-el integrals
 For citations please refer to: http://libint.valeyev.net

 Your ORCA version has been built with support for libXC version: 5.1.0
 For citations please refer to: https://tddft.org/programs/libxc/

 This ORCA versions uses:
   CBLAS   interface :  Fast vector & matrix operations
   LAPACKE interface :  Fast linear algebra routines
   SCALAPACK package :  Parallel linear algebra routines
   Shared memory     :  Shared parallel matrices
   BLAS/LAPACK       :  OpenBLAS 0.3.15  USE64BITINT DYNAMIC_ARCH NO_AFFINITY Haswell SINGLE_THREADED
        Core in use  :  Haswell
   Copyright (c) 2011-2014, The OpenBLAS Project


Your calculation utilizes the atom-pairwise dispersion correction
with the Becke-Johnson damping scheme (D3BJ)
Cite in your paper:
S.Grimme, S.Ehrlich, L.Goerigk, J Comput Chem, (2011), 32, 1456–1465 
S.Grimme, J.Antony, S.Ehrlich and H.Krieg, J.Chem.Phys., 132, (2010), 154104 
   

================================================================================

----- Orbital basis set information -----
Your calculation utilizes the basis: def2-TZVP
   F. Weigend and R. Ahlrichs, Phys. Chem. Chem. Phys. 7, 3297 (2005).

----- AuxJ basis set information -----
Your calculation utilizes the auxiliary basis: def2/J
   F. Weigend, Phys. Chem. Chem. Phys. 8, 1057 (2006).

================================================================================
                                        WARNINGS
                       Please study these warnings very carefully!
================================================================================


WARNING: Geometry Optimization
  ===> : Switching off AutoStart
         For restart on a previous wavefunction, please use MOREAD

INFO   : the flag for use of the SHARK integral package has been found!

================================================================================
                                       INPUT FILE
================================================================================
NAME = 3_CN/3_CN.inp
|  1> %pal nprocs 24 end
|  2> ! PBE0 D3BJ def2-TZVP TightSCF OPT FREQ TightOpt
|  3> ! CPCM(dmso)
|  4> %scf
|  5> MaxIter 800
|  6> end
|  7> 
|  8> %geom
|  9> MaxIter 800
| 10> MaxStep 0.15
| 11> end
| 12> 
| 13> *xyz 0 1
| 14> C       4.11767100      0.65655600      0.70395100
| 15> C       3.97892800      1.52989100     -0.43595900
| 16> C       2.73272700      1.74135600     -0.92760400
| 17> N       1.62706700      1.19306100     -0.34691800
| 18> C       1.68169400      0.25211700      0.73574600
| 19> C       3.05082200      0.05723300      1.27789100
| 20> C       0.33542500      1.13800400     -0.96395500
| 21> C      -0.62174200      2.13064000     -0.31142900
| 22> O      -0.32267700      2.88268600      0.58068500
| 23> O      -1.79265400      2.12367500     -0.93021800
| 24> C      -2.79270300      3.00121900     -0.42579900
| 25> H       5.11215000      0.49377700      1.12913200
| 26> H       2.53238400      2.36863500     -1.79960200
| 27> H       0.95727900      0.52343800      1.52381900
| 28> H       3.15425900     -0.57861500      2.15917500
| 29> H       0.40605900      1.44945000     -2.01682000
| 30> H      -3.67118400      2.86311400     -1.06519200
| 31> H      -2.44878500      4.04417000     -0.46770700
| 32> C       0.95203000     -1.03175500      0.06425200
| 33> C      -0.05876600     -0.39156100     -0.92612600
| 34> C      -1.49951300     -0.76807400     -0.71486800
| 35> C      -2.19976100     -1.44662000     -1.71024600
| 36> C      -3.53399400     -1.81765400     -1.53161300
| 37> C      -4.17301500     -1.50932900     -0.33423400
| 38> C      -3.49480200     -0.83260800      0.68235700
| 39> C      -2.16495100     -0.45949600      0.48722700
| 40> O      -1.42140400      0.21154900      1.38832900
| 41> C      -1.94870000      0.50198900      2.66315300
| 42> N       2.04210300     -1.76855600     -0.67370100
| 43> O       2.34913500     -1.35832500     -1.76750000
| 44> H       0.22639800     -0.78188400     -1.90916300
| 45> H      -1.68513900     -1.68840300     -2.64425300
| 46> H      -4.06609400     -2.34735000     -2.32448000
| 47> H      -5.21582700     -1.79669100     -0.17781100
| 48> H      -4.00669600     -0.59647400      1.61576000
| 49> H      -2.19402200     -0.42428100      3.20725900
| 50> H      -2.84725000      1.13524600      2.59017000
| 51> H      -1.16507000      1.04741900      3.20253500
| 52> O       2.61404800     -2.64704000     -0.07120900
| 53> H      -3.03869900      2.74222700      0.61395100
| 54> H       4.84280300      2.00692100     -0.89678500
| 55> C       0.41183300     -1.94057400      1.05847100
| 56> N      -0.01258800     -2.63366700      1.88183700
| 57> *
| 58> 
| 59>                          ****END OF INPUT****
================================================================================

                       *****************************
                       * Geometry Optimization Run *
                       *****************************

Geometry optimization settings:
Update method            Update   .... BFGS
Choice of coordinates    CoordSys .... Z-matrix Internals
Initial Hessian          InHess   .... Almoef's Model

Convergence Tolerances:
Energy Change            TolE     ....  1.0000e-06 Eh
Max. Gradient            TolMAXG  ....  1.0000e-04 Eh/bohr
RMS Gradient             TolRMSG  ....  3.0000e-05 Eh/bohr
Max. Displacement        TolMAXD  ....  1.0000e-03 bohr
RMS Displacement         TolRMSD  ....  6.0000e-04 bohr
Strict Convergence                ....  False
------------------------------------------------------------------------------
                        ORCA OPTIMIZATION COORDINATE SETUP
------------------------------------------------------------------------------

The optimization will be done in new redundant internal coordinates
Making redundant internal coordinates   ...  (new redundants) done
Evaluating the initial hessian          ...  (Almloef) done
Evaluating the coordinates              ...  done
Calculating the B-matrix                .... done
Calculating the G-matrix                .... done
Diagonalizing the G-matrix              .... done
Small eigenvalue found = 3.933e-03
Small eigenvalue found = 6.466e-03
Small eigenvalue found = 9.446e-03
Small eigenvalue found = 2.005e-02
Small eigenvalue found = 2.299e-02
Small eigenvalue found = 2.748e-02
The first mode is                       ....  114
The number of degrees of freedom        ....  123

    -----------------------------------------------------------------
                    Redundant Internal Coordinates


    -----------------------------------------------------------------
         Definition                    Initial Value    Approx d2E/dq
    -----------------------------------------------------------------
      1. B(C   1,C   0)                  1.4427         0.514841   
      2. B(C   2,C   1)                  1.3563         0.707235   
      3. B(N   3,C   2)                  1.3639         0.615839   
      4. B(C   4,N   3)                  1.4355         0.473544   
      5. B(C   5,C   4)                  1.4854         0.440083   
      6. B(C   5,C   0)                  1.3516         0.719514   
      7. B(C   6,N   3)                  1.4325         0.478677   
      8. B(C   7,C   6)                  1.5255         0.379740   
      9. B(O   8,C   7)                  1.2045         1.106086   
     10. B(O   9,C   7)                  1.3244         0.712143   
     11. B(C  10,O   9)                  1.4229         0.495906   
     12. B(H  11,C   0)                  1.0937         0.355188   
     13. B(H  12,C   2)                  1.0927         0.356544   
     14. B(H  13,C   4)                  1.1043         0.341687   
     15. B(H  14,C   5)                  1.0916         0.357946   
     16. B(H  15,C   6)                  1.1002         0.346814   
     17. B(H  16,C  10)                  1.0953         0.353190   
     18. B(H  17,C  10)                  1.0990         0.348399   
     19. B(C  18,C   4)                  1.6222         0.266210   
     20. B(C  19,C  18)                  1.5532         0.343065   
     21. B(C  19,C   6)                  1.5800         0.310894   
     22. B(C  20,C  19)                  1.5040         0.410952   
     23. B(C  21,C  20)                  1.3934         0.617053   
     24. B(C  22,C  21)                  1.3963         0.610422   
     25. B(C  23,C  22)                  1.3918         0.620661   
     26. B(C  24,C  23)                  1.3969         0.609117   
     27. B(C  25,C  24)                  1.3949         0.613613   
     28. B(C  25,C  20)                  1.4082         0.584363   
     29. B(O  26,C  25)                  1.3473         0.654699   
     30. B(C  27,O  26)                  1.4098         0.520313   
     31. B(N  28,C  18)                  1.5085         0.362029   
     32. B(O  29,N  28)                  1.2079         0.978557   
     33. B(H  30,C  19)                  1.0955         0.352949   
     34. B(H  31,C  21)                  1.0935         0.355546   
     35. B(H  32,C  22)                  1.0919         0.357535   
     36. B(H  33,C  23)                  1.0929         0.356241   
     37. B(H  34,C  24)                  1.0904         0.359533   
     38. B(H  35,C  27)                  1.1019         0.344682   
     39. B(H  36,C  27)                  1.1017         0.344956   
     40. B(H  37,C  27)                  1.0966         0.351491   
     41. B(O  38,N  28)                  1.2091         0.974257   
     42. B(H  39,C  10)                  1.0994         0.347883   
     43. B(H  40,C   1)                  1.0891         0.361256   
     44. B(C  41,C  18)                  1.4513         0.498836   
     45. B(N  42,C  41)                  1.1569         1.317511   
     46. A(C   5,C   0,H  11)          119.1194         0.361105   
     47. A(C   1,C   0,H  11)          118.9922         0.341252   
     48. A(C   1,C   0,C   5)          121.8732         0.431188   
     49. A(C   0,C   1,H  40)          121.5454         0.342221   
     50. A(C   0,C   1,C   2)          117.9805         0.429857   
     51. A(C   2,C   1,H  40)          120.4738         0.361088   
     52. A(N   3,C   2,H  12)          114.9543         0.349752   
     53. A(C   1,C   2,H  12)          123.1790         0.360281   
     54. A(C   1,C   2,N   3)          121.8601         0.441040   
     55. A(C   4,N   3,C   6)          109.5114         0.390167   
     56. A(C   2,N   3,C   4)          123.6261         0.407842   
     57. A(C   2,N   3,C   6)          124.2628         0.408620   
     58. A(H  13,C   4,C  18)          101.2324         0.304373   
     59. A(C   5,C   4,C  18)          117.5050         0.352698   
     60. A(N   3,C   4,C  18)          100.9214         0.354902   
     61. A(N   3,C   4,C   5)          113.3508         0.386943   
     62. A(N   3,C   4,H  13)          110.6242         0.332342   
     63. A(C   5,C   4,H  13)          112.1120         0.330325   
     64. A(C   4,C   5,H  14)          117.2846         0.332878   
     65. A(C   0,C   5,H  14)          121.7564         0.361582   
     66. A(C   0,C   5,C   4)          120.9563         0.419250   
     67. A(C   7,C   6,C  19)          117.5894         0.353157   
     68. A(N   3,C   6,C  19)          104.5869         0.365079   
     69. A(C   7,C   6,H  15)          105.3913         0.323191   
     70. A(N   3,C   6,H  15)          110.0858         0.333761   
     71. A(N   3,C   6,C   7)          110.8840         0.377866   
     72. A(H  15,C   6,C  19)          108.2381         0.312825   
     73. A(C   6,C   7,O   9)          110.5760         0.405042   
     74. A(C   6,C   7,O   8)          124.5597         0.438161   
     75. A(O   8,C   7,O   9)          124.6696         0.488251   
     76. A(C   7,O   9,C  10)          116.9047         0.421960   
     77. A(H  16,C  10,H  39)          110.0556         0.288392   
     78. A(H  16,C  10,H  17)          110.3894         0.288459   
     79. A(O   9,C  10,H  17)          110.5988         0.335982   
     80. A(H  17,C  10,H  39)          109.2475         0.287777   
     81. A(O   9,C  10,H  39)          110.3188         0.335899   
     82. A(O   9,C  10,H  16)          106.2005         0.336747   
     83. A(C  19,C  18,N  28)          111.0788         0.354008   
     84. A(C   4,C  18,N  28)          105.3085         0.339223   
     85. A(C  19,C  18,C  41)          116.9170         0.376313   
     86. A(C   4,C  18,C  41)          112.2998         0.360284   
     87. A(C   4,C  18,C  19)          103.3235         0.338245   
     88. A(N  28,C  18,C  41)          107.3513         0.377441   
     89. A(C  20,C  19,H  30)          106.6311         0.328364   
     90. A(C  18,C  19,H  30)          104.8287         0.318779   
     91. A(C   6,C  19,H  30)          104.9814         0.313715   
     92. A(C  18,C  19,C  20)          115.5090         0.363983   
     93. A(C   6,C  19,C  20)          118.9926         0.357922   
     94. A(C   6,C  19,C  18)          104.5915         0.347154   
     95. A(C  21,C  20,C  25)          118.6221         0.429106   
     96. A(C  19,C  20,C  25)          121.1782         0.399212   
     97. A(C  19,C  20,C  21)          120.1965         0.403058   
     98. A(C  22,C  21,H  31)          120.0147         0.351224   
     99. A(C  20,C  21,H  31)          118.7732         0.351866   
    100. A(C  20,C  21,C  22)          121.2121         0.432482   
    101. A(C  23,C  22,H  32)          120.5574         0.352546   
    102. A(C  21,C  22,H  32)          120.1080         0.351555   
    103. A(C  21,C  22,C  23)          119.3343         0.432935   
    104. A(C  24,C  23,H  33)          119.1081         0.351213   
    105. A(C  22,C  23,H  33)          120.1959         0.352330   
    106. A(C  22,C  23,C  24)          120.6960         0.432769   
    107. A(C  25,C  24,H  34)          120.6215         0.352197   
    108. A(C  23,C  24,H  34)          119.9953         0.351759   
    109. A(C  23,C  24,C  25)          119.3825         0.431881   
    110. A(C  24,C  25,O  26)          124.4587         0.434660   
    111. A(C  20,C  25,O  26)          114.7897         0.430860   
    112. A(C  20,C  25,C  24)          120.7504         0.428676   
    113. A(C  25,O  26,C  27)          120.0653         0.419254   
    114. A(O  26,C  27,H  36)          111.3193         0.338122   
    115. A(O  26,C  27,H  35)          110.8914         0.338077   
    116. A(H  36,C  27,H  37)          109.2399         0.287794   
    117. A(H  35,C  27,H  37)          109.5313         0.287759   
    118. A(O  26,C  27,H  37)          106.2583         0.339182   
    119. A(H  35,C  27,H  36)          109.5306         0.286916   
    120. A(C  18,N  28,O  29)          117.4375         0.419400   
    121. A(O  29,N  28,O  38)          125.2941         0.498911   
    122. A(C  18,N  28,O  38)          116.9319         0.419071   
    123. L(C  18,C  41,N  42,C   4, 2) 179.2080         0.475398   
    124. L(C  18,C  41,N  42,C   4, 1) 177.8525         0.475398   
    125. D(H  40,C   1,C   0,H  11)      1.6855         0.018070   
    126. D(C   2,C   1,C   0,H  11)   -178.5144         0.018070   
    127. D(H  40,C   1,C   0,C   5)   -179.7489         0.018070   
    128. D(C   2,C   1,C   0,C   5)      0.0512         0.018070   
    129. D(H  12,C   2,C   1,H  40)      1.1595         0.035290   
    130. D(N   3,C   2,C   1,C   0)      2.3388         0.035290   
    131. D(H  12,C   2,C   1,C   0)   -178.6428         0.035290   
    132. D(N   3,C   2,C   1,H  40)   -177.8589         0.035290   
    133. D(C   6,N   3,C   2,C   1)   -166.1247         0.030678   
    134. D(C   6,N   3,C   2,H  12)     14.7815         0.030678   
    135. D(C   4,N   3,C   2,C   1)     -6.3444         0.030678   
    136. D(C   4,N   3,C   2,H  12)    174.5618         0.030678   
    137. D(H  13,C   4,N   3,C   2)    134.0447         0.019166   
    138. D(C   5,C   4,N   3,C   2)      7.1349         0.019166   
    139. D(C   5,C   4,N   3,C   6)    169.4943         0.019166   
    140. D(C  18,C   4,N   3,C   6)     42.9383         0.019166   
    141. D(C  18,C   4,N   3,C   2)   -119.4211         0.019166   
    142. D(H  13,C   4,N   3,C   6)    -63.5959         0.019166   
    143. D(H  14,C   5,C   4,C  18)    -67.9528         0.014291   
    144. D(H  14,C   5,C   4,H  13)     48.7010         0.014291   
    145. D(C   0,C   5,C   4,C  18)    112.6274         0.014291   
    146. D(H  14,C   5,C   4,N   3)    174.8245         0.014291   
    147. D(H  14,C   5,C   0,H  11)      0.4905         0.036636   
    148. D(C   0,C   5,C   4,N   3)     -4.5953         0.014291   
    149. D(C   0,C   5,C   4,H  13)   -130.7188         0.014291   
    150. D(H  14,C   5,C   0,C   1)   -178.0734         0.036636   
    151. D(C   4,C   5,C   0,H  11)    179.8840         0.036636   
    152. D(C   4,C   5,C   0,C   1)      1.3202         0.036636   
    153. D(C   7,C   6,N   3,C   4)     90.5678         0.019595   
    154. D(C   7,C   6,N   3,C   2)   -107.2097         0.019595   
    155. D(H  15,C   6,N   3,C   2)      9.0209         0.019595   
    156. D(C  19,C   6,N   3,C   4)    -37.1301         0.019595   
    157. D(C  19,C   6,N   3,C   2)    125.0924         0.019595   
    158. D(H  15,C   6,N   3,C   4)   -153.2016         0.019595   
    159. D(O   9,C   7,C   6,C  19)    -62.9573         0.010761   
    160. D(O   9,C   7,C   6,N   3)    176.8098         0.010761   
    161. D(O   9,C   7,C   6,H  15)     57.7135         0.010761   
    162. D(O   8,C   7,C   6,C  19)    121.9198         0.010761   
    163. D(O   8,C   7,C   6,H  15)   -117.4095         0.010761   
    164. D(O   8,C   7,C   6,N   3)      1.6869         0.010761   
    165. D(C  10,O   9,C   7,O   8)     -5.1012         0.038106   
    166. D(C  10,O   9,C   7,C   6)    179.7823         0.038106   
    167. D(H  39,C  10,O   9,C   7)    -61.4289         0.019432   
    168. D(H  17,C  10,O   9,C   7)     59.5488         0.019432   
    169. D(H  16,C  10,O   9,C   7)    179.3363         0.019432   
    170. D(C  41,C  18,C   4,H  13)    -43.9701         0.006143   
    171. D(C  41,C  18,C   4,C   5)     78.4470         0.006143   
    172. D(C  41,C  18,C   4,N   3)   -157.8023         0.006143   
    173. D(N  28,C  18,C   4,C   5)    -38.0696         0.006143   
    174. D(N  28,C  18,C   4,N   3)     85.6812         0.006143   
    175. D(C  19,C  18,C   4,H  13)     82.8966         0.006143   
    176. D(N  28,C  18,C   4,H  13)   -160.4866         0.006143   
    177. D(C  19,C  18,C   4,N   3)    -30.9356         0.006143   
    178. D(C  19,C  18,C   4,C   5)   -154.6863         0.006143   
    179. D(H  30,C  19,C   6,C   7)    140.3579         0.007978   
    180. D(H  30,C  19,C   6,N   3)    -96.1655         0.007978   
    181. D(C  20,C  19,C   6,H  15)    -97.9626         0.007978   
    182. D(C  20,C  19,C   6,C   7)     21.2133         0.007978   
    183. D(C  20,C  19,C   6,N   3)    144.6898         0.007978   
    184. D(C  18,C  19,C   6,H  15)    131.2679         0.007978   
    185. D(C  18,C  19,C   6,C   7)   -109.5563         0.007978   
    186. D(H  30,C  19,C   6,H  15)     21.1821         0.007978   
    187. D(C  18,C  19,C   6,N   3)     13.9203         0.007978   
    188. D(H  30,C  19,C  18,C  41)   -115.6162         0.009514   
    189. D(H  30,C  19,C  18,C   4)    120.4964         0.009514   
    190. D(C  20,C  19,C  18,C  41)      1.4086         0.009514   
    191. D(C  20,C  19,C  18,N  28)    125.0601         0.009514   
    192. D(C  20,C  19,C  18,C   4)   -122.4788         0.009514   
    193. D(C   6,C  19,C  18,C  41)    134.1871         0.009514   
    194. D(H  30,C  19,C  18,N  28)      8.0352         0.009514   
    195. D(C   6,C  19,C  18,N  28)   -102.1615         0.009514   
    196. D(C   6,C  19,C  18,C   4)     10.2997         0.009514   
    197. D(C  25,C  20,C  19,H  30)    177.4250         0.012506   
    198. D(C  25,C  20,C  19,C  18)     61.4177         0.012506   
    199. D(C  25,C  20,C  19,C   6)    -64.2828         0.012506   
    200. D(C  21,C  20,C  19,H  30)     -1.9109         0.012506   
    201. D(C  21,C  20,C  19,C  18)   -117.9182         0.012506   
    202. D(C  21,C  20,C  19,C   6)    116.3813         0.012506   
    203. D(H  31,C  21,C  20,C  25)   -179.9369         0.026332   
    204. D(H  31,C  21,C  20,C  19)     -0.5842         0.026332   
    205. D(C  22,C  21,C  20,C  25)      0.0321         0.026332   
    206. D(C  22,C  21,C  20,C  19)    179.3848         0.026332   
    207. D(H  32,C  22,C  21,H  31)     -0.1442         0.025736   
    208. D(H  32,C  22,C  21,C  20)    179.8872         0.025736   
    209. D(C  23,C  22,C  21,H  31)    179.6442         0.025736   
    210. D(C  23,C  22,C  21,C  20)     -0.3244         0.025736   
    211. D(H  33,C  23,C  22,H  32)      0.0378         0.026660   
    212. D(H  33,C  23,C  22,C  21)   -179.7496         0.026660   
    213. D(C  24,C  23,C  22,H  32)    179.9555         0.026660   
    214. D(C  24,C  23,C  22,C  21)      0.1681         0.026660   
    215. D(H  34,C  24,C  23,H  33)     -0.1057         0.025620   
    216. D(H  34,C  24,C  23,C  22)    179.9757         0.025620   
    217. D(C  25,C  24,C  23,H  33)   -179.8044         0.025620   
    218. D(C  25,C  24,C  23,C  22)      0.2770         0.025620   
    219. D(O  26,C  25,C  24,H  34)     -0.6954         0.026022   
    220. D(O  26,C  25,C  24,C  23)    179.0013         0.026022   
    221. D(C  20,C  25,C  24,H  34)    179.7272         0.026022   
    222. D(C  20,C  25,C  24,C  23)     -0.5760         0.026022   
    223. D(O  26,C  25,C  20,C  21)   -179.1939         0.023478   
    224. D(O  26,C  25,C  20,C  19)      1.4600         0.023478   
    225. D(C  24,C  25,C  20,C  21)      0.4222         0.023478   
    226. D(C  24,C  25,C  20,C  19)   -178.9239         0.023478   
    227. D(C  27,O  26,C  25,C  24)      4.4732         0.031716   
    228. D(C  27,O  26,C  25,C  20)   -175.9269         0.031716   
    229. D(H  37,C  27,O  26,C  25)   -179.8824         0.021465   
    230. D(H  36,C  27,O  26,C  25)    -61.0479         0.021465   
    231. D(H  35,C  27,O  26,C  25)     61.1662         0.021465   
    232. D(O  38,N  28,C  18,C  41)    -27.4207         0.011270   
    233. D(O  38,N  28,C  18,C  19)   -156.3768         0.011270   
    234. D(O  38,N  28,C  18,C   4)     92.4268         0.011270   
    235. D(O  29,N  28,C  18,C  41)    158.8833         0.011270   
    236. D(O  29,N  28,C  18,C  19)     29.9273         0.011270   
    237. D(O  29,N  28,C  18,C   4)    -81.2692         0.011270   
    -----------------------------------------------------------------

Number of atoms                         .... 43
Number of degrees of freedom            .... 237

         *************************************************************
         *                GEOMETRY OPTIMIZATION CYCLE   1            *
         *************************************************************
---------------------------------
CARTESIAN COORDINATES (ANGSTROEM)
---------------------------------
  C      4.117671    0.656556    0.703951
  C      3.978928    1.529891   -0.435959
  C      2.732727    1.741356   -0.927604
  N      1.627067    1.193061   -0.346918
  C      1.681694    0.252117    0.735746
  C      3.050822    0.057233    1.277891
  C      0.335425    1.138004   -0.963955
  C     -0.621742    2.130640   -0.311429
  O     -0.322677    2.882686    0.580685
  O     -1.792654    2.123675   -0.930218
  C     -2.792703    3.001219   -0.425799
  H      5.112150    0.493777    1.129132
  H      2.532384    2.368635   -1.799602
  H      0.957279    0.523438    1.523819
  H      3.154259   -0.578615    2.159175
  H      0.406059    1.449450   -2.016820
  H     -3.671184    2.863114   -1.065192
  H     -2.448785    4.044170   -0.467707
  C      0.952030   -1.031755    0.064252
  C     -0.058766   -0.391561   -0.926126
  C     -1.499513   -0.768074   -0.714868
  C     -2.199761   -1.446620   -1.710246
  C     -3.533994   -1.817654   -1.531613
  C     -4.173015   -1.509329   -0.334234
  C     -3.494802   -0.832608    0.682357
  C     -2.164951   -0.459496    0.487227
  O     -1.421404    0.211549    1.388329
  C     -1.948700    0.501989    2.663153
  N      2.042103   -1.768556   -0.673701
  O      2.349135   -1.358325   -1.767500
  H      0.226398   -0.781884   -1.909163
  H     -1.685139   -1.688403   -2.644253
  H     -4.066094   -2.347350   -2.324480
  H     -5.215827   -1.796691   -0.177811
  H     -4.006696   -0.596474    1.615760
  H     -2.194022   -0.424281    3.207259
  H     -2.847250    1.135246    2.590170
  H     -1.165070    1.047419    3.202535
  O      2.614048   -2.647040   -0.071209
  H     -3.038699    2.742227    0.613951
  H      4.842803    2.006921   -0.896785
  C      0.411833   -1.940574    1.058471
  N     -0.012588   -2.633667    1.881837

----------------------------
CARTESIAN COORDINATES (A.U.)
----------------------------
  NO LB      ZA    FRAG     MASS         X           Y           Z
   0 C     6.0000    0    12.011    7.781270    1.240711    1.330275
   1 C     6.0000    0    12.011    7.519084    2.891075   -0.823843
   2 C     6.0000    0    12.011    5.164106    3.290686   -1.752918
   3 N     7.0000    0    14.007    3.074711    2.254559   -0.655580
   4 C     6.0000    0    12.011    3.177941    0.476432    1.390358
   5 C     6.0000    0    12.011    5.765218    0.108155    2.414864
   6 C     6.0000    0    12.011    0.633861    2.150516   -1.821611
   7 C     6.0000    0    12.011   -1.174922    4.026326   -0.588516
   8 O     8.0000    0    15.999   -0.609771    5.447487    1.097336
   9 O     8.0000    0    15.999   -3.387625    4.013164   -1.757857
  10 C     6.0000    0    12.011   -5.277444    5.671482   -0.804643
  11 H     1.0000    0     1.008    9.660563    0.933103    2.133750
  12 H     1.0000    0     1.008    4.785512    4.476071   -3.400755
  13 H     1.0000    0     1.008    1.808995    0.989154    2.879601
  14 H     1.0000    0     1.008    5.960686   -1.093424    4.080249
  15 H     1.0000    0     1.008    0.767340    2.739064   -3.811237
  16 H     1.0000    0     1.008   -6.937532    5.410501   -2.012921
  17 H     1.0000    0     1.008   -4.627533    7.642374   -0.883838
  18 C     6.0000    0    12.011    1.799076   -1.949734    0.121419
  19 C     6.0000    0    12.011   -0.111052   -0.739943   -1.750125
  20 C     6.0000    0    12.011   -2.833669   -1.451450   -1.350905
  21 C     6.0000    0    12.011   -4.156946   -2.733716   -3.231897
  22 C     6.0000    0    12.011   -6.678281   -3.434868   -2.894329
  23 C     6.0000    0    12.011   -7.885856   -2.852218   -0.631611
  24 C     6.0000    0    12.011   -6.604219   -1.573401    1.289468
  25 C     6.0000    0    12.011   -4.091164   -0.868322    0.920726
  26 O     8.0000    0    15.999   -2.686064    0.399770    2.623562
  27 C     6.0000    0    12.011   -3.682509    0.948622    5.032630
  28 N     7.0000    0    14.007    3.859015   -3.342086   -1.273110
  29 O     8.0000    0    15.999    4.439222   -2.566862   -3.340091
  30 H     1.0000    0     1.008    0.427830   -1.477547   -3.607795
  31 H     1.0000    0     1.008   -3.184451   -3.190619   -4.996914
  32 H     1.0000    0     1.008   -7.683804   -4.435849   -4.392631
  33 H     1.0000    0     1.008   -9.856485   -3.395254   -0.336014
  34 H     1.0000    0     1.008   -7.571558   -1.127173    3.053344
  35 H     1.0000    0     1.008   -4.146101   -0.801775    6.060841
  36 H     1.0000    0     1.008   -5.380523    2.145304    4.894712
  37 H     1.0000    0     1.008   -2.201663    1.979335    6.051914
  38 O     8.0000    0    15.999    4.939835   -5.002181   -0.134566
  39 H     1.0000    0     1.008   -5.742309    5.182058    1.160199
  40 H     1.0000    0     1.008    9.151571    3.792531   -1.694678
  41 C     6.0000    0    12.011    0.778252   -3.667153    2.000220
  42 N     7.0000    0    14.007   -0.023788   -4.976909    3.556157

--------------------------------
INTERNAL COORDINATES (ANGSTROEM)
--------------------------------
 C      0   0   0     0.000000000000     0.00000000     0.00000000
 C      1   0   0     1.442691391246     0.00000000     0.00000000
 C      2   1   0     1.356262948197   117.98050470     0.00000000
 N      3   2   1     1.363930963510   121.86012833     2.33879317
 C      4   3   2     1.435451516827   123.62608937   353.65563443
 C      1   2   3     1.351577585908   121.87318096     0.05123202
 C      4   3   2     1.432517011690   124.26280059   193.87531177
 C      7   4   3     1.525544189809   110.88397728   252.79030562
 O      8   7   4     1.204524989088   124.55969133     1.68687222
 O      8   7   4     1.324380326602   110.57599519   176.80983881
 C     10   8   7     1.422891423088   116.90470610   179.78234809
 H      1   2   3     1.093738710590   118.99216527   181.48562727
 H      3   2   1     1.092701593983   123.17898277   181.35720186
 H      5   4   3     1.104287657540   110.62415526   134.04465911
 H      6   1   2     1.091633354533   121.75641592   181.92661704
 H      7   4   3     1.100232921293   110.08578135     9.02094305
 H     11  10   8     1.095274060149   106.20051578   179.33628089
 H     11  10   8     1.098991655832   110.59884328    59.54884097
 C      5   4   3     1.622233354766   100.92142975   240.57889025
 C     19   5   4     1.553192033889   103.32347696   329.06441994
 C     20  19   5     1.504042519260   115.50902092   237.52116792
 C     21  20  19     1.393394882474   120.19647229   242.08180087
 C     22  21  20     1.396335803499   121.21213608   179.38478950
 C     23  22  21     1.391807678419   119.33429505   359.67555893
 C     24  23  22     1.396918553993   120.69600387     0.16814946
 C     25  24  23     1.394916471924   119.38245187     0.27704359
 O     26  25  24     1.347274414378   124.45866677   179.00131049
 C     27  26  25     1.409813000434   120.06525824     4.47319238
 N     19   5   4     1.508545487925   105.30846300    85.68116825
 O     29  19   5     1.207871837070   117.43745286   278.73084998
 H     20  19   5     1.095459855309   104.82865057   120.49635681
 H     22  21  20     1.093464173177   118.77317393   359.41577723
 H     23  22  21     1.091946126009   120.10795770   179.88719003
 H     24  23  22     1.092932724973   120.19588673   180.25043437
 H     25  24  23     1.090429224480   119.99532462   179.97573387
 H     28  27  26     1.101912127086   110.89139008    61.16617460
 H     28  27  26     1.101695533638   111.31933318   298.95207439
 H     28  27  26     1.096586888360   106.25834229   180.11760340
 O     29  19   5     1.209070647789   116.93191880    92.42684584
 H     11  10   8     1.099395720648   110.31883202   298.57107529
 H      2   1   3     1.089127283104   121.54542283   180.19990485
 C     19   5   4     1.451287770751   112.29982727   202.19774598
 N     42  19   5     1.156910827093   177.80017349    12.84768249

---------------------------
INTERNAL COORDINATES (A.U.)
---------------------------
 C      0   0   0     0.000000000000     0.00000000     0.00000000
 C      1   0   0     2.726291625220     0.00000000     0.00000000
 C      2   1   0     2.562965537676   117.98050470     0.00000000
 N      3   2   1     2.577455986609   121.86012833     2.33879317
 C      4   3   2     2.712610245325   123.62608937   353.65563443
 C      1   2   3     2.554111486113   121.87318096     0.05123202
 C      4   3   2     2.707064834278   124.26280059   193.87531177
 C      7   4   3     2.882860723934   110.88397728   252.79030562
 O      8   7   4     2.276222350840   124.55969133     1.68687222
 O      8   7   4     2.502716114431   110.57599519   176.80983881
 C     10   8   7     2.688875107942   116.90470610   179.78234809
 H      1   2   3     2.066866625083   118.99216527   181.48562727
 H      3   2   1     2.064906758728   123.17898277   181.35720186
 H      5   4   3     2.086801245820   110.62415526   134.04465911
 H      6   1   2     2.062888078721   121.75641592   181.92661704
 H      7   4   3     2.079138904768   110.08578135     9.02094305
 H     11  10   8     2.069768015269   106.20051578   179.33628089
 H     11  10   8     2.076793252988   110.59884328    59.54884097
 C      5   4   3     3.065576765820   100.92142975   240.57889025
 C     19   5   4     2.935107577438   103.32347696   329.06441994
 C     20  19   5     2.842228455174   115.50902092   237.52116792
 C     21  20  19     2.633134724283   120.19647229   242.08180087
 C     22  21  20     2.638692259603   121.21213608   179.38478950
 C     23  22  21     2.630135343301   119.33429505   359.67555893
 C     24  23  22     2.639793498441   120.69600387     0.16814946
 C     25  24  23     2.636010111632   119.38245187     0.27704359
 O     26  25  24     2.545979670414   124.45866677   179.00131049
 C     27  26  25     2.664160470862   120.06525824     4.47319238
 N     19   5   4     2.850737832741   105.30846300    85.68116825
 O     29  19   5     2.282546976938   117.43745286   278.73084998
 H     20  19   5     2.070119117239   104.82865057   120.49635681
 H     22  21  20     2.066347824559   118.77317393   359.41577723
 H     23  22  21     2.063479131152   120.10795770   179.88719003
 H     24  23  22     2.065343532999   120.19588673   180.25043437
 H     25  24  23     2.060612602692   119.99532462   179.97573387
 H     28  27  26     2.082312143840   110.89139008    61.16617460
 H     28  27  26     2.081902841540   111.31933318   298.95207439
 H     28  27  26     2.072248901050   106.25834229   180.11760340
 O     29  19   5     2.284812400884   116.93191880    92.42684584
 H     11  10   8     2.077556824830   110.31883202   298.57107529
 H      2   1   3     2.058152290048   121.54542283   180.19990485
 C     19   5   4     2.742536428228   112.29982727   202.19774598
 N     42  19   5     2.186244624575   177.80017349    12.84768249

---------------------
BASIS SET INFORMATION
---------------------
There are 4 groups of distinct atoms

 Group   1 Type C   : 11s6p2d1f contracted to 5s3p2d1f pattern {62111/411/11/1}
 Group   2 Type N   : 11s6p2d1f contracted to 5s3p2d1f pattern {62111/411/11/1}
 Group   3 Type O   : 11s6p2d1f contracted to 5s3p2d1f pattern {62111/411/11/1}
 Group   4 Type H   : 5s1p contracted to 3s1p pattern {311/1}

Atom   0C    basis set group =>   1
Atom   1C    basis set group =>   1
Atom   2C    basis set group =>   1
Atom   3N    basis set group =>   2
Atom   4C    basis set group =>   1
Atom   5C    basis set group =>   1
Atom   6C    basis set group =>   1
Atom   7C    basis set group =>   1
Atom   8O    basis set group =>   3
Atom   9O    basis set group =>   3
Atom  10C    basis set group =>   1
Atom  11H    basis set group =>   4
Atom  12H    basis set group =>   4
Atom  13H    basis set group =>   4
Atom  14H    basis set group =>   4
Atom  15H    basis set group =>   4
Atom  16H    basis set group =>   4
Atom  17H    basis set group =>   4
Atom  18C    basis set group =>   1
Atom  19C    basis set group =>   1
Atom  20C    basis set group =>   1
Atom  21C    basis set group =>   1
Atom  22C    basis set group =>   1
Atom  23C    basis set group =>   1
Atom  24C    basis set group =>   1
Atom  25C    basis set group =>   1
Atom  26O    basis set group =>   3
Atom  27C    basis set group =>   1
Atom  28N    basis set group =>   2
Atom  29O    basis set group =>   3
Atom  30H    basis set group =>   4
Atom  31H    basis set group =>   4
Atom  32H    basis set group =>   4
Atom  33H    basis set group =>   4
Atom  34H    basis set group =>   4
Atom  35H    basis set group =>   4
Atom  36H    basis set group =>   4
Atom  37H    basis set group =>   4
Atom  38O    basis set group =>   3
Atom  39H    basis set group =>   4
Atom  40H    basis set group =>   4
Atom  41C    basis set group =>   1
Atom  42N    basis set group =>   2
---------------------------------
AUXILIARY/J BASIS SET INFORMATION
---------------------------------
There are 4 groups of distinct atoms

 Group   1 Type C   : 12s5p4d2f1g contracted to 6s4p3d1f1g pattern {711111/2111/211/2/1}
 Group   2 Type N   : 12s5p4d2f1g contracted to 6s4p3d1f1g pattern {711111/2111/211/2/1}
 Group   3 Type O   : 12s5p4d2f1g contracted to 6s4p3d1f1g pattern {711111/2111/211/2/1}
 Group   4 Type H   : 5s2p1d contracted to 3s1p1d pattern {311/2/1}

Atom   0C    basis set group =>   1
Atom   1C    basis set group =>   1
Atom   2C    basis set group =>   1
Atom   3N    basis set group =>   2
Atom   4C    basis set group =>   1
Atom   5C    basis set group =>   1
Atom   6C    basis set group =>   1
Atom   7C    basis set group =>   1
Atom   8O    basis set group =>   3
Atom   9O    basis set group =>   3
Atom  10C    basis set group =>   1
Atom  11H    basis set group =>   4
Atom  12H    basis set group =>   4
Atom  13H    basis set group =>   4
Atom  14H    basis set group =>   4
Atom  15H    basis set group =>   4
Atom  16H    basis set group =>   4
Atom  17H    basis set group =>   4
Atom  18C    basis set group =>   1
Atom  19C    basis set group =>   1
Atom  20C    basis set group =>   1
Atom  21C    basis set group =>   1
Atom  22C    basis set group =>   1
Atom  23C    basis set group =>   1
Atom  24C    basis set group =>   1
Atom  25C    basis set group =>   1
Atom  26O    basis set group =>   3
Atom  27C    basis set group =>   1
Atom  28N    basis set group =>   2
Atom  29O    basis set group =>   3
Atom  30H    basis set group =>   4
Atom  31H    basis set group =>   4
Atom  32H    basis set group =>   4
Atom  33H    basis set group =>   4
Atom  34H    basis set group =>   4
Atom  35H    basis set group =>   4
Atom  36H    basis set group =>   4
Atom  37H    basis set group =>   4
Atom  38O    basis set group =>   3
Atom  39H    basis set group =>   4
Atom  40H    basis set group =>   4
Atom  41C    basis set group =>   1
Atom  42N    basis set group =>   2


           ************************************************************
           *        Program running with 24 parallel MPI-processes    *
           *              working on a common directory               *
           ************************************************************
------------------------------------------------------------------------------
                           ORCA GTO INTEGRAL CALCULATION
                           -- RI-GTO INTEGRALS CHOSEN --
------------------------------------------------------------------------------
------------------------------------------------------------------------------
                   ___                                                        
                  /   \      - P O W E R E D   B Y -                         
                 /     \                                                     
                 |  |  |   _    _      __       _____    __    __             
                 |  |  |  | |  | |    /  \     |  _  \  |  |  /  |          
                  \  \/   | |  | |   /    \    | | | |  |  | /  /          
                 / \  \   | |__| |  /  /\  \   | |_| |  |  |/  /          
                |  |  |   |  __  | /  /__\  \  |    /   |      \           
                |  |  |   | |  | | |   __   |  |    \   |  |\   \          
                \     /   | |  | | |  |  |  |  | |\  \  |  | \   \       
                 \___/    |_|  |_| |__|  |__|  |_| \__\ |__|  \__/        
                                                                              
                      - O R C A' S   B I G   F R I E N D -                    
                                      &                                       
                       - I N T E G R A L  F E E D E R -                       
                                                                              
 v1 FN, 2020, v2 2021                                                         
------------------------------------------------------------------------------


Reading SHARK input file 3_CN/3_CN.SHARKINP.tmp ... ok
----------------------
SHARK INTEGRAL PACKAGE
----------------------

Number of atoms                             ...     43
Number of basis functions                   ...    908
Number of shells                            ...    354
Maximum angular momentum                    ...      3
Integral batch strategy                     ... SHARK/LIBINT Hybrid
RI-J (if used) integral strategy            ... SPLIT-RIJ (Revised 2003 algorithm where possible)
Printlevel                                  ...      1
Contraction scheme used                     ... SEGMENTED contraction
Coulomb Range Separation                    ... NOT USED
Exchange Range Separation                   ... NOT USED
Finite Nucleus Model                        ... NOT USED
Auxiliary Coulomb fitting basis             ... AVAILABLE
   # of basis functions in Aux-J            ...   1461
   # of shells in Aux-J                     ...    475
   Maximum angular momentum in Aux-J        ...      4
Auxiliary J/K fitting basis                 ... NOT available
Auxiliary Correlation fitting basis         ... NOT available
Auxiliary 'external' fitting basis          ... NOT available
Integral threshold                          ...     2.500000e-11
Primitive cut-off                           ...     2.500000e-12
Primitive pair pre-selection threshold      ...     2.500000e-12

Calculating pre-screening integrals         ... done (  0.1 sec) Dimension = 354
Organizing shell pair data                  ... done (  0.6 sec)
Shell pair information
Total number of shell pairs                 ...     62835
Shell pairs after pre-screening             ...     46908
Total number of primitive shell pairs       ...    194376
Primitive shell pairs kept                  ...     95046
          la=0 lb=0:  11660 shell pairs
          la=1 lb=0:  13335 shell pairs
          la=1 lb=1:   3809 shell pairs
          la=2 lb=0:   6801 shell pairs
          la=2 lb=1:   3959 shell pairs
          la=2 lb=2:   1049 shell pairs
          la=3 lb=0:   3170 shell pairs
          la=3 lb=1:   1902 shell pairs
          la=3 lb=2:    974 shell pairs
          la=3 lb=3:    249 shell pairs

Calculating one electron integrals          ... done (  0.1 sec)
Calculating RI/J V-Matrix + Cholesky decomp.... done (  0.2 sec)
Calculating Nuclear repulsion               ... done (  0.0 sec) ENN=   2549.047616065892 Eh

SHARK setup successfully completed in   1.9 seconds

Maximum memory used throughout the entire GTOINT-calculation: 70.7 MB


           ************************************************************
           *        Program running with 24 parallel MPI-processes    *
           *              working on a common directory               *
           ************************************************************
-------------------------------------------------------------------------------
                                 ORCA SCF
-------------------------------------------------------------------------------

------------
SCF SETTINGS
------------
Hamiltonian:
 Density Functional     Method          .... DFT(GTOs)
 Exchange Functional    Exchange        .... PBE
   PBE kappa parameter   XKappa         ....  0.804000
   PBE mue parameter    XMuePBE         ....  0.219520
 Correlation Functional Correlation     .... PBE
   PBE beta parameter  CBetaPBE         ....  0.066725
 LDA part of GGA corr.  LDAOpt          .... PW91-LDA
 Gradients option       PostSCFGGA      .... off
 Hybrid DFT is turned on
   Fraction HF Exchange ScalHFX         ....  0.250000
   Scaling of DF-GGA-X  ScalDFX         ....  0.750000
   Scaling of DF-GGA-C  ScalDFC         ....  1.000000
   Scaling of DF-LDA-C  ScalLDAC        ....  1.000000
   Perturbative correction              ....  0.000000
   Density functional embedding theory  .... OFF
   NL short-range parameter             ....  6.900000
 RI-approximation to the Coulomb term is turned on
   Number of AuxJ basis functions       .... 1461
   RIJ-COSX (HFX calculated with COS-X)).... on


General Settings:
 Integral files         IntName         .... 3_CN/3_CN
 Hartree-Fock type      HFTyp           .... RHF
 Total Charge           Charge          ....    0
 Multiplicity           Mult            ....    1
 Number of Electrons    NEL             ....  186
 Basis Dimension        Dim             ....  908
 Nuclear Repulsion      ENuc            ....   2549.0476160659 Eh

Convergence Acceleration:
 DIIS                   CNVDIIS         .... on
   Start iteration      DIISMaxIt       ....    12
   Startup error        DIISStart       ....  0.200000
   # of expansion vecs  DIISMaxEq       ....     5
   Bias factor          DIISBfac        ....   1.050
   Max. coefficient     DIISMaxC        ....  10.000
 Trust-Rad. Augm. Hess. CNVTRAH         .... auto
   Auto Start mean grad. ratio tolernc. ....  1.125000
   Auto Start start iteration           ....    20
   Auto Start num. interpolation iter.  ....    10
   Max. Number of Micro iterations      ....    16
   Max. Number of Macro iterations      .... Maxiter - #DIIS iter
   Number of Davidson start vectors     ....     2
   Converg. threshold I  (grad. norm)   ....   1.000e-05
   Converg. threshold II (energy diff.) ....   1.000e-08
   Grad. Scal. Fac. for Micro threshold ....   0.100
   Minimum threshold for Micro iter.    ....   0.010
   NR start threshold (gradient norm)   ....   0.001
   Initial trust radius                 ....   0.400
   Minimum AH scaling param. (alpha)    ....   1.000
   Maximum AH scaling param. (alpha)    .... 1000.000
   Orbital update algorithm             .... Taylor
   White noise on init. David. guess    .... on
   Maximum white noise                  ....   0.010
   Quad. conv. algorithm                .... NR
 SOSCF                  CNVSOSCF        .... on
   Start iteration      SOSCFMaxIt      ....   150
   Startup grad/error   SOSCFStart      ....  0.003300
 Level Shifting         CNVShift        .... on
   Level shift para.    LevelShift      ....    0.2500
   Turn off err/grad.   ShiftErr        ....    0.0010
 Zerner damping         CNVZerner       .... off
 Static damping         CNVDamp         .... on
   Fraction old density DampFac         ....    0.7000
   Max. Damping (<1)    DampMax         ....    0.9800
   Min. Damping (>=0)   DampMin         ....    0.0000
   Turn off err/grad.   DampErr         ....    0.1000
 Fernandez-Rico         CNVRico         .... off

SCF Procedure:
 Maximum # iterations   MaxIter         ....   800
 SCF integral mode      SCFMode         .... Direct
   Integral package                     .... SHARK and LIBINT hybrid scheme
 Reset frequency        DirectResetFreq ....    20
 Integral Threshold     Thresh          ....  2.500e-11 Eh
 Primitive CutOff       TCut            ....  2.500e-12 Eh

Convergence Tolerance:
 Convergence Check Mode ConvCheckMode   .... Total+1el-Energy
 Convergence forced     ConvForced      .... 0
 Energy Change          TolE            ....  1.000e-08 Eh
 1-El. energy change                    ....  1.000e-05 Eh
 Orbital Gradient       TolG            ....  1.000e-05
 Orbital Rotation angle TolX            ....  1.000e-05
 DIIS Error             TolErr          ....  5.000e-07


Diagonalization of the overlap matrix:
Smallest eigenvalue                        ... 5.425e-06
Time for diagonalization                   ...    0.270 sec
Threshold for overlap eigenvalues          ... 1.000e-08
Number of eigenvalues below threshold      ... 0
Time for construction of square roots      ...    0.141 sec
Total time needed                          ...    0.417 sec

Time for model grid setup =    0.360 sec

------------------------------
INITIAL GUESS: MODEL POTENTIAL
------------------------------
Loading Hartree-Fock densities                     ... done
Calculating cut-offs                               ... done
Initializing the effective Hamiltonian             ... done
Setting up the integral package (SHARK)            ... done
Starting the Coulomb interaction                   ... done (   0.8 sec)
Reading the grid                                   ... done
Mapping shells                                     ... done
Starting the XC term evaluation                    ... done (   0.3 sec)
  promolecular density results
     # of electrons  =    185.983178048
     EX              =   -157.485683828
     EC              =     -6.309864315
     EX+EC           =   -163.795548144
Transforming the Hamiltonian                       ... done (   0.1 sec)
Diagonalizing the Hamiltonian                      ... done (   0.3 sec)
Back transforming the eigenvectors                 ... done (   0.1 sec)
Now organizing SCF variables                       ... done
                      ------------------
                      INITIAL GUESS DONE (   2.1 sec)
                      ------------------
-------------------
DFT GRID GENERATION
-------------------

General Integration Accuracy     IntAcc      ... 4.388
Radial Grid Type                 RadialGrid  ... OptM3 with GC (2021)
Angular Grid (max. ang.)         AngularGrid ... 4 (Lebedev-302)
Angular grid pruning method      GridPruning ... 4 (adaptive)
Weight generation scheme         WeightScheme... Becke
Basis function cutoff            BFCut       ... 1.0000e-11
Integration weight cutoff        WCut        ... 1.0000e-14
Angular grids for H and He will be reduced by one unit
Partially contracted basis set               ... off
Rotationally invariant grid construction     ... off

Total number of grid points                  ...   208639
Total number of batches                      ...     3282
Average number of points per batch           ...       63
Average number of grid points per atom       ...     4852
Time for grid setup =    1.621 sec

--------------------
COSX GRID GENERATION
--------------------

GRIDX 1
-------
General Integration Accuracy     IntAcc      ... 3.816
Radial Grid Type                 RadialGrid  ... OptM3 with GC (2021)
Angular Grid (max. ang.)         AngularGrid ... 1 (Lebedev-50)
Angular grid pruning method      GridPruning ... 4 (adaptive)
Weight generation scheme         WeightScheme... Becke
Basis function cutoff            BFCut       ... 1.0000e-11
Integration weight cutoff        WCut        ... 1.0000e-14
Angular grids for H and He will be reduced by one unit
Partially contracted basis set               ... on
Rotationally invariant grid construction     ... off

Total number of grid points                  ...    26449
Total number of batches                      ...      434
Average number of points per batch           ...       60
Average number of grid points per atom       ...      615
UseSFitting                                  ... on

GRIDX 2
-------
General Integration Accuracy     IntAcc      ... 4.020
Radial Grid Type                 RadialGrid  ... OptM3 with GC (2021)
Angular Grid (max. ang.)         AngularGrid ... 2 (Lebedev-110)
Angular grid pruning method      GridPruning ... 4 (adaptive)
Weight generation scheme         WeightScheme... Becke
Basis function cutoff            BFCut       ... 1.0000e-11
Integration weight cutoff        WCut        ... 1.0000e-14
Angular grids for H and He will be reduced by one unit
Partially contracted basis set               ... on
Rotationally invariant grid construction     ... off

Total number of grid points                  ...    57551
Total number of batches                      ...      921
Average number of points per batch           ...       62
Average number of grid points per atom       ...     1338
UseSFitting                                  ... on

GRIDX 3
-------
General Integration Accuracy     IntAcc      ... 4.338
Radial Grid Type                 RadialGrid  ... OptM3 with GC (2021)
Angular Grid (max. ang.)         AngularGrid ... 3 (Lebedev-194)
Angular grid pruning method      GridPruning ... 4 (adaptive)
Weight generation scheme         WeightScheme... Becke
Basis function cutoff            BFCut       ... 1.0000e-11
Integration weight cutoff        WCut        ... 1.0000e-14
Angular grids for H and He will be reduced by one unit
Partially contracted basis set               ... on
Rotationally invariant grid construction     ... off

Total number of grid points                  ...   125788
Total number of batches                      ...     1990
Average number of points per batch           ...       63
Average number of grid points per atom       ...     2925
UseSFitting                                  ... on

Time for X-Grid setup             =    2.754 sec


--------------------
CPCM SOLVATION MODEL
--------------------
CPCM parameters:
  Epsilon                                         ...      47.2000
  Refrac                                          ...       1.4790
  Rsolv                                           ...       1.3000
  Surface type                                    ... GAUSSIAN VDW
  Epsilon function type                           ...         CPCM
Radii:
 Radius for C  used is    3.8550 Bohr (=   2.0400 Ang.)
 Radius for N  used is    3.5149 Bohr (=   1.8600 Ang.)
 Radius for O  used is    3.4469 Bohr (=   1.8240 Ang.)
 Radius for H  used is    2.4944 Bohr (=   1.3200 Ang.)
Calculating surface                               ...        done! (  0.0s)
GEPOL surface points                              ...         2145
GEPOL Volume                                      ...    2646.2633
GEPOL Surface-area                                ...    1275.4413
Calculating surface distance matrix               ...        done! (  0.1s)
Performing Cholesky decomposition & store         ...        done! (  0.4s)
Overall time for CPCM initialization              ...                 0.5s
--------------
SCF ITERATIONS
--------------
ITER       Energy         Delta-E        Max-DP      RMS-DP      [F,P]     Damp
               ***  Starting incremental Fock matrix formation  ***
  0  -1234.8503906299   0.000000000000 0.15455344  0.00084466  0.2634072 0.7000
  1  -1235.1335394943  -0.283148864416 0.11102330  0.00062374  0.1028030 0.7000
                               ***Turning on DIIS***
  2  -1235.2377146765  -0.104175182172 0.11710513  0.00101363  0.0326471 0.0000
  3  -1235.4240640724  -0.186349395964 0.13511533  0.00052914  0.0524064 0.0000
  4  -1235.4518459936  -0.027781921210 0.02284485  0.00018457  0.0228809 0.0000
  5  -1235.4554264920  -0.003580498374 0.01453767  0.00005931  0.0038850 0.0000
                      *** Initiating the SOSCF procedure ***
                           *** Shutting down DIIS ***
                      *** Re-Reading the Fockian *** 
                      *** Removing any level shift *** 
ITER      Energy       Delta-E        Grad      Rot      Max-DP    RMS-DP
  6  -1235.45554051  -0.0001140224  0.000204  0.000204  0.004460  0.000021
               *** Restarting incremental Fock matrix formation ***
  7  -1235.45556286  -0.0000223466  0.000153  0.000880  0.003591  0.000024
  8  -1235.45556184   0.0000010253  0.000228  0.000320  0.001175  0.000007
  9  -1235.45556598  -0.0000041436  0.000087  0.000254  0.000898  0.000005
 10  -1235.45556563   0.0000003470  0.000150  0.000175  0.000454  0.000002
 11  -1235.45556614  -0.0000005098  0.000016  0.000041  0.000511  0.000002
 12  -1235.45556613   0.0000000165  0.000023  0.000026  0.000166  0.000001
                  ***Gradient check signals convergence***
              ***Rediagonalizing the Fockian in SOSCF/NRSCF***

               *****************************************************
               *                     SUCCESS                       *
               *           SCF CONVERGED AFTER  13 CYCLES          *
               *****************************************************

Old exchange energy                            =    -40.065517903 Eh
New exchange energy                            =    -40.065501975 Eh
Exchange energy change after final integration =      0.000015928 Eh
Total energy after final integration           =  -1235.455550240 Eh
Final COS-X integration done in                =    19.494 sec

----------------
TOTAL SCF ENERGY
----------------

Total Energy       :        -1235.45555024 Eh          -33618.45465 eV

Components:
Nuclear Repulsion  :         2549.04761607 Eh           69363.11199 eV
Electronic Energy  :        -3784.50316631 Eh         -102981.56664 eV
One Electron Energy:        -6752.98016610 Eh         -183757.93239 eV
Two Electron Energy:         2968.47699980 Eh           80776.36576 eV
Max COSX asymmetry :            0.00000124 Eh               0.00003 eV
CPCM Dielectric    :           -0.03360974 Eh              -0.91457 eV

Virial components:
Potential Energy   :        -2465.12181519 Eh          -67079.37484 eV
Kinetic Energy     :         1229.66626496 Eh           33460.92019 eV
Virial Ratio       :            2.00470801


DFT components:
N(Alpha)           :       93.000084172742 electrons
N(Beta)            :       93.000084172742 electrons
N(Total)           :      186.000168345485 electrons
E(X)               :     -120.024862191429 Eh       
E(C)               :       -6.302183556287 Eh       
E(XC)              :     -126.327045747716 Eh       
DFET-embed. en.    :        0.000000000000 Eh       
CPCM Solvation Model Properties:
Surface-charge          :           -0.03031389
Charge-correction       :           -0.00001232 Eh              -0.00034 eV
Free-energy (cav+disp)  :  This term is not implemented in the current solvation scheme

---------------
SCF CONVERGENCE
---------------

  Last Energy change         ...   -4.2163e-08  Tolerance :   1.0000e-08
  Last MAX-Density change    ...    1.9984e-15  Tolerance :   1.0000e-07
  Last RMS-Density change    ...    1.4691e-17  Tolerance :   5.0000e-09
  Last Orbital Gradient      ...    2.2655e-06  Tolerance :   1.0000e-05
  Last Orbital Rotation      ...    5.8342e-06  Tolerance :   1.0000e-05

             **** THE GBW FILE WAS UPDATED (3_CN/3_CN.gbw) ****
             **** DENSITY 3_CN/3_CN.scfp WAS UPDATED ****
             **** ENERGY FILE WAS UPDATED (3_CN/3_CN.en.tmp) ****
             **** THE GBW FILE WAS UPDATED (3_CN/3_CN.gbw) ****
             **** DENSITY 3_CN/3_CN.scfp WAS UPDATED ****
----------------
ORBITAL ENERGIES
----------------

  NO   OCC          E(Eh)            E(eV) 
   0   2.0000     -19.265712      -524.2467 
   1   2.0000     -19.264091      -524.2026 
   2   2.0000     -19.262767      -524.1665 
   3   2.0000     -19.254053      -523.9294 
   4   2.0000     -19.204640      -522.5848 
   5   2.0000     -14.640206      -398.3803 
   6   2.0000     -14.437596      -392.8670 
   7   2.0000     -14.406931      -392.0325 
   8   2.0000     -10.362957      -281.9904 
   9   2.0000     -10.343181      -281.4523 
  10   2.0000     -10.306051      -280.4419 
  11   2.0000     -10.297607      -280.2121 
  12   2.0000     -10.297442      -280.2077 
  13   2.0000     -10.291164      -280.0368 
  14   2.0000     -10.280901      -279.7576 
  15   2.0000     -10.274683      -279.5883 
  16   2.0000     -10.273964      -279.5688 
  17   2.0000     -10.272588      -279.5313 
  18   2.0000     -10.248340      -278.8715 
  19   2.0000     -10.240577      -278.6603 
  20   2.0000     -10.237632      -278.5801 
  21   2.0000     -10.236484      -278.5489 
  22   2.0000     -10.232787      -278.4483 
  23   2.0000     -10.232352      -278.4365 
  24   2.0000     -10.227483      -278.3040 
  25   2.0000     -10.216388      -278.0020 
  26   2.0000      -1.299001       -35.3476 
  27   2.0000      -1.157082       -31.4858 
  28   2.0000      -1.120850       -30.4999 
  29   2.0000      -1.118871       -30.4460 
  30   2.0000      -1.064885       -28.9770 
  31   2.0000      -1.031508       -28.0688 
  32   2.0000      -0.961191       -26.1553 
  33   2.0000      -0.908088       -24.7103 
  34   2.0000      -0.886603       -24.1257 
  35   2.0000      -0.861165       -23.4335 
  36   2.0000      -0.816597       -22.2207 
  37   2.0000      -0.800149       -21.7732 
  38   2.0000      -0.786980       -21.4148 
  39   2.0000      -0.781904       -21.2767 
  40   2.0000      -0.751846       -20.4588 
  41   2.0000      -0.724646       -19.7186 
  42   2.0000      -0.714837       -19.4517 
  43   2.0000      -0.678075       -18.4514 
  44   2.0000      -0.672957       -18.3121 
  45   2.0000      -0.653199       -17.7745 
  46   2.0000      -0.635875       -17.3030 
  47   2.0000      -0.617288       -16.7973 
  48   2.0000      -0.605351       -16.4724 
  49   2.0000      -0.599879       -16.3235 
  50   2.0000      -0.586513       -15.9598 
  51   2.0000      -0.569833       -15.5059 
  52   2.0000      -0.558861       -15.2074 
  53   2.0000      -0.552643       -15.0382 
  54   2.0000      -0.543544       -14.7906 
  55   2.0000      -0.527361       -14.3502 
  56   2.0000      -0.525418       -14.2973 
  57   2.0000      -0.519945       -14.1484 
  58   2.0000      -0.507514       -13.8102 
  59   2.0000      -0.504540       -13.7292 
  60   2.0000      -0.490792       -13.3551 
  61   2.0000      -0.486054       -13.2262 
  62   2.0000      -0.484098       -13.1730 
  63   2.0000      -0.470683       -12.8079 
  64   2.0000      -0.464459       -12.6386 
  65   2.0000      -0.459713       -12.5094 
  66   2.0000      -0.448473       -12.2036 
  67   2.0000      -0.444796       -12.1035 
  68   2.0000      -0.437836       -11.9141 
  69   2.0000      -0.428392       -11.6571 
  70   2.0000      -0.416124       -11.3233 
  71   2.0000      -0.413465       -11.2510 
  72   2.0000      -0.405670       -11.0389 
  73   2.0000      -0.400658       -10.9024 
  74   2.0000      -0.395964       -10.7747 
  75   2.0000      -0.385308       -10.4848 
  76   2.0000      -0.382420       -10.4062 
  77   2.0000      -0.380875       -10.3641 
  78   2.0000      -0.373495       -10.1633 
  79   2.0000      -0.372402       -10.1336 
  80   2.0000      -0.367792       -10.0081 
  81   2.0000      -0.361644        -9.8408 
  82   2.0000      -0.354093        -9.6354 
  83   2.0000      -0.348659        -9.4875 
  84   2.0000      -0.345325        -9.3968 
  85   2.0000      -0.342501        -9.3199 
  86   2.0000      -0.332942        -9.0598 
  87   2.0000      -0.330102        -8.9825 
  88   2.0000      -0.314974        -8.5709 
  89   2.0000      -0.302474        -8.2307 
  90   2.0000      -0.275182        -7.4881 
  91   2.0000      -0.244656        -6.6574 
  92   2.0000      -0.208814        -5.6821 
  93   0.0000      -0.082641        -2.2488 
  94   0.0000      -0.034937        -0.9507 
  95   0.0000      -0.022725        -0.6184 
  96   0.0000      -0.008139        -0.2215 
  97   0.0000      -0.002717        -0.0739 
  98   0.0000      -0.002057        -0.0560 
  99   0.0000       0.007018         0.1910 
 100   0.0000       0.041613         1.1324 
 101   0.0000       0.054213         1.4752 
 102   0.0000       0.060236         1.6391 
 103   0.0000       0.068245         1.8570 
 104   0.0000       0.074371         2.0237 
 105   0.0000       0.079613         2.1664 
 106   0.0000       0.088073         2.3966 
 107   0.0000       0.090087         2.4514 
 108   0.0000       0.092710         2.5228 
 109   0.0000       0.100868         2.7448 
 110   0.0000       0.105184         2.8622 
 111   0.0000       0.108263         2.9460 
 112   0.0000       0.114712         3.1215 
 113   0.0000       0.119125         3.2416 
 114   0.0000       0.122844         3.3427 
 115   0.0000       0.128316         3.4916 
 116   0.0000       0.134615         3.6631 
 117   0.0000       0.137111         3.7310 
 118   0.0000       0.140133         3.8132 
 119   0.0000       0.144095         3.9210 
 120   0.0000       0.146054         3.9743 
 121   0.0000       0.150496         4.0952 
 122   0.0000       0.155188         4.2229 
 123   0.0000       0.162020         4.4088 
 124   0.0000       0.170317         4.6346 
 125   0.0000       0.175268         4.7693 
 126   0.0000       0.184572         5.0225 
 127   0.0000       0.192296         5.2326 
 128   0.0000       0.198225         5.3940 
 129   0.0000       0.200157         5.4466 
 130   0.0000       0.204224         5.5572 
 131   0.0000       0.207194         5.6380 
 132   0.0000       0.212903         5.7934 
 133   0.0000       0.215177         5.8553 
 134   0.0000       0.218364         5.9420 
 135   0.0000       0.221545         6.0286 
 136   0.0000       0.224806         6.1173 
 137   0.0000       0.231852         6.3090 
 138   0.0000       0.235394         6.4054 
 139   0.0000       0.240426         6.5423 
 140   0.0000       0.246127         6.6975 
 141   0.0000       0.250354         6.8125 
 142   0.0000       0.256373         6.9763 
 143   0.0000       0.258520         7.0347 
 144   0.0000       0.262386         7.1399 
 145   0.0000       0.263980         7.1833 
 146   0.0000       0.267878         7.2893 
 147   0.0000       0.272635         7.4188 
 148   0.0000       0.282000         7.6736 
 149   0.0000       0.283799         7.7226 
 150   0.0000       0.286865         7.8060 
 151   0.0000       0.290141         7.8951 
 152   0.0000       0.300099         8.1661 
 153   0.0000       0.304841         8.2951 
 154   0.0000       0.308087         8.3835 
 155   0.0000       0.310526         8.4498 
 156   0.0000       0.315253         8.5785 
 157   0.0000       0.321365         8.7448 
 158   0.0000       0.323142         8.7931 
 159   0.0000       0.327724         8.9178 
 160   0.0000       0.331813         9.0291 
 161   0.0000       0.336886         9.1671 
 162   0.0000       0.339679         9.2431 
 163   0.0000       0.345472         9.4008 
 164   0.0000       0.346234         9.4215 
 165   0.0000       0.349882         9.5208 
 166   0.0000       0.356315         9.6958 
 167   0.0000       0.358075         9.7437 
 168   0.0000       0.359636         9.7862 
 169   0.0000       0.364556         9.9201 
 170   0.0000       0.366337         9.9685 
 171   0.0000       0.372535        10.1372 
 172   0.0000       0.377502        10.2724 
 173   0.0000       0.384921        10.4742 
 174   0.0000       0.389339        10.5944 
 175   0.0000       0.392172        10.6716 
 176   0.0000       0.393773        10.7151 
 177   0.0000       0.398818        10.8524 
 178   0.0000       0.402803        10.9608 
 179   0.0000       0.404586        11.0093 
 180   0.0000       0.415431        11.3045 
 181   0.0000       0.419163        11.4060 
 182   0.0000       0.421761        11.4767 
 183   0.0000       0.424390        11.5482 
 184   0.0000       0.428207        11.6521 
 185   0.0000       0.430010        11.7012 
 186   0.0000       0.434732        11.8297 
 187   0.0000       0.436829        11.8867 
 188   0.0000       0.442154        12.0316 
 189   0.0000       0.445539        12.1237 
 190   0.0000       0.449481        12.2310 
 191   0.0000       0.454373        12.3641 
 192   0.0000       0.455408        12.3923 
 193   0.0000       0.459829        12.5126 
 194   0.0000       0.462583        12.5875 
 195   0.0000       0.468088        12.7373 
 196   0.0000       0.470369        12.7994 
 197   0.0000       0.477781        13.0011 
 198   0.0000       0.480714        13.0809 
 199   0.0000       0.484919        13.1953 
 200   0.0000       0.488490        13.2925 
 201   0.0000       0.490988        13.3605 
 202   0.0000       0.498349        13.5608 
 203   0.0000       0.501393        13.6436 
 204   0.0000       0.502060        13.6617 
 205   0.0000       0.505520        13.7559 
 206   0.0000       0.511008        13.9052 
 207   0.0000       0.516928        14.0663 
 208   0.0000       0.521507        14.1909 
 209   0.0000       0.525497        14.2995 
 210   0.0000       0.531265        14.4565 
 211   0.0000       0.533610        14.5203 
 212   0.0000       0.535882        14.5821 
 213   0.0000       0.545517        14.8443 
 214   0.0000       0.546766        14.8782 
 215   0.0000       0.551353        15.0031 
 216   0.0000       0.555029        15.1031 
 217   0.0000       0.564913        15.3721 
 218   0.0000       0.568672        15.4744 
 219   0.0000       0.574291        15.6272 
 220   0.0000       0.577567        15.7164 
 221   0.0000       0.584639        15.9088 
 222   0.0000       0.592053        16.1106 
 223   0.0000       0.594992        16.1906 
 224   0.0000       0.604042        16.4368 
 225   0.0000       0.609053        16.5732 
 226   0.0000       0.616466        16.7749 
 227   0.0000       0.619857        16.8672 
 228   0.0000       0.627847        17.0846 
 229   0.0000       0.640606        17.4318 
 230   0.0000       0.645964        17.5776 
 231   0.0000       0.651895        17.7390 
 232   0.0000       0.660293        17.9675 
 233   0.0000       0.661628        18.0038 
 234   0.0000       0.663873        18.0649 
 235   0.0000       0.668175        18.1820 
 236   0.0000       0.679416        18.4879 
 237   0.0000       0.684261        18.6197 
 238   0.0000       0.690932        18.8012 
 239   0.0000       0.695683        18.9305 
 240   0.0000       0.702138        19.1062 
 241   0.0000       0.709552        19.3079 
 242   0.0000       0.716013        19.4837 
 243   0.0000       0.718620        19.5547 
 244   0.0000       0.722536        19.6612 
 245   0.0000       0.728711        19.8292 
 246   0.0000       0.732839        19.9416 
 247   0.0000       0.742539        20.2055 
 248   0.0000       0.745143        20.2764 
 249   0.0000       0.749597        20.3976 
 250   0.0000       0.754036        20.5184 
 251   0.0000       0.757079        20.6012 
 252   0.0000       0.764159        20.7938 
 253   0.0000       0.767141        20.8750 
 254   0.0000       0.770523        20.9670 
 255   0.0000       0.785913        21.3858 
 256   0.0000       0.792221        21.5574 
 257   0.0000       0.798289        21.7226 
 258   0.0000       0.809440        22.0260 
 259   0.0000       0.813040        22.1240 
 260   0.0000       0.819505        22.2999 
 261   0.0000       0.826665        22.4947 
 262   0.0000       0.832603        22.6563 
 263   0.0000       0.835744        22.7417 
 264   0.0000       0.840192        22.8628 
 265   0.0000       0.846379        23.0311 
 266   0.0000       0.852574        23.1997 
 267   0.0000       0.859877        23.3984 
 268   0.0000       0.865708        23.5571 
 269   0.0000       0.871600        23.7174 
 270   0.0000       0.879052        23.9202 
 271   0.0000       0.881523        23.9875 
 272   0.0000       0.891662        24.2634 
 273   0.0000       0.901920        24.5425 
 274   0.0000       0.903920        24.5969 
 275   0.0000       0.920581        25.0503 
 276   0.0000       0.923026        25.1168 
 277   0.0000       0.933867        25.4118 
 278   0.0000       0.938177        25.5291 
 279   0.0000       0.940157        25.5830 
 280   0.0000       0.945578        25.7305 
 281   0.0000       0.954194        25.9649 
 282   0.0000       0.958070        26.0704 
 283   0.0000       0.969983        26.3946 
 284   0.0000       0.975127        26.5346 
 285   0.0000       0.985156        26.8075 
 286   0.0000       0.987048        26.8589 
 287   0.0000       1.001245        27.2453 
 288   0.0000       1.005148        27.3515 
 289   0.0000       1.011531        27.5252 
 290   0.0000       1.022167        27.8146 
 291   0.0000       1.028321        27.9820 
 292   0.0000       1.032045        28.0834 
 293   0.0000       1.040095        28.3024 
 294   0.0000       1.051065        28.6009 
 295   0.0000       1.055273        28.7154 
 296   0.0000       1.063118        28.9289 
 297   0.0000       1.069939        29.1145 
 298   0.0000       1.076548        29.2944 
 299   0.0000       1.081428        29.4272 
 300   0.0000       1.092200        29.7203 
[...]
 19:    175.09   0.000903    4.56  0.001609  (-0.036964  0.011888  0.010043)
 20:    192.43   0.000606    3.06  0.000983  ( 0.017660  0.004239  0.025551)
 21:    202.53   0.000693    3.50  0.001068  ( 0.017366 -0.027421  0.003775)
 22:    216.62   0.002147   10.85  0.003092  ( 0.019903 -0.036070  0.037352)
 23:    236.36   0.000249    1.26  0.000329  (-0.013778 -0.011374 -0.003184)
 24:    246.68   0.000686    3.47  0.000868  ( 0.015405 -0.019651  0.015622)
 25:    277.19   0.004212   21.29  0.004742  ( 0.063542 -0.000957  0.026523)
 26:    284.64   0.000321    1.62  0.000352  ( 0.015609  0.000614  0.010403)
 27:    301.71   0.000319    1.61  0.000330  (-0.000116 -0.018164  0.000086)
 28:    309.72   0.001647    8.32  0.001660  ( 0.031318  0.025714 -0.004219)
 29:    338.61   0.000604    3.05  0.000556  (-0.021289 -0.001991  0.009953)
 30:    373.36   0.001644    8.31  0.001374  (-0.036453 -0.002915 -0.006052)
 31:    389.94   0.013986   70.68  0.011193  (-0.005338 -0.105563 -0.004532)
 32:    428.99   0.000836    4.22  0.000608  (-0.017074 -0.014410 -0.010422)
 33:    473.64   0.002541   12.84  0.001674  ( 0.030070 -0.012788 -0.024632)
 34:    482.92   0.003876   19.59  0.002504  (-0.040868 -0.012380  0.026097)
 35:    494.22   0.002433   12.30  0.001536  (-0.006289  0.028609 -0.026045)
 36:    504.02   0.000613    3.10  0.000380  ( 0.008068  0.011447  0.013543)
 37:    522.48   0.003635   18.37  0.002171  (-0.040926 -0.015488  0.016010)
 38:    553.93   0.001261    6.37  0.000711  ( 0.019808  0.014052 -0.010990)
 39:    565.79   0.002822   14.26  0.001556  ( 0.031478 -0.016718  0.016910)
 40:    579.97   0.003048   15.40  0.001640  ( 0.019462  0.024787  0.025430)
 41:    599.17   0.003804   19.22  0.001981  ( 0.009197  0.030389 -0.031194)
 42:    611.36   0.002490   12.58  0.001271  (-0.017373  0.022020 -0.022006)
 43:    630.39   0.002327   11.76  0.001152  (-0.025197 -0.022726  0.000680)
 44:    648.13   0.004704   23.77  0.002265  (-0.005183 -0.046854 -0.006522)
 45:    670.08   0.007274   36.76  0.003387  (-0.036120  0.044406  0.010529)
 46:    710.96   0.001006    5.08  0.000441  ( 0.014212 -0.015271 -0.002500)
 47:    717.88   0.017509   88.48  0.007611  (-0.001938 -0.064968 -0.058195)
 48:    743.61   0.030762  155.46  0.012909  (-0.020077 -0.109078 -0.024667)
 49:    766.76   0.009002   45.49  0.003664  (-0.022237  0.046719 -0.031407)
 50:    773.59   0.009938   50.22  0.004009  ( 0.018688 -0.050267  0.033657)
 51:    783.14   0.022773  115.09  0.009075  ( 0.001169  0.091435  0.026698)
 52:    797.61   0.001794    9.07  0.000702  (-0.002272  0.026304  0.002192)
 53:    814.08   0.027671  139.84  0.010607  (-0.047569 -0.090362 -0.013387)
 54:    831.51   0.003329   16.82  0.001249  (-0.030607 -0.008634 -0.015429)
 55:    862.47   0.001782    9.00  0.000645  ( 0.018676  0.008044  0.015204)
 56:    872.32   0.003859   19.50  0.001381  (-0.023964  0.021803  0.018190)
 57:    880.84   0.002578   13.03  0.000913  (-0.009166 -0.000849  0.028787)
 58:    928.80   0.005579   28.20  0.001875  (-0.008620  0.040787 -0.011692)
 59:    932.98   0.007729   39.06  0.002585  ( 0.016203 -0.045238 -0.016617)
 60:    953.08   0.001011    5.11  0.000331  (-0.012858 -0.011904 -0.004901)
 61:    960.94   0.002429   12.28  0.000789  (-0.006129  0.027408 -0.000436)
 62:    986.72   0.006779   34.26  0.002144  ( 0.024374 -0.039326  0.001798)
 63:    992.74   0.000034    0.17  0.000011  ( 0.001178 -0.001248  0.002775)
 64:   1004.34   0.000617    3.12  0.000192  (-0.011060  0.006134  0.005632)
 65:   1013.25   0.005055   25.55  0.001557  (-0.027489  0.021705  0.018170)
 66:   1020.39   0.003882   19.62  0.001187  (-0.028304 -0.009225  0.017347)
 67:   1034.48   0.002311   11.68  0.000697  ( 0.002500  0.007856 -0.025085)
 68:   1046.18   0.010970   55.44  0.003272  ( 0.047843 -0.030710  0.006328)
 69:   1069.70   0.011598   58.61  0.003383  (-0.031898  0.008123  0.047958)
 70:   1079.69   0.001176    5.94  0.000340  (-0.015428 -0.004982 -0.008778)
 71:   1083.75   0.010559   53.36  0.003041  (-0.004218 -0.022422 -0.050200)
 72:   1146.96   0.013333   67.38  0.003628  (-0.015326  0.019767  0.054790)
 73:   1160.10   0.004538   22.93  0.001221  ( 0.012161 -0.031432  0.009212)
 74:   1171.76   0.000281    1.42  0.000075  ( 0.000888  0.006165 -0.006007)
 75:   1172.87   0.000062    0.31  0.000016  ( 0.002671  0.001075 -0.002843)
 76:   1173.37   0.001044    5.28  0.000278  (-0.006182  0.005486  0.014471)
 77:   1197.54   0.005334   26.95  0.001390  (-0.036539  0.002593 -0.006932)
 78:   1205.53   0.001033    5.22  0.000268  ( 0.014508 -0.005053  0.005612)
 79:   1207.16   0.004341   21.94  0.001122  (-0.028589  0.017297  0.002400)
 80:   1207.49   0.003269   16.52  0.000845  (-0.013113  0.007351  0.024877)
 81:   1234.27   0.000236    1.19  0.000060  ( 0.005469 -0.003309  0.004334)
 82:   1240.33   0.014733   74.46  0.003707  (-0.054593 -0.019764 -0.018328)
 83:   1247.02   0.050206  253.72  0.012564  (-0.087133  0.063977 -0.029641)
 84:   1264.16   0.060647  306.48  0.014971  (-0.105987  0.052536 -0.031265)
 85:   1274.08   0.017288   87.37  0.004234  ( 0.062922  0.003699 -0.016172)
 86:   1308.47   0.062127  313.96  0.014817  (-0.047792 -0.061345 -0.093646)
 87:   1319.20   0.005677   28.69  0.001343  (-0.011641 -0.021405 -0.027371)
 88:   1327.25   0.010874   54.95  0.002557  (-0.046896 -0.017288 -0.007657)
 89:   1357.16   0.012788   64.63  0.002940  (-0.049591  0.021934  0.000359)
 90:   1361.15   0.010068   50.88  0.002308  ( 0.017178  0.033229  0.030149)
 91:   1371.04   0.021728  109.81  0.004946  ( 0.067285 -0.017351  0.010831)
 92:   1388.17   0.008530   43.11  0.001918  (-0.028119  0.006766  0.032881)
 93:   1403.74   0.001928    9.74  0.000429  ( 0.001078  0.015887  0.013227)
 94:   1422.91   0.049156  248.41  0.010780  ( 0.062756 -0.068340 -0.046602)
 95:   1446.79   0.015868   80.19  0.003423  (-0.057405 -0.002956  0.010881)
 96:   1464.85   0.004900   24.76  0.001044  ( 0.003606  0.028260  0.015237)
 97:   1465.11   0.003224   16.29  0.000687  ( 0.000234  0.019371 -0.017647)
 98:   1469.33   0.005306   26.81  0.001127  (-0.033105  0.005361  0.001464)
 99:   1472.09   0.005784   29.23  0.001226  (-0.023684  0.012423 -0.022601)
100:   1477.53   0.003813   19.27  0.000805  (-0.003781 -0.018354 -0.021312)
101:   1483.98   0.002222   11.23  0.000467  ( 0.015631  0.012558  0.008078)
102:   1500.67   0.010714   54.14  0.002228  ( 0.011352  0.025211  0.038255)
103:   1503.71   0.027592  139.44  0.005726  ( 0.067571  0.029451 -0.017116)
104:   1541.39   0.031203  157.69  0.006317  ( 0.033420  0.042247  0.058442)
105:   1616.24   0.024529  123.96  0.004736  (-0.048646  0.035652 -0.033145)
106:   1650.89   0.033804  170.83  0.006390  ( 0.012585 -0.067213  0.041401)
107:   1655.77   0.096970  490.05  0.018276  (-0.017136  0.067126 -0.116089)
108:   1666.22   0.014464   73.10  0.002709  ( 0.036322  0.022763  0.029521)
109:   1706.45   0.042845  216.52  0.007835  (-0.085512 -0.022812 -0.001599)
110:   1796.01   0.107530  543.41  0.018684  ( 0.066107  0.080055  0.088909)
111:   2378.73   0.013644   68.95  0.001790  ( 0.021873  0.030458 -0.019590)
112:   3042.50   0.003337   16.86  0.000342  (-0.008453 -0.000579  0.016447)
113:   3043.48   0.008989   45.43  0.000922  (-0.010425  0.007988  0.027371)
114:   3074.39   0.006308   31.88  0.000640  (-0.018394  0.016233  0.006195)
115:   3102.58   0.001543    7.80  0.000155  ( 0.011307 -0.005113  0.001099)
116:   3118.29   0.006507   32.88  0.000651  (-0.008701  0.021962 -0.009651)
117:   3142.71   0.000624    3.16  0.000062  (-0.005481  0.000130  0.005652)
118:   3158.38   0.003793   19.17  0.000375  (-0.006294 -0.012911  0.012979)
119:   3170.17   0.003046   15.40  0.000300  ( 0.013014  0.008689  0.007417)
120:   3188.09   0.000596    3.01  0.000058  (-0.004918  0.000756  0.005799)
121:   3191.18   0.002088   10.55  0.000204  ( 0.009872  0.003401  0.009754)
122:   3192.04   0.002407   12.16  0.000235  (-0.012835  0.003664 -0.007558)
123:   3197.91   0.001516    7.66  0.000148  (-0.010879 -0.001556  0.005215)
124:   3216.37   0.002630   13.29  0.000255  (-0.009544 -0.007574 -0.010332)
125:   3217.34   0.000219    1.11  0.000021  ( 0.004089  0.001483  0.001515)
126:   3218.59   0.000372    1.88  0.000036  (-0.004240  0.000451 -0.004232)
127:   3229.94   0.000208    1.05  0.000020  (-0.003017  0.000674  0.003239)
128:   3248.96   0.000355    1.80  0.000034  ( 0.000783  0.003913 -0.004267)

* The epsilon (eps) is given for a Dirac delta lineshape.
** The dipole moment derivative (T) already includes vibrational overlap.

The first frequency considered to be a vibration is 6
The total number of vibrations considered is 123


--------------------------
THERMOCHEMISTRY AT 298.15K
--------------------------

Temperature         ... 298.15 K
Pressure            ... 1.00 atm
Total Mass          ... 355.35 AMU

Throughout the following assumptions are being made:
  (1) The electronic state is orbitally nondegenerate
  (2) There are no thermally accessible electronically excited states
  (3) Hindered rotations indicated by low frequency modes are not
      treated as such but are treated as vibrations and this may
      cause some error
  (4) All equations used are the standard statistical mechanics
      equations for an ideal gas
  (5) All vibrations are strictly harmonic

freq.      29.17  E(vib)   ...       0.55 
freq.      49.83  E(vib)   ...       0.52 
freq.      62.41  E(vib)   ...       0.51 
freq.      72.21  E(vib)   ...       0.50 
freq.      76.16  E(vib)   ...       0.49 
freq.      92.57  E(vib)   ...       0.47 
freq.      95.55  E(vib)   ...       0.47 
freq.      98.99  E(vib)   ...       0.46 
freq.     114.70  E(vib)   ...       0.44 
freq.     120.44  E(vib)   ...       0.44 
freq.     126.97  E(vib)   ...       0.43 
freq.     146.40  E(vib)   ...       0.41 
freq.     151.56  E(vib)   ...       0.40 
freq.     175.09  E(vib)   ...       0.38 
freq.     192.43  E(vib)   ...       0.36 
freq.     202.53  E(vib)   ...       0.35 
freq.     216.62  E(vib)   ...       0.34 
freq.     236.36  E(vib)   ...       0.32 
freq.     246.68  E(vib)   ...       0.31 
freq.     277.19  E(vib)   ...       0.28 
freq.     284.64  E(vib)   ...       0.28 
freq.     301.71  E(vib)   ...       0.26 
freq.     309.72  E(vib)   ...       0.26 
freq.     338.61  E(vib)   ...       0.23 
freq.     373.36  E(vib)   ...       0.21 
freq.     389.94  E(vib)   ...       0.20 
freq.     428.99  E(vib)   ...       0.18 
freq.     473.64  E(vib)   ...       0.15 
freq.     482.92  E(vib)   ...       0.15 
freq.     494.22  E(vib)   ...       0.14 
freq.     504.02  E(vib)   ...       0.14 
freq.     522.48  E(vib)   ...       0.13 
freq.     553.93  E(vib)   ...       0.12 
freq.     565.79  E(vib)   ...       0.11 
freq.     579.97  E(vib)   ...       0.11 
freq.     599.17  E(vib)   ...       0.10 
freq.     611.36  E(vib)   ...       0.10 
freq.     630.39  E(vib)   ...       0.09 
freq.     648.13  E(vib)   ...       0.08 
freq.     670.08  E(vib)   ...       0.08 
freq.     710.96  E(vib)   ...       0.07 
freq.     717.88  E(vib)   ...       0.07 
freq.     743.61  E(vib)   ...       0.06 
freq.     766.76  E(vib)   ...       0.06 
freq.     773.59  E(vib)   ...       0.05 
freq.     783.14  E(vib)   ...       0.05 
freq.     797.61  E(vib)   ...       0.05 
freq.     814.08  E(vib)   ...       0.05 
freq.     831.51  E(vib)   ...       0.04 
freq.     862.47  E(vib)   ...       0.04 
freq.     872.32  E(vib)   ...       0.04 
freq.     880.84  E(vib)   ...       0.04 
freq.     928.80  E(vib)   ...       0.03 
freq.     932.98  E(vib)   ...       0.03 
freq.     953.08  E(vib)   ...       0.03 
freq.     960.94  E(vib)   ...       0.03 
freq.     986.72  E(vib)   ...       0.02 
freq.     992.74  E(vib)   ...       0.02 
freq.    1004.34  E(vib)   ...       0.02 
freq.    1013.25  E(vib)   ...       0.02 
freq.    1020.39  E(vib)   ...       0.02 
freq.    1034.48  E(vib)   ...       0.02 
freq.    1046.18  E(vib)   ...       0.02 
freq.    1069.70  E(vib)   ...       0.02 
freq.    1079.69  E(vib)   ...       0.02 
freq.    1083.75  E(vib)   ...       0.02 
freq.    1146.96  E(vib)   ...       0.01 
freq.    1160.10  E(vib)   ...       0.01 
freq.    1171.76  E(vib)   ...       0.01 
freq.    1172.87  E(vib)   ...       0.01 
freq.    1173.37  E(vib)   ...       0.01 
freq.    1197.54  E(vib)   ...       0.01 
freq.    1205.53  E(vib)   ...       0.01 
freq.    1207.16  E(vib)   ...       0.01 
freq.    1207.49  E(vib)   ...       0.01 
freq.    1234.27  E(vib)   ...       0.01 
freq.    1240.33  E(vib)   ...       0.01 
freq.    1247.02  E(vib)   ...       0.01 
freq.    1264.16  E(vib)   ...       0.01 
freq.    1274.08  E(vib)   ...       0.01 
freq.    1308.47  E(vib)   ...       0.01 
freq.    1319.20  E(vib)   ...       0.01 
freq.    1327.25  E(vib)   ...       0.01 
freq.    1357.16  E(vib)   ...       0.01 
freq.    1361.15  E(vib)   ...       0.01 
freq.    1371.04  E(vib)   ...       0.01 
freq.    1388.17  E(vib)   ...       0.00 
freq.    1403.74  E(vib)   ...       0.00 
freq.    1422.91  E(vib)   ...       0.00 
freq.    1446.79  E(vib)   ...       0.00 
freq.    1464.85  E(vib)   ...       0.00 
freq.    1465.11  E(vib)   ...       0.00 
freq.    1469.33  E(vib)   ...       0.00 
freq.    1472.09  E(vib)   ...       0.00 
freq.    1477.53  E(vib)   ...       0.00 
freq.    1483.98  E(vib)   ...       0.00 
freq.    1500.67  E(vib)   ...       0.00 
freq.    1503.71  E(vib)   ...       0.00 
freq.    1541.39  E(vib)   ...       0.00 
freq.    1616.24  E(vib)   ...       0.00 
freq.    1650.89  E(vib)   ...       0.00 
freq.    1655.77  E(vib)   ...       0.00 
freq.    1666.22  E(vib)   ...       0.00 
freq.    1706.45  E(vib)   ...       0.00 
freq.    1796.01  E(vib)   ...       0.00 
freq.    2378.73  E(vib)   ...       0.00 
freq.    3042.50  E(vib)   ...       0.00 
freq.    3043.48  E(vib)   ...       0.00 
freq.    3074.39  E(vib)   ...       0.00 
freq.    3102.58  E(vib)   ...       0.00 
freq.    3118.29  E(vib)   ...       0.00 
freq.    3142.71  E(vib)   ...       0.00 
freq.    3158.38  E(vib)   ...       0.00 
freq.    3170.17  E(vib)   ...       0.00 
freq.    3188.09  E(vib)   ...       0.00 
freq.    3191.18  E(vib)   ...       0.00 
freq.    3192.04  E(vib)   ...       0.00 
freq.    3197.91  E(vib)   ...       0.00 
freq.    3216.37  E(vib)   ...       0.00 
freq.    3217.34  E(vib)   ...       0.00 
freq.    3218.59  E(vib)   ...       0.00 
freq.    3229.94  E(vib)   ...       0.00 
freq.    3248.96  E(vib)   ...       0.00 

------------
INNER ENERGY
------------

The inner energy is: U= E(el) + E(ZPE) + E(vib) + E(rot) + E(trans)
    E(el)   - is the total energy from the electronic structure calculation
              = E(kin-el) + E(nuc-el) + E(el-el) + E(nuc-nuc)
    E(ZPE)  - the the zero temperature vibrational energy from the frequency calculation
    E(vib)  - the the finite temperature correction to E(ZPE) due to population
              of excited vibrational states
    E(rot)  - is the rotational thermal energy
    E(trans)- is the translational thermal energy

Summary of contributions to the inner energy U:
Electronic energy                ...  -1235.51752177 Eh
Zero point energy                ...      0.33356736 Eh     209.32 kcal/mol
Thermal vibrational correction   ...      0.02024563 Eh      12.70 kcal/mol
Thermal rotational correction    ...      0.00141627 Eh       0.89 kcal/mol
Thermal translational correction ...      0.00141627 Eh       0.89 kcal/mol
-----------------------------------------------------------------------
Total thermal energy                  -1235.16087623 Eh


Summary of corrections to the electronic energy:
(perhaps to be used in another calculation)
Total thermal correction                  0.02307818 Eh      14.48 kcal/mol
Non-thermal (ZPE) correction              0.33356736 Eh     209.32 kcal/mol
-----------------------------------------------------------------------
Total correction                          0.35664553 Eh     223.80 kcal/mol


--------
ENTHALPY
--------

The enthalpy is H = U + kB*T
                kB is Boltzmann's constant
Total free energy                 ...  -1235.16087623 Eh 
Thermal Enthalpy correction       ...      0.00094421 Eh       0.59 kcal/mol
-----------------------------------------------------------------------
Total Enthalpy                    ...  -1235.15993203 Eh


Note: Only C1 symmetry has been detected, increase convergence thresholds 
      if your molecule has a higher symmetry. Symmetry factor of 1.0 is   
      used for the rotational entropy correction. 
 

Note: Rotational entropy computed according to Herzberg 
Infrared and Raman Spectra, Chapter V,1, Van Nostrand Reinhold, 1945 
Point Group:  C1, Symmetry Number:   1  
Rotational constants in cm-1:     0.011472     0.006889     0.005649 

Vibrational entropy computed according to the QRRHO of S. Grimme
Chem.Eur.J. 2012 18 9955


-------
ENTROPY
-------

The entropy contributions are T*S = T*(S(el)+S(vib)+S(rot)+S(trans))
     S(el)   - electronic entropy
     S(vib)  - vibrational entropy
     S(rot)  - rotational entropy
     S(trans)- translational entropy
The entropies will be listed as multiplied by the temperature to get
units of energy

Electronic entropy                ...      0.00000000 Eh      0.00 kcal/mol
Vibrational entropy               ...      0.03591910 Eh     22.54 kcal/mol
Rotational entropy                ...      0.01641367 Eh     10.30 kcal/mol
Translational entropy             ...      0.02066698 Eh     12.97 kcal/mol
-----------------------------------------------------------------------
Final entropy term                ...      0.07299975 Eh     45.81 kcal/mol

In case the symmetry of your molecule has not been determined correctly
or in case you have a reason to use a different symmetry number we print 
out the resulting rotational entropy values for sn=1,12 :
 --------------------------------------------------------
|  sn= 1 | S(rot)=       0.01641367 Eh     10.30 kcal/mol|
|  sn= 2 | S(rot)=       0.01575921 Eh      9.89 kcal/mol|
|  sn= 3 | S(rot)=       0.01537638 Eh      9.65 kcal/mol|
|  sn= 4 | S(rot)=       0.01510476 Eh      9.48 kcal/mol|
|  sn= 5 | S(rot)=       0.01489407 Eh      9.35 kcal/mol|
|  sn= 6 | S(rot)=       0.01472193 Eh      9.24 kcal/mol|
|  sn= 7 | S(rot)=       0.01457638 Eh      9.15 kcal/mol|
|  sn= 8 | S(rot)=       0.01445030 Eh      9.07 kcal/mol|
|  sn= 9 | S(rot)=       0.01433909 Eh      9.00 kcal/mol|
|  sn=10 | S(rot)=       0.01423961 Eh      8.94 kcal/mol|
|  sn=11 | S(rot)=       0.01414962 Eh      8.88 kcal/mol|
|  sn=12 | S(rot)=       0.01406747 Eh      8.83 kcal/mol|
 --------------------------------------------------------


-------------------
GIBBS FREE ENERGY
-------------------

The Gibbs free energy is G = H - T*S

Total enthalpy                    ...  -1235.15993203 Eh 
Total entropy correction          ...     -0.07299975 Eh    -45.81 kcal/mol
-----------------------------------------------------------------------
Final Gibbs free energy         ...  -1235.23293177 Eh

For completeness - the Gibbs free energy minus the electronic energy
G-E(el)                           ...      0.28458999 Eh    178.58 kcal/mol


Timings for individual modules:

Sum of individual times         ...     6255.575 sec (= 104.260 min)
GTO integral calculation        ...       38.873 sec (=   0.648 min)   0.6 %
SCF iterations                  ...     1981.469 sec (=  33.024 min)  31.7 %
SCF Gradient evaluation         ...      501.260 sec (=   8.354 min)   8.0 %
Geometry relaxation             ...        2.251 sec (=   0.038 min)   0.0 %
Analytical frequency calculation...     3731.722 sec (=  62.195 min)  59.7 %
                             ****ORCA TERMINATED NORMALLY****
TOTAL RUN TIME: 0 days 1 hours 44 minutes 54 seconds 812 msec
