
                                 *****************
                                 * O   R   C   A *
                                 *****************

                                            #,                                       
                                            ###                                      
                                            ####                                     
                                            #####                                    
                                            ######                                   
                                           ########,                                 
                                     ,,################,,,,,                         
                               ,,#################################,,                 
                          ,,##########################################,,             
                       ,#########################################, ''#####,          
                    ,#############################################,,   '####,        
                  ,##################################################,,,,####,       
                ,###########''''           ''''###############################       
              ,#####''   ,,,,##########,,,,          '''####'''          '####       
            ,##' ,,,,###########################,,,                        '##       
           ' ,,###''''                  '''############,,,                           
         ,,##''                                '''############,,,,        ,,,,,,###''
      ,#''                                            '''#######################'''  
     '                                                          ''''####''''         
             ,#######,   #######,   ,#######,      ##                                
            ,#'     '#,  ##    ##  ,#'     '#,    #''#        ######   ,####,        
            ##       ##  ##   ,#'  ##            #'  '#       #        #'  '#        
            ##       ##  #######   ##           ,######,      #####,   #    #        
            '#,     ,#'  ##    ##  '#,     ,#' ,#      #,         ##   #,  ,#        
             '#######'   ##     ##  '#######'  #'      '#     #####' # '####'        



                  #######################################################
                  #                        -***-                        #
                  #          Department of theory and spectroscopy      #
                  #    Directorship and core code : Frank Neese         #
                  #        Max Planck Institute fuer Kohlenforschung    #
                  #                Kaiser Wilhelm Platz 1               #
                  #                 D-45470 Muelheim/Ruhr               #
                  #                      Germany                        #
                  #                                                     #
                  #                  All rights reserved                #
                  #                        -***-                        #
                  #######################################################


                         Program Version 5.0.4 -  RELEASE  -


 With contributions from (in alphabetic order):
   Daniel Aravena         : Magnetic Suceptibility
   Michael Atanasov       : Ab Initio Ligand Field Theory (pilot matlab implementation)
   Alexander A. Auer      : GIAO ZORA, VPT2 properties, NMR spectrum
   Ute Becker             : Parallelization
   Giovanni Bistoni       : ED, misc. LED, open-shell LED, HFLD
   Martin Brehm           : Molecular dynamics
   Dmytro Bykov           : SCF Hessian
   Vijay G. Chilkuri      : MRCI spin determinant printing, contributions to CSF-ICE
   Dipayan Datta          : RHF DLPNO-CCSD density
   Achintya Kumar Dutta   : EOM-CC, STEOM-CC
   Dmitry Ganyushin       : Spin-Orbit,Spin-Spin,Magnetic field MRCI
   Miquel Garcia          : C-PCM and meta-GGA Hessian, CC/C-PCM, Gaussian charge scheme
   Yang Guo               : DLPNO-NEVPT2, F12-NEVPT2, CIM, IAO-localization
   Andreas Hansen         : Spin unrestricted coupled pair/coupled cluster methods
   Benjamin Helmich-Paris : MC-RPA, TRAH-SCF, COSX integrals
   Lee Huntington         : MR-EOM, pCC
   Robert Izsak           : Overlap fitted RIJCOSX, COSX-SCS-MP3, EOM
   Marcus Kettner         : VPT2
   Christian Kollmar      : KDIIS, OOCD, Brueckner-CCSD(T), CCSD density, CASPT2, CASPT2-K
   Simone Kossmann        : Meta GGA functionals, TD-DFT gradient, OOMP2, MP2 Hessian
   Martin Krupicka        : Initial AUTO-CI
   Lucas Lang             : DCDCAS
   Marvin Lechner         : AUTO-CI (C++ implementation), FIC-MRCC
   Dagmar Lenk            : GEPOL surface, SMD
   Dimitrios Liakos       : Extrapolation schemes; Compound Job, initial MDCI parallelization
   Dimitrios Manganas     : Further ROCIS development; embedding schemes
   Dimitrios Pantazis     : SARC Basis sets
   Anastasios Papadopoulos: AUTO-CI, single reference methods and gradients
   Taras Petrenko         : DFT Hessian,TD-DFT gradient, ASA, ECA, R-Raman, ABS, FL, XAS/XES, NRVS
   Peter Pinski           : DLPNO-MP2, DLPNO-MP2 Gradient
   Christoph Reimann      : Effective Core Potentials
   Marius Retegan         : Local ZFS, SOC
   Christoph Riplinger    : Optimizer, TS searches, QM/MM, DLPNO-CCSD(T), (RO)-DLPNO pert. Triples
   Tobias Risthaus        : Range-separated hybrids, TD-DFT gradient, RPA, STAB
   Michael Roemelt        : Original ROCIS implementation
   Masaaki Saitow         : Open-shell DLPNO-CCSD energy and density
   Barbara Sandhoefer     : DKH picture change effects
   Avijit Sen             : IP-ROCIS
   Kantharuban Sivalingam : CASSCF convergence, NEVPT2, FIC-MRCI
   Bernardo de Souza      : ESD, SOC TD-DFT
   Georgi Stoychev        : AutoAux, RI-MP2 NMR, DLPNO-MP2 response
   Willem Van den Heuvel  : Paramagnetic NMR
   Boris Wezisla          : Elementary symmetry handling
   Frank Wennmohs         : Technical directorship


 We gratefully acknowledge several colleagues who have allowed us to
 interface, adapt or use parts of their codes:
   Stefan Grimme, W. Hujo, H. Kruse, P. Pracht,  : VdW corrections, initial TS optimization,
                  C. Bannwarth, S. Ehlert          DFT functionals, gCP, sTDA/sTD-DF
   Ed Valeev, F. Pavosevic, A. Kumar             : LibInt (2-el integral package), F12 methods
   Garnet Chan, S. Sharma, J. Yang, R. Olivares  : DMRG
   Ulf Ekstrom                                   : XCFun DFT Library
   Mihaly Kallay                                 : mrcc  (arbitrary order and MRCC methods)
   Jiri Pittner, Ondrej Demel                    : Mk-CCSD
   Frank Weinhold                                : gennbo (NPA and NBO analysis)
   Christopher J. Cramer and Donald G. Truhlar   : smd solvation model
   Lars Goerigk                                  : TD-DFT with DH, B97 family of functionals
   V. Asgeirsson, H. Jonsson                     : NEB implementation
   FAccTs GmbH                                   : IRC, NEB, NEB-TS, DLPNO-Multilevel, CI-OPT
                                                   MM, QMMM, 2- and 3-layer-ONIOM, Crystal-QMMM,
                                                   LR-CPCM, SF, NACMEs, symmetry and pop. for TD-DFT,
                                                   nearIR, NL-DFT gradient (VV10), updates on ESD,
                                                   ML-optimized integration grids
   S Lehtola, MJT Oliveira, MAL Marques          : LibXC Library
   Liviu Ungur et al                             : ANISO software


 Your calculation uses the libint2 library for the computation of 2-el integrals
 For citations please refer to: http://libint.valeyev.net

 Your ORCA version has been built with support for libXC version: 5.1.0
 For citations please refer to: https://tddft.org/programs/libxc/

 This ORCA versions uses:
   CBLAS   interface :  Fast vector & matrix operations
   LAPACKE interface :  Fast linear algebra routines
   SCALAPACK package :  Parallel linear algebra routines
   Shared memory     :  Shared parallel matrices
   BLAS/LAPACK       :  OpenBLAS 0.3.15  USE64BITINT DYNAMIC_ARCH NO_AFFINITY Haswell SINGLE_THREADED
        Core in use  :  Haswell
   Copyright (c) 2011-2014, The OpenBLAS Project


Your calculation utilizes the atom-pairwise dispersion correction
with the Becke-Johnson damping scheme (D3BJ)
Cite in your paper:
S.Grimme, S.Ehrlich, L.Goerigk, J Comput Chem, (2011), 32, 1456–1465 
S.Grimme, J.Antony, S.Ehrlich and H.Krieg, J.Chem.Phys., 132, (2010), 154104 
   

================================================================================

----- Orbital basis set information -----
Your calculation utilizes the basis: def2-TZVP
   F. Weigend and R. Ahlrichs, Phys. Chem. Chem. Phys. 7, 3297 (2005).

----- AuxJ basis set information -----
Your calculation utilizes the auxiliary basis: def2/J
   F. Weigend, Phys. Chem. Chem. Phys. 8, 1057 (2006).

================================================================================
                                        WARNINGS
                       Please study these warnings very carefully!
================================================================================


WARNING: Geometry Optimization
  ===> : Switching off AutoStart
         For restart on a previous wavefunction, please use MOREAD

INFO   : the flag for use of the SHARK integral package has been found!

================================================================================
                                       INPUT FILE
================================================================================
NAME = 3_CHCH2/3_CHCH2.inp
|  1> %pal nprocs 24 end
|  2> ! PBE0 D3BJ def2-TZVP TightSCF OPT FREQ TightOpt
|  3> ! CPCM(dmso)
|  4> %scf
|  5> MaxIter 800
|  6> end
|  7> 
|  8> %geom
|  9> MaxIter 800
| 10> MaxStep 0.15
| 11> end
| 12> 
| 13> *xyz 0 1
| 14> C       4.10239200      0.33211400      1.21835200
| 15> C       3.99577300      1.54981100      0.44152900
| 16> C       2.81324900      1.80924300     -0.16938800
| 17> N       1.70483800      1.03752000      0.02785400
| 18> C       1.66550900     -0.06367900      0.98260500
| 19> C       3.03506500     -0.45618100      1.45133200
| 20> C       0.62375300      0.98710900     -0.92661100
| 21> C      -0.21148000      2.25367500     -0.97453500
| 22> O      -0.00152700      3.25553700     -0.33770700
| 23> O      -1.18381400      2.12309000     -1.86686800
| 24> C      -2.07411800      3.22452100     -2.00955400
| 25> H       5.08231600      0.03234200      1.60134600
| 26> H       2.67795100      2.64299100     -0.86300200
| 27> H       1.02850200      0.20244800      1.85205700
| 28> H       3.12422500     -1.39183300      2.00724900
| 29> H       1.02347900      0.86684300     -1.94687300
| 30> H      -2.58526200      3.42745300     -1.05733400
| 31> H      -2.80147900      2.93296000     -2.77479100
| 32> C       0.83439200     -1.15007900      0.24377700
| 33> C      -0.17095300     -0.29501200     -0.57756500
| 34> C      -1.44287400     -0.07924300      0.20636700
| 35> C      -1.54705600      0.85233800      1.24006500
| 36> C      -2.72909500      1.00784300      1.96556500
| 37> C      -3.82927200      0.21552100      1.65210900
| 38> C      -3.75317600     -0.72789800      0.62688300
| 39> C      -2.56362600     -0.88302700     -0.09257700
| 40> O      -2.40138200     -1.78739100     -1.07970400
| 41> C      -3.48425300     -2.61235500     -1.44288400
| 42> N       1.78812600     -1.84876000     -0.70802500
| 43> O       2.04828500     -1.30659100     -1.75897000
| 44> H      -0.42551700     -0.82907300     -1.49882200
| 45> H      -0.69055800      1.48383300      1.48491000
| 46> H      -2.78441900      1.74592000      2.76841400
| 47> H      -4.76397400      0.32453300      2.20784000
| 48> H      -4.62279000     -1.34323900      0.39549400
| 49> H      -3.12875200     -3.24811300     -2.26275400
| 50> H      -4.34476800     -2.01819800     -1.79210900
| 51> H      -3.80399900     -3.25049000     -0.60253600
| 52> O       2.29687800     -2.87874400     -0.32748900
| 53> H      -1.52838200      4.12470000     -2.32549400
| 54> H       4.85376800      2.20272900      0.28514800
| 55> C       0.19545200     -2.20495400      1.09436900
| 56> H      -0.34796600     -2.96733600      0.52627500
| 57> C       0.20923400     -2.25860900      2.42511700
| 58> H       0.72637300     -1.52291700      3.04660800
| 59> H      -0.31803000     -3.06069400      2.94802200
| 60> *
| 61> 
| 62>                          ****END OF INPUT****
================================================================================

                       *****************************
                       * Geometry Optimization Run *
                       *****************************

Geometry optimization settings:
Update method            Update   .... BFGS
Choice of coordinates    CoordSys .... Z-matrix Internals
Initial Hessian          InHess   .... Almoef's Model

Convergence Tolerances:
Energy Change            TolE     ....  1.0000e-06 Eh
Max. Gradient            TolMAXG  ....  1.0000e-04 Eh/bohr
RMS Gradient             TolRMSG  ....  3.0000e-05 Eh/bohr
Max. Displacement        TolMAXD  ....  1.0000e-03 bohr
RMS Displacement         TolRMSD  ....  6.0000e-04 bohr
Strict Convergence                ....  False
------------------------------------------------------------------------------
                        ORCA OPTIMIZATION COORDINATE SETUP
------------------------------------------------------------------------------

The optimization will be done in new redundant internal coordinates
Making redundant internal coordinates   ...  (new redundants) done
Evaluating the initial hessian          ...  (Almloef) done
Evaluating the coordinates              ...  done
Calculating the B-matrix                .... done
Calculating the G-matrix                .... done
Diagonalizing the G-matrix              .... done
Small eigenvalue found = 4.702e-03
Small eigenvalue found = 7.391e-03
Small eigenvalue found = 9.865e-03
Small eigenvalue found = 1.443e-02
Small eigenvalue found = 1.862e-02
Small eigenvalue found = 2.174e-02
Small eigenvalue found = 2.454e-02
The first mode is                       ....  122
The number of degrees of freedom        ....  132

    -----------------------------------------------------------------
                    Redundant Internal Coordinates


    -----------------------------------------------------------------
         Definition                    Initial Value    Approx d2E/dq
    -----------------------------------------------------------------
      1. B(C   1,C   0)                  1.4483         0.504319   
      2. B(C   2,C   1)                  1.3561         0.707773   
      3. B(N   3,C   2)                  1.3649         0.613581   
      4. B(C   4,N   3)                  1.4580         0.435915   
      5. B(C   5,C   4)                  1.4998         0.417383   
      6. B(C   5,C   0)                  1.3472         0.731250   
      7. B(C   6,N   3)                  1.4430         0.460569   
      8. B(C   7,C   6)                  1.5179         0.390517   
      9. B(O   8,C   7)                  1.2056         1.101918   
     10. B(O   9,C   7)                  1.3262         0.707460   
     11. B(C  10,O   9)                  1.4234         0.494927   
     12. B(H  11,C   0)                  1.0940         0.354869   
     13. B(H  12,C   2)                  1.0930         0.356217   
     14. B(H  13,C   4)                  1.1102         0.334343   
     15. B(H  14,C   5)                  1.0920         0.357480   
     16. B(H  15,C   6)                  1.1024         0.344125   
     17. B(H  16,C  10)                  1.0996         0.347591   
     18. B(H  17,C  10)                  1.0953         0.353176   
     19. B(C  18,C   4)                  1.5546         0.341252   
     20. B(C  19,C  18)                  1.5545         0.341424   
     21. B(C  19,C   6)                  1.5483         0.349289   
     22. B(C  20,C  19)                  1.5096         0.402649   
     23. B(C  21,C  20)                  1.3954         0.612454   
     24. B(C  22,C  21)                  1.3956         0.612035   
     25. B(C  23,C  22)                  1.3916         0.621243   
     26. B(C  24,C  23)                  1.3953         0.612704   
     27. B(C  25,C  24)                  1.3988         0.604861   
     28. B(C  25,C  20)                  1.4112         0.577956   
     29. B(O  26,C  25)                  1.3486         0.651611   
     30. B(C  27,O  26)                  1.4089         0.522010   
     31. B(N  28,C  18)                  1.5178         0.349939   
     32. B(O  29,N  28)                  1.2108         0.967972   
     33. B(H  30,C  19)                  1.0949         0.353716   
     34. B(H  31,C  21)                  1.0919         0.357548   
     35. B(H  32,C  22)                  1.0920         0.357512   
     36. B(H  33,C  23)                  1.0929         0.356309   
     37. B(H  34,C  24)                  1.0901         0.359910   
     38. B(H  35,C  27)                  1.0967         0.351342   
     39. B(H  36,C  27)                  1.1025         0.343961   
     40. B(H  37,C  27)                  1.1026         0.343862   
     41. B(O  38,N  28)                  1.2102         0.970342   
     42. B(H  39,C  10)                  1.0991         0.348292   
     43. B(H  40,C   1)                  1.0895         0.360822   
     44. B(C  41,C  18)                  1.4982         0.419914   
     45. B(H  42,C  41)                  1.0951         0.353407   
     46. B(C  43,C  41)                  1.3319         0.773451   
     47. B(H  44,C  43)                  1.0931         0.355987   
     48. B(H  45,C  43)                  1.0931         0.356076   
     49. A(C   1,C   0,C   5)          121.7632         0.430842   
     50. A(C   1,C   0,H  11)          118.9538         0.340025   
     51. A(C   5,C   0,H  11)          119.2606         0.362048   
     52. A(C   0,C   1,C   2)          117.8193         0.428327   
     53. A(C   2,C   1,H  40)          120.4936         0.361061   
     54. A(C   0,C   1,H  40)          121.5265         0.340972   
     55. A(N   3,C   2,H  12)          114.9917         0.349482   
     56. A(C   1,C   2,H  12)          122.6698         0.360271   
     57. A(C   1,C   2,N   3)          122.3355         0.440808   
     58. A(C   4,N   3,C   6)          112.7395         0.382007   
     59. A(C   2,N   3,C   4)          122.9269         0.401662   
     60. A(C   2,N   3,C   6)          122.1783         0.405580   
     61. A(H  13,C   4,C  18)          103.4710         0.315708   
     62. A(N   3,C   4,C   5)          112.1900         0.377927   
     63. A(N   3,C   4,C  18)          103.3570         0.365054   
     64. A(N   3,C   4,H  13)          110.3201         0.326653   
     65. A(C   5,C   4,H  13)          109.9941         0.326280   
     66. A(C   5,C   4,C  18)          116.9890         0.364621   
     67. A(C   4,C   5,H  14)          117.2512         0.329901   
     68. A(C   0,C   5,H  14)          121.6499         0.362501   
     69. A(C   0,C   5,C   4)          121.0832         0.416512   
     70. A(C   7,C   6,C  19)          114.5601         0.361935   
     71. A(N   3,C   6,C  19)          105.3286         0.369989   
     72. A(C   7,C   6,H  15)          105.1495         0.324264   
     73. A(N   3,C   6,H  15)          110.1409         0.331207   
     74. A(N   3,C   6,C   7)          113.8266         0.377175   
     75. A(H  15,C   6,C  19)          107.7237         0.318398   
     76. A(C   6,C   7,O   9)          110.0302         0.406576   
     77. A(C   6,C   7,O   8)          125.5151         0.440080   
     78. A(O   8,C   7,O   9)          124.3991         0.487315   
     79. A(C   7,O   9,C  10)          116.7332         0.421315   
     80. A(H  16,C  10,H  39)          109.1830         0.287725   
     81. A(H  16,C  10,H  17)          110.2090         0.288353   
     82. A(O   9,C  10,H  17)          106.2254         0.336634   
     83. A(H  17,C  10,H  39)          110.2997         0.288444   
     84. A(O   9,C  10,H  39)          110.6099         0.335855   
     85. A(O   9,C  10,H  16)          110.2877         0.335742   
     86. A(C  19,C  18,N  28)          109.1632         0.351693   
     87. A(C   4,C  18,N  28)          106.4857         0.351663   
     88. A(C  19,C  18,C  41)          114.2969         0.365029   
     89. A(C   4,C  18,C  41)          116.7578         0.364998   
     90. A(C   4,C  18,C  19)          102.2665         0.352370   
     91. A(N  28,C  18,C  41)          107.4518         0.364289   
     92. A(C  20,C  19,H  30)          108.1059         0.327378   
     93. A(C  18,C  19,H  30)          109.0650         0.318643   
     94. A(C   6,C  19,H  30)          109.4860         0.319829   
     95. A(C  18,C  19,C  20)          110.4354         0.362419   
     96. A(C   6,C  19,C  20)          115.5422         0.363832   
     97. A(C   6,C  19,C  18)          104.0434         0.353761   
     98. A(C  21,C  20,C  25)          118.5464         0.427685   
     99. A(C  19,C  20,C  25)          118.5368         0.397013   
    100. A(C  19,C  20,C  21)          122.8886         0.401081   
    101. A(C  22,C  21,H  31)          118.9040         0.351715   
    102. A(C  20,C  21,H  31)          119.5794         0.351755   
    103. A(C  20,C  21,C  22)          121.5138         0.432105   
    104. A(C  23,C  22,H  32)          120.6914         0.352598   
    105. A(C  21,C  22,H  32)          120.0284         0.351708   
    106. A(C  21,C  22,C  23)          119.2801         0.433214   
    107. A(C  24,C  23,H  33)          119.1903         0.351573   
    108. A(C  22,C  23,H  33)          120.3210         0.352397   
    109. A(C  22,C  23,C  24)          120.4886         0.433299   
    110. A(C  25,C  24,H  34)          120.4372         0.351405   
    111. A(C  23,C  24,H  34)          119.6105         0.352171   
    112. A(C  23,C  24,C  25)          119.9517         0.431223   
    113. A(C  24,C  25,O  26)          123.5843         0.433169   
    114. A(C  20,C  25,O  26)          116.1980         0.429643   
    115. A(C  20,C  25,C  24)          120.2148         0.426730   
    116. A(C  25,O  26,C  27)          119.2670         0.419144   
    117. A(O  26,C  27,H  36)          111.4686         0.338143   
    118. A(O  26,C  27,H  35)          106.4390         0.339343   
    119. A(H  36,C  27,H  37)          109.0863         0.286680   
    120. A(H  35,C  27,H  37)          109.1643         0.287632   
    121. A(O  26,C  27,H  37)          111.4268         0.338126   
    122. A(H  35,C  27,H  36)          109.1851         0.287645   
    123. A(C  18,N  28,O  29)          118.2411         0.416064   
    124. A(O  29,N  28,O  38)          124.3119         0.497531   
    125. A(C  18,N  28,O  38)          117.3074         0.416245   
    126. A(H  42,C  41,C  43)          119.6960         0.365279   
    127. A(C  18,C  41,C  43)          126.2432         0.421152   
    128. A(C  18,C  41,H  42)          114.0343         0.329606   
    129. A(H  44,C  43,H  45)          116.7486         0.289804   
    130. A(C  41,C  43,H  45)          120.1683         0.365750   
    131. A(C  41,C  43,H  44)          123.0818         0.365734   
    132. D(H  40,C   1,C   0,H  11)     -3.9376         0.017327   
    133. D(C   2,C   1,C   0,H  11)    171.4767         0.017327   
    134. D(C   2,C   1,C   0,C   5)     -6.7875         0.017327   
    135. D(H  40,C   1,C   0,C   5)    177.7982         0.017327   
    136. D(N   3,C   2,C   1,H  40)   -178.1996         0.035348   
    137. D(H  12,C   2,C   1,C   0)   -173.0051         0.035348   
    138. D(H  12,C   2,C   1,H  40)      2.4588         0.035348   
    139. D(N   3,C   2,C   1,C   0)      6.3366         0.035348   
    140. D(C   6,N   3,C   2,C   1)   -157.3031         0.030437   
    141. D(C   6,N   3,C   2,H  12)     22.0854         0.030437   
    142. D(C   4,N   3,C   2,C   1)      4.7908         0.030437   
    143. D(C   4,N   3,C   2,H  12)   -175.8207         0.030437   
    144. D(C   5,C   4,N   3,C   6)    149.4869         0.016202   
    145. D(C   5,C   4,N   3,C   2)    -14.1238         0.016202   
    146. D(H  13,C   4,N   3,C   2)    108.8889         0.016202   
    147. D(C  18,C   4,N   3,C   6)     22.5743         0.016202   
    148. D(C  18,C   4,N   3,C   2)   -141.0363         0.016202   
    149. D(H  13,C   4,N   3,C   6)    -87.5005         0.016202   
    150. D(H  14,C   5,C   4,H  13)     68.7335         0.012887   
    151. D(C   0,C   5,C   4,C  18)    132.5407         0.012887   
    152. D(H  14,C   5,C   4,N   3)   -168.0703         0.012887   
    153. D(H  14,C   5,C   0,H  11)     -0.4546         0.037952   
    154. D(C   0,C   5,C   4,N   3)     13.3499         0.012887   
    155. D(C   0,C   5,C   4,H  13)   -109.8463         0.012887   
    156. D(H  14,C   5,C   4,C  18)    -48.8795         0.012887   
    157. D(C   4,C   5,C   0,H  11)    178.0623         0.037952   
    158. D(H  14,C   5,C   0,C   1)    177.8044         0.037952   
    159. D(C   4,C   5,C   0,C   1)     -3.6788         0.037952   
    160. D(C   7,C   6,N   3,C   4)    124.6679         0.018109   
    161. D(C   7,C   6,N   3,C   2)    -71.5815         0.018109   
    162. D(H  15,C   6,N   3,C   2)     46.2101         0.018109   
    163. D(C  19,C   6,N   3,C   4)     -1.6439         0.018109   
    164. D(C  19,C   6,N   3,C   2)    162.1067         0.018109   
    165. D(H  15,C   6,N   3,C   4)   -117.5404         0.018109   
    166. D(O   9,C   7,C   6,C  19)    -58.3377         0.011344   
    167. D(O   9,C   7,C   6,N   3)   -179.6392         0.011344   
    168. D(O   9,C   7,C   6,H  15)     59.7285         0.011344   
    169. D(O   8,C   7,C   6,C  19)    124.2838         0.011344   
    170. D(O   8,C   7,C   6,H  15)   -117.6500         0.011344   
    171. D(O   8,C   7,C   6,N   3)      2.9823         0.011344   
    172. D(C  10,O   9,C   7,O   8)     -3.7998         0.037558   
    173. D(C  10,O   9,C   7,C   6)    178.7862         0.037558   
    174. D(H  39,C  10,O   9,C   7)     60.6584         0.019353   
    175. D(H  17,C  10,O   9,C   7)   -179.6410         0.019353   
    176. D(H  16,C  10,O   9,C   7)    -60.2251         0.019353   
    177. D(C  41,C  18,C   4,H  13)    -43.9242         0.009423   
    178. D(C  41,C  18,C   4,C   5)     77.1779         0.009423   
    179. D(C  41,C  18,C   4,N   3)   -159.0049         0.009423   
    180. D(N  28,C  18,C   4,C   5)    -42.7881         0.009423   
    181. D(N  28,C  18,C   4,N   3)     81.0292         0.009423   
    182. D(C  19,C  18,C   4,H  13)     81.6110         0.009423   
    183. D(N  28,C  18,C   4,H  13)   -163.8902         0.009423   
    184. D(C  19,C  18,C   4,N   3)    -33.4697         0.009423   
    185. D(C  19,C  18,C   4,C   5)   -157.2870         0.009423   
    186. D(H  30,C  19,C   6,C   7)     97.6309         0.009833   
    187. D(H  30,C  19,C   6,N   3)   -136.5094         0.009833   
    188. D(C  20,C  19,C   6,H  15)   -141.2728         0.009833   
    189. D(C  20,C  19,C   6,C   7)    -24.6762         0.009833   
    190. D(C  20,C  19,C   6,N   3)    101.1834         0.009833   
    191. D(C  18,C  19,C   6,H  15)     97.5005         0.009833   
    192. D(C  18,C  19,C   6,C   7)   -145.9029         0.009833   
    193. D(H  30,C  19,C   6,H  15)    -18.9657         0.009833   
    194. D(C  18,C  19,C   6,N   3)    -20.0432         0.009833   
    195. D(H  30,C  19,C  18,C  41)    -83.3814         0.009431   
    196. D(H  30,C  19,C  18,C   4)    149.4854         0.009431   
    197. D(C  20,C  19,C  18,C  41)     35.2820         0.009431   
    198. D(C  20,C  19,C  18,N  28)    155.6291         0.009431   
    199. D(C  20,C  19,C  18,C   4)    -91.8512         0.009431   
    200. D(C   6,C  19,C  18,C  41)    159.8586         0.009431   
    201. D(H  30,C  19,C  18,N  28)     36.9658         0.009431   
    202. D(C   6,C  19,C  18,N  28)    -79.7942         0.009431   
    203. D(C   6,C  19,C  18,C   4)     32.7254         0.009431   
    204. D(C  25,C  20,C  19,H  30)     19.0695         0.012025   
    205. D(C  25,C  20,C  19,C  18)   -100.1768         0.012025   
    206. D(C  25,C  20,C  19,C   6)    142.1091         0.012025   
    207. D(C  21,C  20,C  19,H  30)   -162.8942         0.012025   
    208. D(C  21,C  20,C  19,C  18)     77.8595         0.012025   
    209. D(C  21,C  20,C  19,C   6)    -39.8546         0.012025   
    210. D(H  31,C  21,C  20,C  25)   -179.9297         0.025918   
    211. D(H  31,C  21,C  20,C  19)      2.0342         0.025918   
    212. D(C  22,C  21,C  20,C  25)     -0.5486         0.025918   
    213. D(C  22,C  21,C  20,C  19)   -178.5847         0.025918   
    214. D(H  32,C  22,C  21,H  31)     -0.4876         0.025881   
    215. D(H  32,C  22,C  21,C  20)   -179.8728         0.025881   
    216. D(C  23,C  22,C  21,H  31)    179.4256         0.025881   
    217. D(C  23,C  22,C  21,C  20)      0.0404         0.025881   
    218. D(H  33,C  23,C  22,H  32)      0.0412         0.026713   
    219. D(H  33,C  23,C  22,C  21)   -179.8714         0.026713   
    220. D(C  24,C  23,C  22,H  32)   -179.8898         0.026713   
    221. D(C  24,C  23,C  22,C  21)      0.1976         0.026713   
    222. D(H  34,C  24,C  23,H  33)     -0.1265         0.025940   
    223. D(H  34,C  24,C  23,C  22)    179.8052         0.025940   
    224. D(C  25,C  24,C  23,H  33)   -179.8454         0.025940   
    225. D(C  25,C  24,C  23,C  22)      0.0864         0.025940   
    226. D(O  26,C  25,C  24,H  34)     -0.9708         0.025244   
    227. D(O  26,C  25,C  24,C  23)    178.7458         0.025244   
    228. D(C  20,C  25,C  24,H  34)    179.6770         0.025244   
    229. D(C  20,C  25,C  24,C  23)     -0.6065         0.025244   
    230. D(O  26,C  25,C  20,C  21)   -178.5705         0.022942   
    231. D(O  26,C  25,C  20,C  19)     -0.4477         0.022942   
    232. D(C  24,C  25,C  20,C  21)      0.8281         0.022942   
    233. D(C  24,C  25,C  20,C  19)    178.9509         0.022942   
    234. D(C  27,O  26,C  25,C  24)      1.4213         0.031393   
    235. D(C  27,O  26,C  25,C  20)   -179.2025         0.031393   
    236. D(H  37,C  27,O  26,C  25)    -61.8390         0.021611   
    237. D(H  36,C  27,O  26,C  25)     60.2878         0.021611   
    238. D(H  35,C  27,O  26,C  25)    179.2486         0.021611   
    239. D(O  38,N  28,C  18,C  41)    -29.7279         0.010571   
    240. D(O  38,N  28,C  18,C  19)   -154.1907         0.010571   
    241. D(O  38,N  28,C  18,C   4)     96.0901         0.010571   
    242. D(O  29,N  28,C  18,C  41)    154.3798         0.010571   
    243. D(O  29,N  28,C  18,C  19)     29.9170         0.010571   
    244. D(O  29,N  28,C  18,C   4)    -79.8022         0.010571   
    245. D(C  43,C  41,C  18,N  28)    123.4594         0.013039   
    246. D(C  43,C  41,C  18,C  19)   -115.2443         0.013039   
    247. D(C  43,C  41,C  18,C   4)      4.0102         0.013039   
    248. D(H  42,C  41,C  18,N  28)    -58.4323         0.013039   
    249. D(H  42,C  41,C  18,C  19)     62.8640         0.013039   
    250. D(H  42,C  41,C  18,C   4)   -177.8816         0.013039   
    251. D(H  45,C  43,C  41,H  42)      0.0961         0.042924   
    252. D(H  45,C  43,C  41,C  18)    178.1071         0.042924   
    253. D(H  44,C  43,C  41,H  42)   -179.4822         0.042924   
    254. D(H  44,C  43,C  41,C  18)     -1.4711         0.042924   
    -----------------------------------------------------------------

Number of atoms                         .... 46
Number of degrees of freedom            .... 254

         *************************************************************
         *                GEOMETRY OPTIMIZATION CYCLE   1            *
         *************************************************************
---------------------------------
CARTESIAN COORDINATES (ANGSTROEM)
---------------------------------
  C      4.102392    0.332114    1.218352
  C      3.995773    1.549811    0.441529
  C      2.813249    1.809243   -0.169388
  N      1.704838    1.037520    0.027854
  C      1.665509   -0.063679    0.982605
  C      3.035065   -0.456181    1.451332
  C      0.623753    0.987109   -0.926611
  C     -0.211480    2.253675   -0.974535
  O     -0.001527    3.255537   -0.337707
  O     -1.183814    2.123090   -1.866868
  C     -2.074118    3.224521   -2.009554
  H      5.082316    0.032342    1.601346
  H      2.677951    2.642991   -0.863002
  H      1.028502    0.202448    1.852057
  H      3.124225   -1.391833    2.007249
  H      1.023479    0.866843   -1.946873
  H     -2.585262    3.427453   -1.057334
  H     -2.801479    2.932960   -2.774791
  C      0.834392   -1.150079    0.243777
  C     -0.170953   -0.295012   -0.577565
  C     -1.442874   -0.079243    0.206367
  C     -1.547056    0.852338    1.240065
  C     -2.729095    1.007843    1.965565
  C     -3.829272    0.215521    1.652109
  C     -3.753176   -0.727898    0.626883
  C     -2.563626   -0.883027   -0.092577
  O     -2.401382   -1.787391   -1.079704
  C     -3.484253   -2.612355   -1.442884
  N      1.788126   -1.848760   -0.708025
  O      2.048285   -1.306591   -1.758970
  H     -0.425517   -0.829073   -1.498822
  H     -0.690558    1.483833    1.484910
  H     -2.784419    1.745920    2.768414
  H     -4.763974    0.324533    2.207840
  H     -4.622790   -1.343239    0.395494
  H     -3.128752   -3.248113   -2.262754
  H     -4.344768   -2.018198   -1.792109
  H     -3.803999   -3.250490   -0.602536
  O      2.296878   -2.878744   -0.327489
  H     -1.528382    4.124700   -2.325494
  H      4.853768    2.202729    0.285148
  C      0.195452   -2.204954    1.094369
  H     -0.347966   -2.967336    0.526275
  C      0.209234   -2.258609    2.425117
  H      0.726373   -1.522917    3.046608
  H     -0.318030   -3.060694    2.948022

----------------------------
CARTESIAN COORDINATES (A.U.)
----------------------------
  NO LB      ZA    FRAG     MASS         X           Y           Z
   0 C     6.0000    0    12.011    7.752397    0.627605    2.302352
   1 C     6.0000    0    12.011    7.550917    2.928718    0.834369
   2 C     6.0000    0    12.011    5.316270    3.418974   -0.320097
   3 N     7.0000    0    14.007    3.221677    1.960629    0.052636
   4 C     6.0000    0    12.011    3.147356   -0.120336    1.856854
   5 C     6.0000    0    12.011    5.735442   -0.862057    2.742620
   6 C     6.0000    0    12.011    1.178722    1.865366   -1.751041
   7 C     6.0000    0    12.011   -0.399639    4.258829   -1.841604
   8 O     8.0000    0    15.999   -0.002886    6.152073   -0.638174
   9 O     8.0000    0    15.999   -2.237084    4.012059   -3.527869
  10 C     6.0000    0    12.011   -3.919515    6.093462   -3.797507
  11 H     1.0000    0     1.008    9.604185    0.061118    3.026105
  12 H     1.0000    0     1.008    5.060594    4.994529   -1.630837
  13 H     1.0000    0     1.008    1.943587    0.382571    3.499881
  14 H     1.0000    0     1.008    5.903930   -2.630183    3.793151
  15 H     1.0000    0     1.008    1.934095    1.638096   -3.679057
  16 H     1.0000    0     1.008   -4.885437    6.476948   -1.998072
  17 H     1.0000    0     1.008   -5.294028    5.542491   -5.243595
  18 C     6.0000    0    12.011    1.576772   -2.173334    0.460672
  19 C     6.0000    0    12.011   -0.323054   -0.557492   -1.091440
  20 C     6.0000    0    12.011   -2.726637   -0.149748    0.389977
  21 C     6.0000    0    12.011   -2.923512    1.610685    2.343383
  22 C     6.0000    0    12.011   -5.157242    1.904547    3.714380
  23 C     6.0000    0    12.011   -7.236275    0.407276    3.122034
  24 C     6.0000    0    12.011   -7.092475   -1.375528    1.184637
  25 C     6.0000    0    12.011   -4.844551   -1.668679   -0.174945
  26 O     8.0000    0    15.999   -4.537954   -3.377679   -2.040345
  27 C     6.0000    0    12.011   -6.584284   -4.936636   -2.726656
  28 N     7.0000    0    14.007    3.379068   -3.493650   -1.337973
  29 O     8.0000    0    15.999    3.870698   -2.469099   -3.323972
  30 H     1.0000    0     1.008   -0.804111   -1.566721   -2.832363
  31 H     1.0000    0     1.008   -1.304965    2.804038    2.806073
  32 H     1.0000    0     1.008   -5.261789    3.299311    5.231544
  33 H     1.0000    0     1.008   -9.002606    0.613278    4.172213
  34 H     1.0000    0     1.008   -8.735807   -2.538354    0.747375
  35 H     1.0000    0     1.008   -5.912484   -6.138044   -4.275985
  36 H     1.0000    0     1.008   -8.210422   -3.813842   -3.386595
  37 H     1.0000    0     1.008   -7.188516   -6.142536   -1.138628
  38 O     8.0000    0    15.999    4.340470   -5.440038   -0.618865
  39 H     1.0000    0     1.008   -2.888223    7.794553   -4.394547
  40 H     1.0000    0     1.008    9.172292    4.162555    0.538852
  41 C     6.0000    0    12.011    0.369351   -4.166759    2.068058
  42 H     1.0000    0     1.008   -0.657560   -5.607452    0.994516
  43 C     6.0000    0    12.011    0.395395   -4.268152    4.582807
  44 H     1.0000    0     1.008    1.372646   -2.877896    5.757255
  45 H     1.0000    0     1.008   -0.600990   -5.783873    5.570954

--------------------------------
INTERNAL COORDINATES (ANGSTROEM)
--------------------------------
 C      0   0   0     0.000000000000     0.00000000     0.00000000
 C      1   0   0     1.448311972021     0.00000000     0.00000000
 C      2   1   0     1.356055881625   117.81925703     0.00000000
 N      3   2   1     1.364930672311   122.33552364     6.33660077
 C      4   3   2     1.457990219392   122.92685184     4.79075370
 C      1   2   3     1.347173193154   121.76316206   353.21254841
 C      4   3   2     1.443014027087   122.17829738   202.69685976
 C      7   4   3     1.517926317850   113.82657978   288.41849944
 O      8   7   4     1.205552832039   125.51513681     2.98232040
 O      8   7   4     1.326176471164   110.03015518   180.36080497
 C     10   8   7     1.423429223661   116.73323848   178.78624982
 H      1   2   3     1.093982953156   118.95379812   171.47667569
 H      3   2   1     1.092950894278   122.66982773   186.99493996
 H      5   4   3     1.110201908881   110.32008500   108.88888768
 H      6   1   2     1.091988040957   121.64987310   177.80438512
 H      7   4   3     1.102351729021   110.14092041    46.21013059
 H     11  10   8     1.099623805563   110.28767815   299.77494425
 H     11  10   8     1.095285125988   106.22535831   180.35901279
 C      5   4   3     1.554634118136   103.35695781   218.96365454
 C      7   4   3     1.548297450490   105.32862121   162.10668814
 C     20   7   4     1.509598844801   115.54217395   101.18342178
 C     21  20   7     1.395431332560   122.88856485   320.14538932
 C     22  21  20     1.395617516566   121.51382683   181.41530821
 C     23  22  21     1.391552459287   119.28012128     0.04038614
 C     24  23  22     1.395320164641   120.48863908     0.19755628
 C     25  24  23     1.398826973125   119.95170930     0.08638293
 O     26  25  24     1.348561112505   123.58428405   178.74575832
 C     27  26  25     1.408926866923   119.26697578     1.42128344
 N     19   5   4     1.517791398619   106.48569039    81.02916369
 O     29  19   5     1.210832491663   118.24108749   280.19779650
 H     20   7   4     1.094869143718   109.48600046   223.49057489
 H     22  21  20     1.091935819109   119.57937513     2.03420656
 H     23  22  21     1.091963790474   120.02843258   180.12718321
 H     24  23  22     1.092880775432   120.32102325   180.12857355
 H     25  24  23     1.090143992598   119.61045567   179.80524845
 H     28  27  26     1.096702335397   106.43902893   179.24864069
 H     28  27  26     1.102482066294   111.46859284    60.28782306
 H     28  27  26     1.102559995576   111.42675253   298.16101612
 O     29  19   5     1.210166635243   117.30740157    96.09008859
 H     11  10   8     1.099076019817   110.60990773    60.65841906
 H      2   1   3     1.089455071084   121.52652910   184.58568901
 C     19   5   4     1.498169663185   116.75777097   200.99512859
 H     42  19   5     1.095107405456   114.03432521   182.11844617
 C     42  19   5     1.331900537598   126.24323892     4.01015445
 H     44  42  19     1.093126949291   123.08176805   358.52887566
 H     44  42  19     1.093058695563   120.16833901   178.10714221

---------------------------
INTERNAL COORDINATES (A.U.)
---------------------------
 C      0   0   0     0.000000000000     0.00000000     0.00000000
 C      1   0   0     2.736912983599     0.00000000     0.00000000
 C      2   1   0     2.562574238564   117.81925703     0.00000000
 N      3   2   1     2.579345162456   122.33552364     6.33660077
 C      4   3   2     2.755202220587   122.92685184     4.79075370
 C      1   2   3     2.545788390022   121.76316206   353.21254841
 C      4   3   2     2.726901318602   122.17829738   202.69685976
 C      7   4   3     2.868465032208   113.82657978   288.41849944
 O      8   7   4     2.278164692527   125.51513681     2.98232040
 O      8   7   4     2.506110335751   110.03015518   180.36080497
 C     10   8   7     2.689891403740   116.73323848   178.78624982
 H      1   2   3     2.067328176643   118.95379812   171.47667569
 H      3   2   1     2.065377868011   122.66982773   186.99493996
 H      5   4   3     2.097977561141   110.32008500   108.88888768
 H      6   1   2     2.063558338926   121.64987310   177.80438512
 H      7   4   3     2.083142871105   110.14092041    46.21013059
 H     11  10   8     2.077987842854   110.28767815   299.77494425
 H     11  10   8     2.069788926675   106.22535831   180.35901279
 C      5   4   3     2.937832721728   103.35695781   218.96365454
 C      7   4   3     2.925858155274   105.32862121   162.10668814
 C     20   7   4     2.852728388759   115.54217395   101.18342178
 C     21  20   7     2.636983057230   122.88856485   320.14538932
 C     22  21  20     2.637334894013   121.51382683   181.41530821
 C     23  22  21     2.629653049038   119.28012128     0.04038614
 C     24  23  22     2.636772980309   120.48863908     0.19755628
 C     25  24  23     2.643399887948   119.95170930     0.08638293
 O     26  25  24     2.548411177491   123.58428405   178.74575832
 C     27  26  25     2.662485921208   119.26697578     1.42128344
 N     19   5   4     2.868210071811   106.48569039    81.02916369
 O     29  19   5     2.288141803297   118.24108749   280.19779650
 H     20   7   4     2.069002834108   109.48600046   223.49057489
 H     22  21  20     2.063459653936   119.57937513     2.03420656
 H     23  22  21     2.063512512154   120.02843258   180.12718321
 H     24  23  22     2.065245362594   120.32102325   180.12857355
 H     25  24  23     2.060073592550   119.61045567   179.80524845
 H     28  27  26     2.072467064332   106.43902893   179.24864069
 H     28  27  26     2.083389172855   111.46859284    60.28782306
 H     28  27  26     2.083536437856   111.42675253   298.16101612
 O     29  19   5     2.286883517019   117.30740157    96.09008859
 H     11  10   8     2.076952677815   110.60990773    60.65841906
 H      2   1   3     2.058771719560   121.52652910   184.58568901
 C     19   5   4     2.831130365569   116.75777097   200.99512859
 H     42  19   5     2.069453083540   114.03432521   182.11844617
 C     42  19   5     2.516927253682   126.24323892     4.01015445
 H     44  42  19     2.065710563769   123.08176805   358.52887566
 H     44  42  19     2.065581582915   120.16833901   178.10714221

---------------------
BASIS SET INFORMATION
---------------------
There are 4 groups of distinct atoms

 Group   1 Type C   : 11s6p2d1f contracted to 5s3p2d1f pattern {62111/411/11/1}
 Group   2 Type N   : 11s6p2d1f contracted to 5s3p2d1f pattern {62111/411/11/1}
 Group   3 Type O   : 11s6p2d1f contracted to 5s3p2d1f pattern {62111/411/11/1}
 Group   4 Type H   : 5s1p contracted to 3s1p pattern {311/1}

Atom   0C    basis set group =>   1
Atom   1C    basis set group =>   1
Atom   2C    basis set group =>   1
Atom   3N    basis set group =>   2
Atom   4C    basis set group =>   1
Atom   5C    basis set group =>   1
Atom   6C    basis set group =>   1
Atom   7C    basis set group =>   1
Atom   8O    basis set group =>   3
Atom   9O    basis set group =>   3
Atom  10C    basis set group =>   1
Atom  11H    basis set group =>   4
Atom  12H    basis set group =>   4
Atom  13H    basis set group =>   4
Atom  14H    basis set group =>   4
Atom  15H    basis set group =>   4
Atom  16H    basis set group =>   4
Atom  17H    basis set group =>   4
Atom  18C    basis set group =>   1
Atom  19C    basis set group =>   1
Atom  20C    basis set group =>   1
Atom  21C    basis set group =>   1
Atom  22C    basis set group =>   1
Atom  23C    basis set group =>   1
Atom  24C    basis set group =>   1
Atom  25C    basis set group =>   1
Atom  26O    basis set group =>   3
Atom  27C    basis set group =>   1
Atom  28N    basis set group =>   2
Atom  29O    basis set group =>   3
Atom  30H    basis set group =>   4
Atom  31H    basis set group =>   4
Atom  32H    basis set group =>   4
Atom  33H    basis set group =>   4
Atom  34H    basis set group =>   4
Atom  35H    basis set group =>   4
Atom  36H    basis set group =>   4
Atom  37H    basis set group =>   4
Atom  38O    basis set group =>   3
Atom  39H    basis set group =>   4
Atom  40H    basis set group =>   4
Atom  41C    basis set group =>   1
Atom  42H    basis set group =>   4
Atom  43C    basis set group =>   1
Atom  44H    basis set group =>   4
Atom  45H    basis set group =>   4
---------------------------------
AUXILIARY/J BASIS SET INFORMATION
---------------------------------
There are 4 groups of distinct atoms

 Group   1 Type C   : 12s5p4d2f1g contracted to 6s4p3d1f1g pattern {711111/2111/211/2/1}
 Group   2 Type N   : 12s5p4d2f1g contracted to 6s4p3d1f1g pattern {711111/2111/211/2/1}
 Group   3 Type O   : 12s5p4d2f1g contracted to 6s4p3d1f1g pattern {711111/2111/211/2/1}
 Group   4 Type H   : 5s2p1d contracted to 3s1p1d pattern {311/2/1}

Atom   0C    basis set group =>   1
Atom   1C    basis set group =>   1
Atom   2C    basis set group =>   1
Atom   3N    basis set group =>   2
Atom   4C    basis set group =>   1
Atom   5C    basis set group =>   1
Atom   6C    basis set group =>   1
Atom   7C    basis set group =>   1
Atom   8O    basis set group =>   3
Atom   9O    basis set group =>   3
Atom  10C    basis set group =>   1
Atom  11H    basis set group =>   4
Atom  12H    basis set group =>   4
Atom  13H    basis set group =>   4
Atom  14H    basis set group =>   4
Atom  15H    basis set group =>   4
Atom  16H    basis set group =>   4
Atom  17H    basis set group =>   4
Atom  18C    basis set group =>   1
Atom  19C    basis set group =>   1
Atom  20C    basis set group =>   1
Atom  21C    basis set group =>   1
Atom  22C    basis set group =>   1
Atom  23C    basis set group =>   1
Atom  24C    basis set group =>   1
Atom  25C    basis set group =>   1
Atom  26O    basis set group =>   3
Atom  27C    basis set group =>   1
Atom  28N    basis set group =>   2
Atom  29O    basis set group =>   3
Atom  30H    basis set group =>   4
Atom  31H    basis set group =>   4
Atom  32H    basis set group =>   4
Atom  33H    basis set group =>   4
Atom  34H    basis set group =>   4
Atom  35H    basis set group =>   4
Atom  36H    basis set group =>   4
Atom  37H    basis set group =>   4
Atom  38O    basis set group =>   3
Atom  39H    basis set group =>   4
Atom  40H    basis set group =>   4
Atom  41C    basis set group =>   1
Atom  42H    basis set group =>   4
Atom  43C    basis set group =>   1
Atom  44H    basis set group =>   4
Atom  45H    basis set group =>   4


           ************************************************************
           *        Program running with 24 parallel MPI-processes    *
           *              working on a common directory               *
           ************************************************************
------------------------------------------------------------------------------
                           ORCA GTO INTEGRAL CALCULATION
                           -- RI-GTO INTEGRALS CHOSEN --
------------------------------------------------------------------------------
------------------------------------------------------------------------------
                   ___                                                        
                  /   \      - P O W E R E D   B Y -                         
                 /     \                                                     
                 |  |  |   _    _      __       _____    __    __             
                 |  |  |  | |  | |    /  \     |  _  \  |  |  /  |          
                  \  \/   | |  | |   /    \    | | | |  |  | /  /          
                 / \  \   | |__| |  /  /\  \   | |_| |  |  |/  /          
                |  |  |   |  __  | /  /__\  \  |    /   |      \           
                |  |  |   | |  | | |   __   |  |    \   |  |\   \          
                \     /   | |  | | |  |  |  |  | |\  \  |  | \   \       
                 \___/    |_|  |_| |__|  |__|  |_| \__\ |__|  \__/        
                                                                              
                      - O R C A' S   B I G   F R I E N D -                    
                                      &                                       
                       - I N T E G R A L  F E E D E R -                       
                                                                              
 v1 FN, 2020, v2 2021                                                         
------------------------------------------------------------------------------


Reading SHARK input file 3_CHCH2/3_CHCH2.SHARKINP.tmp ... ok
----------------------
SHARK INTEGRAL PACKAGE
----------------------

Number of atoms                             ...     46
Number of basis functions                   ...    926
Number of shells                            ...    366
Maximum angular momentum                    ...      3
Integral batch strategy                     ... SHARK/LIBINT Hybrid
RI-J (if used) integral strategy            ... SPLIT-RIJ (Revised 2003 algorithm where possible)
Printlevel                                  ...      1
Contraction scheme used                     ... SEGMENTED contraction
Coulomb Range Separation                    ... NOT USED
Exchange Range Separation                   ... NOT USED
Finite Nucleus Model                        ... NOT USED
Auxiliary Coulomb fitting basis             ... AVAILABLE
   # of basis functions in Aux-J            ...   1494
   # of shells in Aux-J                     ...    490
   Maximum angular momentum in Aux-J        ...      4
Auxiliary J/K fitting basis                 ... NOT available
Auxiliary Correlation fitting basis         ... NOT available
Auxiliary 'external' fitting basis          ... NOT available
Integral threshold                          ...     2.500000e-11
Primitive cut-off                           ...     2.500000e-12
Primitive pair pre-selection threshold      ...     2.500000e-12

Calculating pre-screening integrals         ... done (  0.1 sec) Dimension = 366
Organizing shell pair data                  ... done (  1.3 sec)
Shell pair information
Total number of shell pairs                 ...     67161
Shell pairs after pre-screening             ...     49229
Total number of primitive shell pairs       ...    205752
Primitive shell pairs kept                  ...     99115
          la=0 lb=0:  12716 shell pairs
          la=1 lb=0:  14169 shell pairs
          la=1 lb=1:   3952 shell pairs
          la=2 lb=0:   7008 shell pairs
          la=2 lb=1:   3983 shell pairs
          la=2 lb=2:   1042 shell pairs
          la=3 lb=0:   3286 shell pairs
          la=3 lb=1:   1899 shell pairs
          la=3 lb=2:    934 shell pairs
          la=3 lb=3:    240 shell pairs

Calculating one electron integrals          ... done (  0.1 sec)
Calculating RI/J V-Matrix + Cholesky decomp.... done (  0.2 sec)
Calculating Nuclear repulsion               ... done (  0.0 sec) ENN=   2550.525766616571 Eh

SHARK setup successfully completed in   2.6 seconds

Maximum memory used throughout the entire GTOINT-calculation: 73.6 MB


           ************************************************************
           *        Program running with 24 parallel MPI-processes    *
           *              working on a common directory               *
           ************************************************************
-------------------------------------------------------------------------------
                                 ORCA SCF
-------------------------------------------------------------------------------

------------
SCF SETTINGS
------------
Hamiltonian:
 Density Functional     Method          .... DFT(GTOs)
 Exchange Functional    Exchange        .... PBE
   PBE kappa parameter   XKappa         ....  0.804000
   PBE mue parameter    XMuePBE         ....  0.219520
 Correlation Functional Correlation     .... PBE
   PBE beta parameter  CBetaPBE         ....  0.066725
 LDA part of GGA corr.  LDAOpt          .... PW91-LDA
 Gradients option       PostSCFGGA      .... off
 Hybrid DFT is turned on
   Fraction HF Exchange ScalHFX         ....  0.250000
   Scaling of DF-GGA-X  ScalDFX         ....  0.750000
   Scaling of DF-GGA-C  ScalDFC         ....  1.000000
   Scaling of DF-LDA-C  ScalLDAC        ....  1.000000
   Perturbative correction              ....  0.000000
   Density functional embedding theory  .... OFF
   NL short-range parameter             ....  6.900000
 RI-approximation to the Coulomb term is turned on
   Number of AuxJ basis functions       .... 1494
   RIJ-COSX (HFX calculated with COS-X)).... on


General Settings:
 Integral files         IntName         .... 3_CHCH2/3_CHCH2
 Hartree-Fock type      HFTyp           .... RHF
 Total Charge           Charge          ....    0
 Multiplicity           Mult            ....    1
 Number of Electrons    NEL             ....  188
 Basis Dimension        Dim             ....  926
 Nuclear Repulsion      ENuc            ....   2550.5257666166 Eh

Convergence Acceleration:
 DIIS                   CNVDIIS         .... on
   Start iteration      DIISMaxIt       ....    12
   Startup error        DIISStart       ....  0.200000
   # of expansion vecs  DIISMaxEq       ....     5
   Bias factor          DIISBfac        ....   1.050
   Max. coefficient     DIISMaxC        ....  10.000
 Trust-Rad. Augm. Hess. CNVTRAH         .... auto
   Auto Start mean grad. ratio tolernc. ....  1.125000
   Auto Start start iteration           ....    20
   Auto Start num. interpolation iter.  ....    10
   Max. Number of Micro iterations      ....    16
   Max. Number of Macro iterations      .... Maxiter - #DIIS iter
   Number of Davidson start vectors     ....     2
   Converg. threshold I  (grad. norm)   ....   1.000e-05
   Converg. threshold II (energy diff.) ....   1.000e-08
   Grad. Scal. Fac. for Micro threshold ....   0.100
   Minimum threshold for Micro iter.    ....   0.010
   NR start threshold (gradient norm)   ....   0.001
   Initial trust radius                 ....   0.400
   Minimum AH scaling param. (alpha)    ....   1.000
   Maximum AH scaling param. (alpha)    .... 1000.000
   Orbital update algorithm             .... Taylor
   White noise on init. David. guess    .... on
   Maximum white noise                  ....   0.010
   Quad. conv. algorithm                .... NR
 SOSCF                  CNVSOSCF        .... on
   Start iteration      SOSCFMaxIt      ....   150
   Startup grad/error   SOSCFStart      ....  0.003300
 Level Shifting         CNVShift        .... on
   Level shift para.    LevelShift      ....    0.2500
   Turn off err/grad.   ShiftErr        ....    0.0010
 Zerner damping         CNVZerner       .... off
 Static damping         CNVDamp         .... on
   Fraction old density DampFac         ....    0.7000
   Max. Damping (<1)    DampMax         ....    0.9800
   Min. Damping (>=0)   DampMin         ....    0.0000
   Turn off err/grad.   DampErr         ....    0.1000
 Fernandez-Rico         CNVRico         .... off

SCF Procedure:
 Maximum # iterations   MaxIter         ....   800
 SCF integral mode      SCFMode         .... Direct
   Integral package                     .... SHARK and LIBINT hybrid scheme
 Reset frequency        DirectResetFreq ....    20
 Integral Threshold     Thresh          ....  2.500e-11 Eh
 Primitive CutOff       TCut            ....  2.500e-12 Eh

Convergence Tolerance:
 Convergence Check Mode ConvCheckMode   .... Total+1el-Energy
 Convergence forced     ConvForced      .... 0
 Energy Change          TolE            ....  1.000e-08 Eh
 1-El. energy change                    ....  1.000e-05 Eh
 Orbital Gradient       TolG            ....  1.000e-05
 Orbital Rotation angle TolX            ....  1.000e-05
 DIIS Error             TolErr          ....  5.000e-07


Diagonalization of the overlap matrix:
Smallest eigenvalue                        ... 5.252e-06
Time for diagonalization                   ...    0.362 sec
Threshold for overlap eigenvalues          ... 1.000e-08
Number of eigenvalues below threshold      ... 0
Time for construction of square roots      ...    0.154 sec
Total time needed                          ...    0.522 sec

Time for model grid setup =    0.385 sec

------------------------------
INITIAL GUESS: MODEL POTENTIAL
------------------------------
Loading Hartree-Fock densities                     ... done
Calculating cut-offs                               ... done
Initializing the effective Hamiltonian             ... done
Setting up the integral package (SHARK)            ... done
Starting the Coulomb interaction                   ... done (   0.5 sec)
Reading the grid                                   ... done
Mapping shells                                     ... done
Starting the XC term evaluation                    ... done (   0.3 sec)
  promolecular density results
     # of electrons  =    187.995910550
     EX              =   -156.993305078
     EC              =     -6.370509463
     EX+EC           =   -163.363814541
Transforming the Hamiltonian                       ... done (   0.2 sec)
Diagonalizing the Hamiltonian                      ... done (   0.3 sec)
Back transforming the eigenvectors                 ... done (   0.1 sec)
Now organizing SCF variables                       ... done
                      ------------------
                      INITIAL GUESS DONE (   1.9 sec)
                      ------------------
-------------------
DFT GRID GENERATION
-------------------

General Integration Accuracy     IntAcc      ... 4.388
Radial Grid Type                 RadialGrid  ... OptM3 with GC (2021)
Angular Grid (max. ang.)         AngularGrid ... 4 (Lebedev-302)
Angular grid pruning method      GridPruning ... 4 (adaptive)
Weight generation scheme         WeightScheme... Becke
Basis function cutoff            BFCut       ... 1.0000e-11
Integration weight cutoff        WCut        ... 1.0000e-14
Angular grids for H and He will be reduced by one unit
Partially contracted basis set               ... off
Rotationally invariant grid construction     ... off

Total number of grid points                  ...   218105
Total number of batches                      ...     3433
Average number of points per batch           ...       63
Average number of grid points per atom       ...     4741
Time for grid setup =    1.531 sec

--------------------
COSX GRID GENERATION
--------------------

GRIDX 1
-------
General Integration Accuracy     IntAcc      ... 3.816
Radial Grid Type                 RadialGrid  ... OptM3 with GC (2021)
Angular Grid (max. ang.)         AngularGrid ... 1 (Lebedev-50)
Angular grid pruning method      GridPruning ... 4 (adaptive)
Weight generation scheme         WeightScheme... Becke
Basis function cutoff            BFCut       ... 1.0000e-11
Integration weight cutoff        WCut        ... 1.0000e-14
Angular grids for H and He will be reduced by one unit
Partially contracted basis set               ... on
Rotationally invariant grid construction     ... off

Total number of grid points                  ...    27620
Total number of batches                      ...      455
Average number of points per batch           ...       60
Average number of grid points per atom       ...      600
UseSFitting                                  ... on

GRIDX 2
-------
General Integration Accuracy     IntAcc      ... 4.020
Radial Grid Type                 RadialGrid  ... OptM3 with GC (2021)
Angular Grid (max. ang.)         AngularGrid ... 2 (Lebedev-110)
Angular grid pruning method      GridPruning ... 4 (adaptive)
Weight generation scheme         WeightScheme... Becke
Basis function cutoff            BFCut       ... 1.0000e-11
Integration weight cutoff        WCut        ... 1.0000e-14
Angular grids for H and He will be reduced by one unit
Partially contracted basis set               ... on
Rotationally invariant grid construction     ... off

Total number of grid points                  ...    59662
Total number of batches                      ...      956
Average number of points per batch           ...       62
Average number of grid points per atom       ...     1297
UseSFitting                                  ... on

GRIDX 3
-------
General Integration Accuracy     IntAcc      ... 4.338
Radial Grid Type                 RadialGrid  ... OptM3 with GC (2021)
Angular Grid (max. ang.)         AngularGrid ... 3 (Lebedev-194)
Angular grid pruning method      GridPruning ... 4 (adaptive)
Weight generation scheme         WeightScheme... Becke
Basis function cutoff            BFCut       ... 1.0000e-11
Integration weight cutoff        WCut        ... 1.0000e-14
Angular grids for H and He will be reduced by one unit
Partially contracted basis set               ... on
Rotationally invariant grid construction     ... off

Total number of grid points                  ...   130151
Total number of batches                      ...     2058
Average number of points per batch           ...       63
Average number of grid points per atom       ...     2829
UseSFitting                                  ... on

Time for X-Grid setup             =    2.865 sec


--------------------
CPCM SOLVATION MODEL
--------------------
CPCM parameters:
  Epsilon                                         ...      47.2000
  Refrac                                          ...       1.4790
  Rsolv                                           ...       1.3000
  Surface type                                    ... GAUSSIAN VDW
  Epsilon function type                           ...         CPCM
Radii:
 Radius for C  used is    3.8550 Bohr (=   2.0400 Ang.)
 Radius for N  used is    3.5149 Bohr (=   1.8600 Ang.)
 Radius for O  used is    3.4469 Bohr (=   1.8240 Ang.)
 Radius for H  used is    2.4944 Bohr (=   1.3200 Ang.)
Calculating surface                               ...        done! (  0.0s)
GEPOL surface points                              ...         2281
GEPOL Volume                                      ...    2738.2715
GEPOL Surface-area                                ...    1331.3517
Calculating surface distance matrix               ...        done! (  0.1s)
Performing Cholesky decomposition & store         ...        done! (  0.4s)
Overall time for CPCM initialization              ...                 0.5s
--------------
SCF ITERATIONS
--------------
ITER       Energy         Delta-E        Max-DP      RMS-DP      [F,P]     Damp
               ***  Starting incremental Fock matrix formation  ***
  0  -1220.0376570984   0.000000000000 0.07743340  0.00061719  0.2644809 0.7000
  1  -1220.3024954689  -0.264838370514 0.06405331  0.00050133  0.1059348 0.7000
                               ***Turning on DIIS***
  2  -1220.4087280391  -0.106232570187 0.09315024  0.00098707  0.0346498 0.0000
  3  -1220.5832706813  -0.174542642165 0.06319960  0.00036598  0.0517925 0.0000
  4  -1220.6152657487  -0.031995067431 0.02014721  0.00016554  0.0141686 0.0000
  5  -1220.6174339785  -0.002168229797 0.00794452  0.00005447  0.0058356 0.0000
                      *** Initiating the SOSCF procedure ***
                           *** Shutting down DIIS ***
                      *** Re-Reading the Fockian *** 
                      *** Removing any level shift *** 
ITER      Energy       Delta-E        Grad      Rot      Max-DP    RMS-DP
  6  -1220.61760997  -0.0001759954  0.000180  0.000180  0.003182  0.000028
               *** Restarting incremental Fock matrix formation ***
  7  -1220.61758511   0.0000248689  0.000179  0.000733  0.004322  0.000026
  8  -1220.61757728   0.0000078225  0.000347  0.000480  0.000566  0.000006
  9  -1220.61759040  -0.0000131153  0.000114  0.000386  0.000333  0.000003
 10  -1220.61758998   0.0000004174  0.000255  0.000294  0.000222  0.000002
 11  -1220.61759051  -0.0000005264  0.000027  0.000063  0.000206  0.000001
 12  -1220.61759046   0.0000000467  0.000033  0.000036  0.000133  0.000001
                  ***Gradient check signals convergence***
              ***Rediagonalizing the Fockian in SOSCF/NRSCF***

               *****************************************************
               *                     SUCCESS                       *
               *           SCF CONVERGED AFTER  13 CYCLES          *
               *****************************************************

Old exchange energy                            =    -39.988721590 Eh
New exchange energy                            =    -39.988720723 Eh
Exchange energy change after final integration =      0.000000867 Eh
Total energy after final integration           =  -1220.617589698 Eh
Final COS-X integration done in                =    20.354 sec

----------------
TOTAL SCF ENERGY
----------------

Total Energy       :        -1220.61758970 Eh          -33214.69322 eV

Components:
Nuclear Repulsion  :         2550.52576662 Eh           69403.33451 eV
Electronic Energy  :        -3771.14335631 Eh         -102618.02773 eV
One Electron Energy:        -6736.26984765 Eh         -183303.22151 eV
Two Electron Energy:         2965.12649133 Eh           80685.19379 eV
Max COSX asymmetry :            0.00000290 Eh               0.00008 eV
CPCM Dielectric    :           -0.02708169 Eh              -0.73693 eV

Virial components:
Potential Energy   :        -2435.41090410 Eh          -66270.89985 eV
Kinetic Energy     :         1214.79331441 Eh           33056.20663 eV
Virial Ratio       :            2.00479446


DFT components:
N(Alpha)           :       94.000115950191 electrons
N(Beta)            :       94.000115950191 electrons
N(Total)           :      188.000231900383 electrons
E(X)               :     -119.746224162550 Eh       
E(C)               :       -6.359676181869 Eh       
E(XC)              :     -126.105900344419 Eh       
DFET-embed. en.    :        0.000000000000 Eh       
CPCM Solvation Model Properties:
Surface-charge          :           -0.03215587
Charge-correction       :           -0.00014057 Eh              -0.00383 eV
Free-energy (cav+disp)  :  This term is not implemented in the current solvation scheme

---------------
SCF CONVERGENCE
---------------

  Last Energy change         ...   -1.0479e-07  Tolerance :   1.0000e-08
  Last MAX-Density change    ...    2.4425e-15  Tolerance :   1.0000e-07
  Last RMS-Density change    ...    1.4754e-17  Tolerance :   5.0000e-09
  Last Orbital Gradient      ...    1.6966e-06  Tolerance :   1.0000e-05
  Last Orbital Rotation      ...    6.0230e-06  Tolerance :   1.0000e-05

             **** THE GBW FILE WAS UPDATED (3_CHCH2/3_CHCH2.gbw) ****
             **** DENSITY 3_CHCH2/3_CHCH2.scfp WAS UPDATED ****
             **** ENERGY FILE WAS UPDATED (3_CHCH2/3_CHCH2.en.tmp) ****
             **** THE GBW FILE WAS UPDATED (3_CHCH2/3_CHCH2.gbw) ****
             **** DENSITY 3_CHCH2/3_CHCH2.scfp WAS UPDATED ****
----------------
ORBITAL ENERGIES
----------------

  NO   OCC          E(Eh)            E(eV) 
   0   2.0000     -19.265252      -524.2342 
   1   2.0000     -19.253139      -523.9045 
   2   2.0000     -19.252833      -523.8962 
   3   2.0000     -19.248193      -523.7700 
   4   2.0000     -19.206433      -522.6336 
   5   2.0000     -14.625209      -397.9722 
   6   2.0000     -14.423080      -392.4720 
   7   2.0000     -10.361335      -281.9462 
   8   2.0000     -10.310319      -280.5581 
   9   2.0000     -10.295317      -280.1498 
  10   2.0000     -10.291163      -280.0368 
  11   2.0000     -10.286368      -279.9063 
  12   2.0000     -10.273444      -279.5546 
  13   2.0000     -10.270103      -279.4637 
  14   2.0000     -10.265760      -279.3455 
  15   2.0000     -10.265645      -279.3424 
  16   2.0000     -10.245483      -278.7938 
  17   2.0000     -10.245429      -278.7923 
  18   2.0000     -10.235158      -278.5128 
  19   2.0000     -10.233937      -278.4796 
  20   2.0000     -10.232588      -278.4429 
  21   2.0000     -10.231412      -278.4109 
  22   2.0000     -10.230292      -278.3804 
  23   2.0000     -10.226454      -278.2759 
  24   2.0000     -10.226370      -278.2737 
  25   2.0000     -10.210777      -277.8494 
  26   2.0000      -1.286150       -34.9979 
  27   2.0000      -1.156099       -31.4591 
  28   2.0000      -1.112242       -30.2656 
  29   2.0000      -1.107156       -30.1272 
  30   2.0000      -1.064095       -28.9555 
  31   2.0000      -1.015553       -27.6346 
  32   2.0000      -0.907137       -24.6844 
  33   2.0000      -0.882622       -24.0174 
  34   2.0000      -0.854860       -23.2619 
  35   2.0000      -0.811107       -22.0713 
  36   2.0000      -0.796832       -21.6829 
  37   2.0000      -0.786828       -21.4107 
  38   2.0000      -0.777357       -21.1530 
  39   2.0000      -0.776194       -21.1213 
  40   2.0000      -0.745408       -20.2836 
  41   2.0000      -0.720966       -19.6185 
  42   2.0000      -0.704976       -19.1834 
  43   2.0000      -0.668389       -18.1878 
  44   2.0000      -0.648510       -17.6469 
  45   2.0000      -0.642879       -17.4936 
  46   2.0000      -0.618215       -16.8225 
  47   2.0000      -0.617365       -16.7994 
  48   2.0000      -0.601345       -16.3634 
  49   2.0000      -0.591413       -16.0932 
  50   2.0000      -0.576767       -15.6946 
  51   2.0000      -0.564051       -15.3486 
  52   2.0000      -0.559477       -15.2241 
  53   2.0000      -0.551180       -14.9984 
  54   2.0000      -0.544495       -14.8165 
  55   2.0000      -0.531353       -14.4588 
  56   2.0000      -0.517316       -14.0769 
  57   2.0000      -0.512801       -13.9540 
  58   2.0000      -0.506987       -13.7958 
  59   2.0000      -0.503465       -13.7000 
  60   2.0000      -0.495234       -13.4760 
  61   2.0000      -0.490626       -13.3506 
  62   2.0000      -0.483860       -13.1665 
  63   2.0000      -0.475497       -12.9389 
  64   2.0000      -0.469089       -12.7646 
  65   2.0000      -0.460772       -12.5382 
  66   2.0000      -0.457091       -12.4381 
  67   2.0000      -0.444530       -12.0963 
  68   2.0000      -0.437768       -11.9123 
  69   2.0000      -0.434379       -11.8201 
  70   2.0000      -0.429935       -11.6991 
  71   2.0000      -0.424001       -11.5377 
  72   2.0000      -0.409079       -11.1316 
  73   2.0000      -0.405104       -11.0234 
  74   2.0000      -0.399250       -10.8641 
  75   2.0000      -0.387594       -10.5470 
  76   2.0000      -0.383143       -10.4259 
  77   2.0000      -0.378492       -10.2993 
  78   2.0000      -0.372004       -10.1227 
  79   2.0000      -0.365707        -9.9514 
  80   2.0000      -0.359252        -9.7757 
  81   2.0000      -0.351443        -9.5632 
  82   2.0000      -0.346375        -9.4254 
  83   2.0000      -0.343801        -9.3553 
  84   2.0000      -0.340838        -9.2747 
  85   2.0000      -0.332982        -9.0609 
  86   2.0000      -0.332712        -9.0536 
  87   2.0000      -0.327510        -8.9120 
  88   2.0000      -0.310920        -8.4606 
  89   2.0000      -0.296598        -8.0708 
  90   2.0000      -0.292214        -7.9515 
  91   2.0000      -0.269793        -7.3414 
  92   2.0000      -0.240847        -6.5538 
  93   2.0000      -0.199372        -5.4252 
  94   0.0000      -0.072709        -1.9785 
  95   0.0000      -0.029394        -0.7998 
  96   0.0000      -0.025866        -0.7039 
  97   0.0000      -0.007640        -0.2079 
  98   0.0000      -0.003854        -0.1049 
  99   0.0000       0.010185         0.2772 
 100   0.0000       0.045264         1.2317 
 101   0.0000       0.057854         1.5743 
 102   0.0000       0.062051         1.6885 
 103   0.0000       0.068247         1.8571 
 104   0.0000       0.070743         1.9250 
 105   0.0000       0.077923         2.1204 
 106   0.0000       0.086175         2.3449 
 107   0.0000       0.087563         2.3827 
 108   0.0000       0.090617         2.4658 
 109   0.0000       0.095646         2.6027 
 110   0.0000       0.100808         2.7431 
 111   0.0000       0.109760         2.9867 
 112   0.0000       0.113509         3.0887 
 113   0.0000       0.117464         3.1964 
 114   0.0000       0.122228         3.3260 
 115   0.0000       0.126778         3.4498 
 116   0.0000       0.129409         3.5214 
 117   0.0000       0.131532         3.5792 
 118   0.0000       0.134673         3.6646 
 119   0.0000       0.137463         3.7405 
 120   0.0000       0.138974         3.7817 
 121   0.0000       0.143657         3.9091 
 122   0.0000       0.145727         3.9654 
 123   0.0000       0.153400         4.1742 
 124   0.0000       0.155410         4.2289 
 125   0.0000       0.161549         4.3960 
 126   0.0000       0.166459         4.5296 
 127   0.0000       0.175133         4.7656 
 128   0.0000       0.181014         4.9257 
 129   0.0000       0.182654         4.9703 
 130   0.0000       0.188009         5.1160 
 131   0.0000       0.195703         5.3253 
 132   0.0000       0.198083         5.3901 
 133   0.0000       0.204539         5.5658 
 134   0.0000       0.208862         5.6834 
 135   0.0000       0.214810         5.8453 
 136   0.0000       0.218352         5.9417 
 137   0.0000       0.225657         6.1404 
 138   0.0000       0.228645         6.2217 
 139   0.0000       0.230527         6.2730 
 140   0.0000       0.234923         6.3926 
 141   0.0000       0.238365         6.4862 
 142   0.0000       0.242164         6.5896 
 143   0.0000       0.248502         6.7621 
 144   0.0000       0.252215         6.8631 
 145   0.0000       0.256358         6.9759 
 146   0.0000       0.260657         7.0928 
 147   0.0000       0.262525         7.1437 
 148   0.0000       0.266045         7.2395 
 149   0.0000       0.272118         7.4047 
 150   0.0000       0.275067         7.4850 
 151   0.0000       0.278255         7.5717 
 152   0.0000       0.286987         7.8093 
 153   0.0000       0.290854         7.9145 
 154   0.0000       0.293520         7.9871 
 155   0.0000       0.298185         8.1140 
 156   0.0000       0.299868         8.1598 
 157   0.0000       0.308781         8.4024 
 158   0.0000       0.311755         8.4833 
 159   0.0000       0.313104         8.5200 
 160   0.0000       0.317681         8.6446 
 161   0.0000       0.321378         8.7451 
 162   0.0000       0.327874         8.9219 
 163   0.0000       0.330949         9.0056 
 164   0.0000       0.333589         9.0774 
 165   0.0000       0.338352         9.2070 
 166   0.0000       0.348867         9.4931 
 167   0.0000       0.349667         9.5149 
 168   0.0000       0.352491         9.5918 
 169   0.0000       0.356650         9.7049 
 170   0.0000       0.358471         9.7545 
 171   0.0000       0.365927         9.9574 
 172   0.0000       0.367850        10.0097 
 173   0.0000       0.375865        10.2278 
 174   0.0000       0.378732        10.3058 
 175   0.0000       0.380105        10.3432 
 176   0.0000       0.384831        10.4718 
 177   0.0000       0.390023        10.6131 
 178   0.0000       0.395732        10.7684 
 179   0.0000       0.400236        10.8910 
 180   0.0000       0.403479        10.9792 
 181   0.0000       0.410783        11.1780 
 182   0.0000       0.411871        11.2076 
 183   0.0000       0.412482        11.2242 
 184   0.0000       0.415477        11.3057 
 185   0.0000       0.419723        11.4213 
 186   0.0000       0.421928        11.4812 
 187   0.0000       0.426475        11.6050 
 188   0.0000       0.427867        11.6429 
 189   0.0000       0.431324        11.7369 
 190   0.0000       0.432984        11.7821 
 191   0.0000       0.438566        11.9340 
 192   0.0000       0.442626        12.0445 
 193   0.0000       0.444009        12.0821 
 194   0.0000       0.447038        12.1645 
 195   0.0000       0.454015        12.3544 
 196   0.0000       0.458212        12.4686 
 197   0.0000       0.462031        12.5725 
 198   0.0000       0.465435        12.6651 
 199   0.0000       0.470314        12.7979 
 200   0.0000       0.471632        12.8338 
 201   0.0000       0.476130        12.9562 
 202   0.0000       0.478890        13.0313 
 203   0.0000       0.482141        13.1197 
 204   0.0000       0.487061        13.2536 
 205   0.0000       0.489776        13.3275 
 206   0.0000       0.496538        13.5115 
 207   0.0000       0.496835        13.5196 
 208   0.0000       0.497978        13.5507 
 209   0.0000       0.499664        13.5965 
 210   0.0000       0.503187        13.6924 
 211   0.0000       0.509043        13.8518 
 212   0.0000       0.513480        13.9725 
 213   0.0000       0.515988        14.0407 
 214   0.0000       0.520942        14.1756 
 215   0.0000       0.528535        14.3822 
 216   0.0000       0.531184        14.4542 
 217   0.0000       0.533451        14.5159 
 218   0.0000       0.540333        14.7032 
 219   0.0000       0.547189        14.8898 
 220   0.0000       0.553416        15.0592 
 221   0.0000       0.554903        15.0997 
 222   0.0000       0.561518        15.2797 
 223   0.0000       0.566938        15.4272 
 224   0.0000       0.570406        15.5215 
 225   0.0000       0.574513        15.6333 
 226   0.0000       0.578268        15.7355 
 227   0.0000       0.585734        15.9386 
 228   0.0000       0.596182        16.2229 
 229   0.0000       0.598333        16.2815 
 230   0.0000       0.608393        16.5552 
 231   0.0000       0.611119        16.6294 
 232   0.0000       0.613344        16.6899 
 233   0.0000       0.622919        16.9505 
 234   0.0000       0.627234        17.0679 
 235   0.0000       0.632710        17.2169 
 236   0.0000       0.642315        17.4783 
 237   0.0000       0.643807        17.5189 
 238   0.0000       0.651774        17.7357 
 239   0.0000       0.654245        17.8029 
 240   0.0000       0.668630        18.1943 
 241   0.0000       0.671907        18.2835 
 242   0.0000       0.676202        18.4004 
 243   0.0000       0.682244        18.5648 
 244   0.0000       0.683616        18.6021 
 245   0.0000       0.685465        18.6525 
 246   0.0000       0.692523        18.8445 
 247   0.0000       0.697963        18.9925 
 248   0.0000       0.704550        19.1718 
[...]
 33:    429.61   0.000879    4.44  0.000638  (-0.021663 -0.006837  0.011054)
 34:    452.23   0.003541   17.89  0.002443  (-0.006578  0.014323  0.046849)
 35:    484.34   0.002130   10.76  0.001372  (-0.024807  0.025927  0.009203)
 36:    489.64   0.000755    3.82  0.000481  (-0.012537 -0.017731  0.003151)
 37:    518.21   0.001033    5.22  0.000622  (-0.011552 -0.003212 -0.021864)
 38:    539.30   0.004647   23.49  0.002689  ( 0.017507  0.009804 -0.047817)
 39:    558.41   0.003548   17.93  0.001983  (-0.034638  0.016480  0.022620)
 40:    592.77   0.000391    1.98  0.000206  ( 0.004255  0.007192  0.011671)
 41:    596.33   0.001697    8.57  0.000888  (-0.014828 -0.020406  0.015862)
 42:    600.70   0.004901   24.77  0.002546  ( 0.018582  0.000395  0.046913)
 43:    615.82   0.001396    7.05  0.000707  ( 0.005546  0.023068  0.012019)
 44:    628.34   0.001757    8.88  0.000872  (-0.003007 -0.013438  0.026132)
 45:    641.45   0.001583    8.00  0.000770  (-0.016665  0.010853 -0.019351)
 46:    704.00   0.010654   53.84  0.004723  (-0.035551  0.049896 -0.031130)
 47:    712.08   0.021693  109.63  0.009507  ( 0.011252 -0.060370 -0.075734)
 48:    739.01   0.001294    6.54  0.000546  (-0.004254 -0.022301 -0.005560)
 49:    750.85   0.001241    6.27  0.000516  ( 0.001330  0.001185 -0.022643)
 50:    761.37   0.008874   44.85  0.003637  ( 0.023955 -0.043399  0.034350)
 51:    775.56   0.015839   80.04  0.006373  (-0.016928  0.050911 -0.059115)
 52:    786.64   0.003002   15.17  0.001191  ( 0.004272  0.001597  0.034209)
 53:    805.75   0.012386   62.59  0.004797  ( 0.022891 -0.051782 -0.039894)
 54:    827.59   0.002284   11.54  0.000861  (-0.019461  0.020940  0.006628)
 55:    838.06   0.000152    0.77  0.000056  ( 0.003216  0.000343 -0.006784)
 56:    863.59   0.006092   30.79  0.002201  ( 0.040039  0.024443 -0.000924)
 57:    877.34   0.001773    8.96  0.000631  ( 0.011183 -0.022234 -0.003334)
 58:    884.93   0.006978   35.26  0.002461  ( 0.015121 -0.038269 -0.027707)
 59:    940.15   0.001032    5.22  0.000343  (-0.017332  0.005966  0.002584)
 60:    945.29   0.004138   20.91  0.001366  ( 0.009538 -0.009853  0.034321)
 61:    959.39   0.003280   16.58  0.001067  (-0.021131  0.011260 -0.022218)
 62:    969.88   0.000171    0.87  0.000055  (-0.000320 -0.004714  0.005723)
 63:    976.46   0.012418   62.76  0.003969  ( 0.057146 -0.026197 -0.004084)
 64:    991.42   0.000852    4.31  0.000268  ( 0.006202  0.013365  0.007145)
 65:    995.59   0.000173    0.88  0.000054  (-0.000367  0.006799 -0.002816)
 66:   1001.89   0.008443   42.67  0.002630  ( 0.002034 -0.051189 -0.002335)
 67:   1011.04   0.001510    7.63  0.000466  ( 0.019789  0.002610 -0.008225)
 68:   1034.17   0.000788    3.98  0.000238  ( 0.015345 -0.001087 -0.001113)
 69:   1039.87   0.006630   33.51  0.001990  (-0.029097  0.033802  0.000679)
 70:   1040.46   0.009371   47.36  0.002811  ( 0.028767 -0.040313  0.018917)
 71:   1055.98   0.004168   21.06  0.001232  ( 0.019753 -0.028905  0.002435)
 72:   1066.99   0.003478   17.58  0.001017  (-0.000080  0.026585  0.017620)
 73:   1075.93   0.009633   48.68  0.002794  ( 0.049304  0.019027 -0.001089)
 74:   1091.43   0.006181   31.24  0.001767  (-0.018927 -0.022663 -0.029924)
 75:   1138.05   0.014329   72.41  0.003929  (-0.010018  0.061414 -0.007553)
 76:   1143.32   0.010884   55.00  0.002971  ( 0.038632  0.024442  0.029681)
 77:   1153.37   0.005037   25.45  0.001363  (-0.020268  0.018176 -0.024932)
 78:   1170.67   0.000250    1.26  0.000067  ( 0.001719  0.004009 -0.006903)
 79:   1171.85   0.000201    1.01  0.000053  ( 0.003201 -0.004206  0.005055)
 80:   1177.56   0.001268    6.41  0.000336  ( 0.015815  0.008156  0.004406)
 81:   1196.34   0.003730   18.85  0.000973  (-0.007926  0.026921 -0.013613)
 82:   1198.01   0.001421    7.18  0.000370  ( 0.012995 -0.001657  0.014091)
 83:   1205.94   0.014314   72.34  0.003704  ( 0.050106 -0.018397  0.029241)
 84:   1207.70   0.000116    0.58  0.000030  ( 0.003591  0.001221 -0.003932)
 85:   1220.85   0.003820   19.30  0.000976  (-0.029038  0.004051 -0.010806)
 86:   1250.15   0.084641  427.74  0.021128  (-0.126049  0.037098 -0.062157)
 87:   1262.09   0.032848  166.00  0.008122  (-0.055547  0.052067 -0.048224)
 88:   1276.69   0.008899   44.97  0.002175  (-0.022882  0.028522 -0.028951)
 89:   1294.76   0.007099   35.88  0.001711  ( 0.022963 -0.034393  0.000973)
 90:   1302.28   0.079760  403.07  0.019113  (-0.045391 -0.082734 -0.101033)
 91:   1312.75   0.015822   79.96  0.003761  ( 0.017419  0.046654  0.035791)
 92:   1331.92   0.002902   14.66  0.000680  (-0.024100  0.009859 -0.001358)
 93:   1335.88   0.002484   12.55  0.000580  (-0.006103 -0.002583  0.023157)
 94:   1340.07   0.005336   26.97  0.001243  ( 0.032245 -0.010922 -0.009145)
 95:   1346.21   0.033977  171.70  0.007876  ( 0.081680  0.002059  0.034645)
 96:   1377.58   0.005230   26.43  0.001185  ( 0.027160 -0.019284  0.008671)
 97:   1386.38   0.004539   22.94  0.001022  ( 0.011486  0.012624  0.027027)
 98:   1389.14   0.010347   52.29  0.002324  ( 0.033652  0.030595 -0.015995)
 99:   1425.23   0.012416   62.75  0.002719  ( 0.033351  0.036469  0.016623)
100:   1440.59   0.031027  156.80  0.006721  ( 0.056662 -0.050441 -0.031085)
101:   1454.69   0.019922  100.68  0.004274  ( 0.019419 -0.033509 -0.052667)
102:   1465.06   0.003510   17.74  0.000748  ( 0.012395  0.014084 -0.019890)
103:   1466.93   0.006804   34.39  0.001448  (-0.011351  0.028145  0.022947)
104:   1467.54   0.006709   33.90  0.001427  ( 0.025882 -0.019633  0.019267)
105:   1473.47   0.003598   18.18  0.000762  (-0.015576 -0.011039 -0.019940)
106:   1473.99   0.003096   15.65  0.000655  ( 0.006690 -0.013633  0.020612)
107:   1483.90   0.005465   27.62  0.001149  (-0.002885  0.022090  0.025555)
108:   1489.83   0.022879  115.62  0.004792  ( 0.061958  0.028444 -0.012016)
109:   1498.99   0.014424   72.89  0.003003  ( 0.004448  0.040483  0.036663)
110:   1540.49   0.036689  185.41  0.007432  ( 0.001432 -0.057991 -0.063776)
111:   1625.80   0.020623  104.22  0.003958  ( 0.059039  0.019739 -0.009121)
112:   1636.82   0.154244  779.49  0.029407  (-0.044114  0.121267 -0.112939)
113:   1648.57   0.005113   25.84  0.000968  ( 0.018491  0.015580  0.019574)
114:   1666.02   0.012885   65.12  0.002414  ( 0.002658 -0.027759 -0.040447)
115:   1708.07   0.026959  136.24  0.004925  ( 0.067853  0.016726  0.006447)
116:   1727.42   0.000712    3.60  0.000129  (-0.005823 -0.000556 -0.009717)
117:   1797.02   0.091160  460.68  0.015830  ( 0.047141  0.091360  0.072537)
118:   2964.15   0.014176   71.64  0.001492  ( 0.028212  0.008245 -0.025070)
119:   3037.76   0.012692   64.14  0.001304  ( 0.026267  0.021575  0.012183)
120:   3065.98   0.008322   42.06  0.000847  (-0.020018  0.011684 -0.017601)
121:   3071.61   0.004824   24.38  0.000490  ( 0.013464 -0.017214  0.003531)
122:   3109.08   0.007506   37.93  0.000753  ( 0.008273 -0.018914  0.018087)
123:   3154.78   0.003784   19.12  0.000374  (-0.011075 -0.007752  0.013841)
124:   3159.75   0.000462    2.33  0.000046  ( 0.006530  0.000889  0.001481)
125:   3164.18   0.000524    2.65  0.000052  (-0.002121 -0.001416 -0.006722)
126:   3166.14   0.003814   19.27  0.000376  ( 0.006847 -0.010661 -0.014676)
127:   3178.03   0.000282    1.42  0.000028  (-0.003464 -0.003938  0.000421)
128:   3187.22   0.003021   15.27  0.000296  ( 0.013910 -0.006302  0.007912)
129:   3190.59   0.002144   10.83  0.000210  ( 0.008595  0.005414  0.010321)
130:   3194.47   0.000137    0.69  0.000013  (-0.003154 -0.000682  0.001728)
131:   3203.36   0.002328   11.77  0.000227  ( 0.013597 -0.001339 -0.006337)
132:   3207.00   0.000215    1.09  0.000021  (-0.002595 -0.003609  0.001070)
133:   3214.83   0.000589    2.97  0.000057  (-0.004536  0.003768 -0.004730)
134:   3217.19   0.002155   10.89  0.000209  (-0.001156  0.009589  0.010760)
135:   3233.11   0.000394    1.99  0.000038  (-0.005154 -0.002998 -0.001573)
136:   3244.01   0.000932    4.71  0.000090  (-0.003552 -0.007890  0.003846)
137:   3251.69   0.000992    5.01  0.000095  (-0.005786 -0.007706  0.001519)

* The epsilon (eps) is given for a Dirac delta lineshape.
** The dipole moment derivative (T) already includes vibrational overlap.

The first frequency considered to be a vibration is 6
The total number of vibrations considered is 132


--------------------------
THERMOCHEMISTRY AT 298.15K
--------------------------

Temperature         ... 298.15 K
Pressure            ... 1.00 atm
Total Mass          ... 356.38 AMU

Throughout the following assumptions are being made:
  (1) The electronic state is orbitally nondegenerate
  (2) There are no thermally accessible electronically excited states
  (3) Hindered rotations indicated by low frequency modes are not
      treated as such but are treated as vibrations and this may
      cause some error
  (4) All equations used are the standard statistical mechanics
      equations for an ideal gas
  (5) All vibrations are strictly harmonic

freq.      23.05  E(vib)   ...       0.56 
freq.      29.02  E(vib)   ...       0.55 
freq.      51.40  E(vib)   ...       0.52 
freq.      55.39  E(vib)   ...       0.52 
freq.      59.22  E(vib)   ...       0.51 
freq.      69.08  E(vib)   ...       0.50 
freq.      85.98  E(vib)   ...       0.48 
freq.      88.24  E(vib)   ...       0.48 
freq.     101.25  E(vib)   ...       0.46 
freq.     109.62  E(vib)   ...       0.45 
freq.     126.04  E(vib)   ...       0.43 
freq.     147.25  E(vib)   ...       0.41 
freq.     152.10  E(vib)   ...       0.40 
freq.     165.50  E(vib)   ...       0.39 
freq.     180.72  E(vib)   ...       0.37 
freq.     187.27  E(vib)   ...       0.36 
freq.     199.40  E(vib)   ...       0.35 
freq.     219.08  E(vib)   ...       0.33 
freq.     256.87  E(vib)   ...       0.30 
freq.     263.39  E(vib)   ...       0.29 
freq.     268.29  E(vib)   ...       0.29 
freq.     284.81  E(vib)   ...       0.28 
freq.     307.01  E(vib)   ...       0.26 
freq.     324.72  E(vib)   ...       0.24 
freq.     343.90  E(vib)   ...       0.23 
freq.     372.65  E(vib)   ...       0.21 
freq.     397.39  E(vib)   ...       0.20 
freq.     429.61  E(vib)   ...       0.18 
freq.     452.23  E(vib)   ...       0.16 
freq.     484.34  E(vib)   ...       0.15 
freq.     489.64  E(vib)   ...       0.15 
freq.     518.21  E(vib)   ...       0.13 
freq.     539.30  E(vib)   ...       0.12 
freq.     558.41  E(vib)   ...       0.12 
freq.     592.77  E(vib)   ...       0.10 
freq.     596.33  E(vib)   ...       0.10 
freq.     600.70  E(vib)   ...       0.10 
freq.     615.82  E(vib)   ...       0.10 
freq.     628.34  E(vib)   ...       0.09 
freq.     641.45  E(vib)   ...       0.09 
freq.     704.00  E(vib)   ...       0.07 
freq.     712.08  E(vib)   ...       0.07 
freq.     739.01  E(vib)   ...       0.06 
freq.     750.85  E(vib)   ...       0.06 
freq.     761.37  E(vib)   ...       0.06 
freq.     775.56  E(vib)   ...       0.05 
freq.     786.64  E(vib)   ...       0.05 
freq.     805.75  E(vib)   ...       0.05 
freq.     827.59  E(vib)   ...       0.04 
freq.     838.06  E(vib)   ...       0.04 
freq.     863.59  E(vib)   ...       0.04 
freq.     877.34  E(vib)   ...       0.04 
freq.     884.93  E(vib)   ...       0.04 
freq.     940.15  E(vib)   ...       0.03 
freq.     945.29  E(vib)   ...       0.03 
freq.     959.39  E(vib)   ...       0.03 
freq.     969.88  E(vib)   ...       0.03 
freq.     976.46  E(vib)   ...       0.03 
freq.     991.42  E(vib)   ...       0.02 
freq.     995.59  E(vib)   ...       0.02 
freq.    1001.89  E(vib)   ...       0.02 
freq.    1011.04  E(vib)   ...       0.02 
freq.    1034.17  E(vib)   ...       0.02 
freq.    1039.87  E(vib)   ...       0.02 
freq.    1040.46  E(vib)   ...       0.02 
freq.    1055.98  E(vib)   ...       0.02 
freq.    1066.99  E(vib)   ...       0.02 
freq.    1075.93  E(vib)   ...       0.02 
freq.    1091.43  E(vib)   ...       0.02 
freq.    1138.05  E(vib)   ...       0.01 
freq.    1143.32  E(vib)   ...       0.01 
freq.    1153.37  E(vib)   ...       0.01 
freq.    1170.67  E(vib)   ...       0.01 
freq.    1171.85  E(vib)   ...       0.01 
freq.    1177.56  E(vib)   ...       0.01 
freq.    1196.34  E(vib)   ...       0.01 
freq.    1198.01  E(vib)   ...       0.01 
freq.    1205.94  E(vib)   ...       0.01 
freq.    1207.70  E(vib)   ...       0.01 
freq.    1220.85  E(vib)   ...       0.01 
freq.    1250.15  E(vib)   ...       0.01 
freq.    1262.09  E(vib)   ...       0.01 
freq.    1276.69  E(vib)   ...       0.01 
freq.    1294.76  E(vib)   ...       0.01 
freq.    1302.28  E(vib)   ...       0.01 
freq.    1312.75  E(vib)   ...       0.01 
freq.    1331.92  E(vib)   ...       0.01 
freq.    1335.88  E(vib)   ...       0.01 
freq.    1340.07  E(vib)   ...       0.01 
freq.    1346.21  E(vib)   ...       0.01 
freq.    1377.58  E(vib)   ...       0.01 
freq.    1386.38  E(vib)   ...       0.00 
freq.    1389.14  E(vib)   ...       0.00 
freq.    1425.23  E(vib)   ...       0.00 
freq.    1440.59  E(vib)   ...       0.00 
freq.    1454.69  E(vib)   ...       0.00 
freq.    1465.06  E(vib)   ...       0.00 
freq.    1466.93  E(vib)   ...       0.00 
freq.    1467.54  E(vib)   ...       0.00 
freq.    1473.47  E(vib)   ...       0.00 
freq.    1473.99  E(vib)   ...       0.00 
freq.    1483.90  E(vib)   ...       0.00 
freq.    1489.83  E(vib)   ...       0.00 
freq.    1498.99  E(vib)   ...       0.00 
freq.    1540.49  E(vib)   ...       0.00 
freq.    1625.80  E(vib)   ...       0.00 
freq.    1636.82  E(vib)   ...       0.00 
freq.    1648.57  E(vib)   ...       0.00 
freq.    1666.02  E(vib)   ...       0.00 
freq.    1708.07  E(vib)   ...       0.00 
freq.    1727.42  E(vib)   ...       0.00 
freq.    1797.02  E(vib)   ...       0.00 
freq.    2964.15  E(vib)   ...       0.00 
freq.    3037.76  E(vib)   ...       0.00 
freq.    3065.98  E(vib)   ...       0.00 
freq.    3071.61  E(vib)   ...       0.00 
freq.    3109.08  E(vib)   ...       0.00 
freq.    3154.78  E(vib)   ...       0.00 
freq.    3159.75  E(vib)   ...       0.00 
freq.    3164.18  E(vib)   ...       0.00 
freq.    3166.14  E(vib)   ...       0.00 
freq.    3178.03  E(vib)   ...       0.00 
freq.    3187.22  E(vib)   ...       0.00 
freq.    3190.59  E(vib)   ...       0.00 
freq.    3194.47  E(vib)   ...       0.00 
freq.    3203.36  E(vib)   ...       0.00 
freq.    3207.00  E(vib)   ...       0.00 
freq.    3214.83  E(vib)   ...       0.00 
freq.    3217.19  E(vib)   ...       0.00 
freq.    3233.11  E(vib)   ...       0.00 
freq.    3244.01  E(vib)   ...       0.00 
freq.    3251.69  E(vib)   ...       0.00 

------------
INNER ENERGY
------------

The inner energy is: U= E(el) + E(ZPE) + E(vib) + E(rot) + E(trans)
    E(el)   - is the total energy from the electronic structure calculation
              = E(kin-el) + E(nuc-el) + E(el-el) + E(nuc-nuc)
    E(ZPE)  - the the zero temperature vibrational energy from the frequency calculation
    E(vib)  - the the finite temperature correction to E(ZPE) due to population
              of excited vibrational states
    E(rot)  - is the rotational thermal energy
    E(trans)- is the translational thermal energy

Summary of contributions to the inner energy U:
Electronic energy                ...  -1220.68114533 Eh
Zero point energy                ...      0.36777247 Eh     230.78 kcal/mol
Thermal vibrational correction   ...      0.02110262 Eh      13.24 kcal/mol
Thermal rotational correction    ...      0.00141627 Eh       0.89 kcal/mol
Thermal translational correction ...      0.00141627 Eh       0.89 kcal/mol
-----------------------------------------------------------------------
Total thermal energy                  -1220.28943769 Eh


Summary of corrections to the electronic energy:
(perhaps to be used in another calculation)
Total thermal correction                  0.02393516 Eh      15.02 kcal/mol
Non-thermal (ZPE) correction              0.36777247 Eh     230.78 kcal/mol
-----------------------------------------------------------------------
Total correction                          0.39170764 Eh     245.80 kcal/mol


--------
ENTHALPY
--------

The enthalpy is H = U + kB*T
                kB is Boltzmann's constant
Total free energy                 ...  -1220.28943769 Eh 
Thermal Enthalpy correction       ...      0.00094421 Eh       0.59 kcal/mol
-----------------------------------------------------------------------
Total Enthalpy                    ...  -1220.28849348 Eh


Note: Only C1 symmetry has been detected, increase convergence thresholds 
      if your molecule has a higher symmetry. Symmetry factor of 1.0 is   
      used for the rotational entropy correction. 
 

Note: Rotational entropy computed according to Herzberg 
Infrared and Raman Spectra, Chapter V,1, Van Nostrand Reinhold, 1945 
Point Group:  C1, Symmetry Number:   1  
Rotational constants in cm-1:     0.010002     0.006801     0.005380 

Vibrational entropy computed according to the QRRHO of S. Grimme
Chem.Eur.J. 2012 18 9955


-------
ENTROPY
-------

The entropy contributions are T*S = T*(S(el)+S(vib)+S(rot)+S(trans))
     S(el)   - electronic entropy
     S(vib)  - vibrational entropy
     S(rot)  - rotational entropy
     S(trans)- translational entropy
The entropies will be listed as multiplied by the temperature to get
units of energy

Electronic entropy                ...      0.00000000 Eh      0.00 kcal/mol
Vibrational entropy               ...      0.03777592 Eh     23.70 kcal/mol
Rotational entropy                ...      0.01650750 Eh     10.36 kcal/mol
Translational entropy             ...      0.02067107 Eh     12.97 kcal/mol
-----------------------------------------------------------------------
Final entropy term                ...      0.07495449 Eh     47.03 kcal/mol

In case the symmetry of your molecule has not been determined correctly
or in case you have a reason to use a different symmetry number we print 
out the resulting rotational entropy values for sn=1,12 :
 --------------------------------------------------------
|  sn= 1 | S(rot)=       0.01650750 Eh     10.36 kcal/mol|
|  sn= 2 | S(rot)=       0.01585304 Eh      9.95 kcal/mol|
|  sn= 3 | S(rot)=       0.01547021 Eh      9.71 kcal/mol|
|  sn= 4 | S(rot)=       0.01519859 Eh      9.54 kcal/mol|
|  sn= 5 | S(rot)=       0.01498790 Eh      9.41 kcal/mol|
|  sn= 6 | S(rot)=       0.01481575 Eh      9.30 kcal/mol|
|  sn= 7 | S(rot)=       0.01467021 Eh      9.21 kcal/mol|
|  sn= 8 | S(rot)=       0.01454413 Eh      9.13 kcal/mol|
|  sn= 9 | S(rot)=       0.01443292 Eh      9.06 kcal/mol|
|  sn=10 | S(rot)=       0.01433344 Eh      8.99 kcal/mol|
|  sn=11 | S(rot)=       0.01424345 Eh      8.94 kcal/mol|
|  sn=12 | S(rot)=       0.01416130 Eh      8.89 kcal/mol|
 --------------------------------------------------------


-------------------
GIBBS FREE ENERGY
-------------------

The Gibbs free energy is G = H - T*S

Total enthalpy                    ...  -1220.28849348 Eh 
Total entropy correction          ...     -0.07495449 Eh    -47.03 kcal/mol
-----------------------------------------------------------------------
Final Gibbs free energy         ...  -1220.36344797 Eh

For completeness - the Gibbs free energy minus the electronic energy
G-E(el)                           ...      0.31769736 Eh    199.36 kcal/mol


Timings for individual modules:

Sum of individual times         ...     6372.921 sec (= 106.215 min)
GTO integral calculation        ...       36.869 sec (=   0.614 min)   0.6 %
SCF iterations                  ...     1863.766 sec (=  31.063 min)  29.2 %
SCF Gradient evaluation         ...      479.678 sec (=   7.995 min)   7.5 %
Geometry relaxation             ...        2.284 sec (=   0.038 min)   0.0 %
Analytical frequency calculation...     3990.323 sec (=  66.505 min)  62.6 %
                             ****ORCA TERMINATED NORMALLY****
TOTAL RUN TIME: 0 days 1 hours 46 minutes 49 seconds 699 msec
