
                                 *****************
                                 * O   R   C   A *
                                 *****************

                                            #,                                       
                                            ###                                      
                                            ####                                     
                                            #####                                    
                                            ######                                   
                                           ########,                                 
                                     ,,################,,,,,                         
                               ,,#################################,,                 
                          ,,##########################################,,             
                       ,#########################################, ''#####,          
                    ,#############################################,,   '####,        
                  ,##################################################,,,,####,       
                ,###########''''           ''''###############################       
              ,#####''   ,,,,##########,,,,          '''####'''          '####       
            ,##' ,,,,###########################,,,                        '##       
           ' ,,###''''                  '''############,,,                           
         ,,##''                                '''############,,,,        ,,,,,,###''
      ,#''                                            '''#######################'''  
     '                                                          ''''####''''         
             ,#######,   #######,   ,#######,      ##                                
            ,#'     '#,  ##    ##  ,#'     '#,    #''#        ######   ,####,        
            ##       ##  ##   ,#'  ##            #'  '#       #        #'  '#        
            ##       ##  #######   ##           ,######,      #####,   #    #        
            '#,     ,#'  ##    ##  '#,     ,#' ,#      #,         ##   #,  ,#        
             '#######'   ##     ##  '#######'  #'      '#     #####' # '####'        



                  #######################################################
                  #                        -***-                        #
                  #          Department of theory and spectroscopy      #
                  #    Directorship and core code : Frank Neese         #
                  #        Max Planck Institute fuer Kohlenforschung    #
                  #                Kaiser Wilhelm Platz 1               #
                  #                 D-45470 Muelheim/Ruhr               #
                  #                      Germany                        #
                  #                                                     #
                  #                  All rights reserved                #
                  #                        -***-                        #
                  #######################################################


                         Program Version 5.0.4 -  RELEASE  -


 With contributions from (in alphabetic order):
   Daniel Aravena         : Magnetic Suceptibility
   Michael Atanasov       : Ab Initio Ligand Field Theory (pilot matlab implementation)
   Alexander A. Auer      : GIAO ZORA, VPT2 properties, NMR spectrum
   Ute Becker             : Parallelization
   Giovanni Bistoni       : ED, misc. LED, open-shell LED, HFLD
   Martin Brehm           : Molecular dynamics
   Dmytro Bykov           : SCF Hessian
   Vijay G. Chilkuri      : MRCI spin determinant printing, contributions to CSF-ICE
   Dipayan Datta          : RHF DLPNO-CCSD density
   Achintya Kumar Dutta   : EOM-CC, STEOM-CC
   Dmitry Ganyushin       : Spin-Orbit,Spin-Spin,Magnetic field MRCI
   Miquel Garcia          : C-PCM and meta-GGA Hessian, CC/C-PCM, Gaussian charge scheme
   Yang Guo               : DLPNO-NEVPT2, F12-NEVPT2, CIM, IAO-localization
   Andreas Hansen         : Spin unrestricted coupled pair/coupled cluster methods
   Benjamin Helmich-Paris : MC-RPA, TRAH-SCF, COSX integrals
   Lee Huntington         : MR-EOM, pCC
   Robert Izsak           : Overlap fitted RIJCOSX, COSX-SCS-MP3, EOM
   Marcus Kettner         : VPT2
   Christian Kollmar      : KDIIS, OOCD, Brueckner-CCSD(T), CCSD density, CASPT2, CASPT2-K
   Simone Kossmann        : Meta GGA functionals, TD-DFT gradient, OOMP2, MP2 Hessian
   Martin Krupicka        : Initial AUTO-CI
   Lucas Lang             : DCDCAS
   Marvin Lechner         : AUTO-CI (C++ implementation), FIC-MRCC
   Dagmar Lenk            : GEPOL surface, SMD
   Dimitrios Liakos       : Extrapolation schemes; Compound Job, initial MDCI parallelization
   Dimitrios Manganas     : Further ROCIS development; embedding schemes
   Dimitrios Pantazis     : SARC Basis sets
   Anastasios Papadopoulos: AUTO-CI, single reference methods and gradients
   Taras Petrenko         : DFT Hessian,TD-DFT gradient, ASA, ECA, R-Raman, ABS, FL, XAS/XES, NRVS
   Peter Pinski           : DLPNO-MP2, DLPNO-MP2 Gradient
   Christoph Reimann      : Effective Core Potentials
   Marius Retegan         : Local ZFS, SOC
   Christoph Riplinger    : Optimizer, TS searches, QM/MM, DLPNO-CCSD(T), (RO)-DLPNO pert. Triples
   Tobias Risthaus        : Range-separated hybrids, TD-DFT gradient, RPA, STAB
   Michael Roemelt        : Original ROCIS implementation
   Masaaki Saitow         : Open-shell DLPNO-CCSD energy and density
   Barbara Sandhoefer     : DKH picture change effects
   Avijit Sen             : IP-ROCIS
   Kantharuban Sivalingam : CASSCF convergence, NEVPT2, FIC-MRCI
   Bernardo de Souza      : ESD, SOC TD-DFT
   Georgi Stoychev        : AutoAux, RI-MP2 NMR, DLPNO-MP2 response
   Willem Van den Heuvel  : Paramagnetic NMR
   Boris Wezisla          : Elementary symmetry handling
   Frank Wennmohs         : Technical directorship


 We gratefully acknowledge several colleagues who have allowed us to
 interface, adapt or use parts of their codes:
   Stefan Grimme, W. Hujo, H. Kruse, P. Pracht,  : VdW corrections, initial TS optimization,
                  C. Bannwarth, S. Ehlert          DFT functionals, gCP, sTDA/sTD-DF
   Ed Valeev, F. Pavosevic, A. Kumar             : LibInt (2-el integral package), F12 methods
   Garnet Chan, S. Sharma, J. Yang, R. Olivares  : DMRG
   Ulf Ekstrom                                   : XCFun DFT Library
   Mihaly Kallay                                 : mrcc  (arbitrary order and MRCC methods)
   Jiri Pittner, Ondrej Demel                    : Mk-CCSD
   Frank Weinhold                                : gennbo (NPA and NBO analysis)
   Christopher J. Cramer and Donald G. Truhlar   : smd solvation model
   Lars Goerigk                                  : TD-DFT with DH, B97 family of functionals
   V. Asgeirsson, H. Jonsson                     : NEB implementation
   FAccTs GmbH                                   : IRC, NEB, NEB-TS, DLPNO-Multilevel, CI-OPT
                                                   MM, QMMM, 2- and 3-layer-ONIOM, Crystal-QMMM,
                                                   LR-CPCM, SF, NACMEs, symmetry and pop. for TD-DFT,
                                                   nearIR, NL-DFT gradient (VV10), updates on ESD,
                                                   ML-optimized integration grids
   S Lehtola, MJT Oliveira, MAL Marques          : LibXC Library
   Liviu Ungur et al                             : ANISO software


 Your calculation uses the libint2 library for the computation of 2-el integrals
 For citations please refer to: http://libint.valeyev.net

 Your ORCA version has been built with support for libXC version: 5.1.0
 For citations please refer to: https://tddft.org/programs/libxc/

 This ORCA versions uses:
   CBLAS   interface :  Fast vector & matrix operations
   LAPACKE interface :  Fast linear algebra routines
   SCALAPACK package :  Parallel linear algebra routines
   Shared memory     :  Shared parallel matrices
   BLAS/LAPACK       :  OpenBLAS 0.3.15  USE64BITINT DYNAMIC_ARCH NO_AFFINITY Haswell SINGLE_THREADED
        Core in use  :  Haswell
   Copyright (c) 2011-2014, The OpenBLAS Project


Your calculation utilizes the atom-pairwise dispersion correction
with the Becke-Johnson damping scheme (D3BJ)
Cite in your paper:
S.Grimme, S.Ehrlich, L.Goerigk, J Comput Chem, (2011), 32, 1456–1465 
S.Grimme, J.Antony, S.Ehrlich and H.Krieg, J.Chem.Phys., 132, (2010), 154104 
   

================================================================================

----- Orbital basis set information -----
Your calculation utilizes the basis: def2-TZVP
   F. Weigend and R. Ahlrichs, Phys. Chem. Chem. Phys. 7, 3297 (2005).

----- AuxJ basis set information -----
Your calculation utilizes the auxiliary basis: def2/J
   F. Weigend, Phys. Chem. Chem. Phys. 8, 1057 (2006).

================================================================================
                                        WARNINGS
                       Please study these warnings very carefully!
================================================================================


WARNING: Geometry Optimization
  ===> : Switching off AutoStart
         For restart on a previous wavefunction, please use MOREAD

INFO   : the flag for use of the SHARK integral package has been found!

================================================================================
                                       INPUT FILE
================================================================================
NAME = 3_F/3_F.inp
|  1> %pal nprocs 24 end
|  2> ! PBE0 D3BJ def2-TZVP TightSCF OPT FREQ TightOpt
|  3> ! CPCM(dmso)
|  4> %scf
|  5> MaxIter 800
|  6> end
|  7> 
|  8> %geom
|  9> MaxIter 800
| 10> MaxStep 0.15
| 11> end
| 12> 
| 13> *xyz 0 1
| 14> C      -4.05665900     -0.94989800      0.19552600
| 15> C      -3.69674700     -2.08970800     -0.61860400
| 16> C      -2.38252100     -2.28463500     -0.89143300
| 17> N      -1.40973000     -1.48175000     -0.37713300
| 18> C      -1.67070400     -0.33297400      0.45738700
| 19> C      -3.12715300     -0.11834200      0.71013600
| 20> C      -0.05497700     -1.45091200     -0.84513900
| 21> C       0.86564000     -2.24688600      0.07323600
| 22> O       0.50239100     -2.86104000      1.04405000
| 23> O       2.10028400     -2.26305700     -0.40854300
| 24> C       3.07315600     -2.98377900      0.33744400
| 25> H      -5.11350700     -0.76337700      0.40754800
| 26> H      -2.02085200     -3.09516400     -1.52930500
| 27> H      -1.10086400     -0.39552200      1.40785700
| 28> H      -3.40194700      0.73438600      1.33461700
| 29> H       0.01692400     -1.94907700     -1.82398500
| 30> H       4.01088800     -2.90171700     -0.22268600
| 31> H       2.77951900     -4.03798400      0.43913200
| 32> C      -0.88403900      0.79724800     -0.28221200
| 33> C       0.25307500      0.07965700     -1.04563400
| 34> C       1.62081700      0.61855900     -0.73123700
| 35> C       2.38200000      1.21028700     -1.73756300
| 36> C       3.64621400      1.74261000     -1.47587900
| 37> C       4.15253900      1.68613600     -0.18096500
| 38> C       3.41190500      1.10038700      0.84839000
| 39> C       2.15235900      0.56457900      0.57308400
| 40> O       1.37202900     -0.04114200      1.48677500
| 41> C       1.79190800     -0.12969600      2.82825000
| 42> N      -1.83354100      1.46207700     -1.25300500
| 43> O      -2.14466200      0.81552800     -2.22748800
| 44> H       0.07774300      0.26632400     -2.11056000
| 45> H       1.97006000      1.25392100     -2.74965500
| 46> H       4.22589600      2.20008900     -2.28032300
| 47> H       5.13826400      2.10174200      0.04321800
| 48> H       3.82137800      1.06259300      1.85826900
| 49> H       1.89969700      0.87103200      3.27711000
| 50> H       2.74592700     -0.67381800      2.91743000
| 51> H       1.00942500     -0.68563200      3.35855400
| 52> O      -2.28771000      2.53518800     -0.94403100
| 53> H       3.19225800     -2.54423400      1.33798500
| 54> H      -4.45126400     -2.76388100     -1.02171300
| 55> F      -0.48581800      1.75459000      0.56815900
| 56> *
| 57> 
| 58>                          ****END OF INPUT****
================================================================================

                       *****************************
                       * Geometry Optimization Run *
                       *****************************

Geometry optimization settings:
Update method            Update   .... BFGS
Choice of coordinates    CoordSys .... Z-matrix Internals
Initial Hessian          InHess   .... Almoef's Model

Convergence Tolerances:
Energy Change            TolE     ....  1.0000e-06 Eh
Max. Gradient            TolMAXG  ....  1.0000e-04 Eh/bohr
RMS Gradient             TolRMSG  ....  3.0000e-05 Eh/bohr
Max. Displacement        TolMAXD  ....  1.0000e-03 bohr
RMS Displacement         TolRMSD  ....  6.0000e-04 bohr
Strict Convergence                ....  False
------------------------------------------------------------------------------
                        ORCA OPTIMIZATION COORDINATE SETUP
------------------------------------------------------------------------------

The optimization will be done in new redundant internal coordinates
Making redundant internal coordinates   ...  (new redundants) done
Evaluating the initial hessian          ...  (Almloef) done
Evaluating the coordinates              ...  done
Calculating the B-matrix                .... done
Calculating the G-matrix                .... done
Diagonalizing the G-matrix              .... done
Small eigenvalue found = 3.969e-03
Small eigenvalue found = 6.833e-03
Small eigenvalue found = 9.363e-03
Small eigenvalue found = 2.023e-02
Small eigenvalue found = 2.345e-02
The first mode is                       ....  114
The number of degrees of freedom        ....  120

    -----------------------------------------------------------------
                    Redundant Internal Coordinates


    -----------------------------------------------------------------
         Definition                    Initial Value    Approx d2E/dq
    -----------------------------------------------------------------
      1. B(C   1,C   0)                  1.4462         0.508236   
      2. B(C   2,C   1)                  1.3563         0.707070   
      3. B(N   3,C   2)                  1.3621         0.619882   
      4. B(C   4,N   3)                  1.4437         0.459441   
      5. B(C   5,C   4)                  1.4937         0.426838   
      6. B(C   5,C   0)                  1.3492         0.725876   
      7. B(C   6,N   3)                  1.4336         0.476698   
      8. B(C   7,C   6)                  1.5246         0.381005   
      9. B(O   8,C   7)                  1.2048         1.104849   
     10. B(O   9,C   7)                  1.3254         0.709448   
     11. B(C  10,O   9)                  1.4221         0.497319   
     12. B(H  11,C   0)                  1.0939         0.354945   
     13. B(H  12,C   2)                  1.0930         0.356157   
     14. B(H  13,C   4)                  1.1100         0.334634   
     15. B(H  14,C   5)                  1.0921         0.357362   
     16. B(H  15,C   6)                  1.1007         0.346256   
     17. B(H  16,C  10)                  1.0954         0.353074   
     18. B(H  17,C  10)                  1.0991         0.348325   
     19. B(C  18,C   4)                  1.5631         0.330815   
     20. B(C  19,C  18)                  1.5462         0.351973   
     21. B(C  19,C   6)                  1.5741         0.317722   
     22. B(C  20,C  19)                  1.5033         0.412040   
     23. B(C  21,C  20)                  1.3936         0.616496   
     24. B(C  22,C  21)                  1.3965         0.610157   
     25. B(C  23,C  22)                  1.3915         0.621294   
     26. B(C  24,C  23)                  1.3969         0.609252   
     27. B(C  25,C  24)                  1.3962         0.610755   
     28. B(C  25,C  20)                  1.4095         0.581594   
     29. B(O  26,C  25)                  1.3456         0.658734   
     30. B(C  27,O  26)                  1.4084         0.522950   
     31. B(N  28,C  18)                  1.5119         0.357531   
     32. B(O  29,N  28)                  1.2101         0.970437   
     33. B(H  30,C  19)                  1.0953         0.353174   
     34. B(H  31,C  21)                  1.0936         0.355388   
     35. B(H  32,C  22)                  1.0920         0.357473   
     36. B(H  33,C  23)                  1.0930         0.356158   
     37. B(H  34,C  24)                  1.0904         0.359583   
     38. B(H  35,C  27)                  1.1021         0.344486   
     39. B(H  36,C  27)                  1.1019         0.344702   
     40. B(H  37,C  27)                  1.0966         0.351453   
     41. B(O  38,N  28)                  1.2055         0.987014   
     42. B(H  39,C  10)                  1.0993         0.348001   
     43. B(H  40,C   1)                  1.0892         0.361193   
     44. B(F  41,C  18)                  1.3410         0.622562   
     45. A(C   1,C   0,H  11)          118.9419         0.340477   
     46. A(C   1,C   0,C   5)          121.9398         0.430870   
     47. A(C   5,C   0,H  11)          119.1156         0.361605   
     48. A(C   0,C   1,H  40)          121.5866         0.341472   
     49. A(C   2,C   1,H  40)          120.5197         0.361063   
     50. A(C   0,C   1,C   2)          117.8817         0.428845   
     51. A(N   3,C   2,H  12)          114.9060         0.350075   
     52. A(C   1,C   2,N   3)          122.0955         0.441543   
     53. A(C   1,C   2,H  12)          122.9969         0.360200   
     54. A(C   2,N   3,C   6)          124.3526         0.408794   
     55. A(C   4,N   3,C   6)          110.0236         0.387833   
     56. A(C   2,N   3,C   4)          123.9296         0.406136   
     57. A(C   5,C   4,C  18)          117.8322         0.364081   
     58. A(N   3,C   4,C  18)          102.1737         0.366400   
     59. A(N   3,C   4,C   5)          112.8555         0.382872   
     60. A(N   3,C   4,H  13)          110.9371         0.329545   
     61. A(C   5,C   4,H  13)          111.3325         0.327533   
     62. A(H  13,C   4,C  18)          100.8096         0.314163   
     63. A(C   4,C   5,H  14)          117.0201         0.331107   
     64. A(C   0,C   5,H  14)          121.7364         0.362024   
     65. A(C   0,C   5,C   4)          121.2417         0.417628   
     66. A(C   7,C   6,C  19)          117.7876         0.354659   
     67. A(N   3,C   6,C  19)          104.3254         0.366180   
     68. A(N   3,C   6,C   7)          111.2681         0.377813   
     69. A(C   7,C   6,H  15)          105.0671         0.323282   
     70. A(N   3,C   6,H  15)          110.0175         0.333442   
     71. A(H  15,C   6,C  19)          108.3023         0.313846   
     72. A(C   6,C   7,O   9)          110.4807         0.405009   
     73. A(C   6,C   7,O   8)          124.7107         0.438336   
     74. A(O   8,C   7,O   9)          124.5774         0.487807   
     75. A(C   7,O   9,C  10)          116.9209         0.421889   
     76. A(H  16,C  10,H  39)          110.0425         0.288393   
     77. A(H  16,C  10,H  17)          110.3589         0.288435   
     78. A(O   9,C  10,H  17)          110.6021         0.336129   
     79. A(H  17,C  10,H  39)          109.1632         0.287783   
     80. A(O   9,C  10,H  39)          110.4210         0.336077   
     81. A(O   9,C  10,H  16)          106.2270         0.336888   
     82. A(C  19,C  18,N  28)          110.4197         0.354796   
     83. A(C   4,C  18,N  28)          107.8002         0.351093   
     84. A(C  19,C  18,F  41)          115.2160         0.388664   
     85. A(C   4,C  18,F  41)          111.4451         0.384489   
     86. A(C   4,C  18,C  19)          105.5550         0.352332   
     87. A(N  28,C  18,F  41)          106.2449         0.387254   
     88. A(C  20,C  19,H  30)          106.7314         0.328542   
     89. A(C  18,C  19,H  30)          106.4531         0.320149   
     90. A(C   6,C  19,H  30)          104.9651         0.314855   
     91. A(C  18,C  19,C  20)          113.5450         0.365749   
     92. A(C   6,C  19,C  20)          119.9986         0.359410   
     93. A(C   6,C  19,C  18)          104.1496         0.349936   
     94. A(C  21,C  20,C  25)          118.5866         0.428672   
     95. A(C  19,C  20,C  25)          121.5271         0.399065   
     96. A(C  19,C  20,C  21)          119.8755         0.403182   
     97. A(C  22,C  21,H  31)          119.9493         0.351172   
     98. A(C  20,C  21,H  31)          118.6512         0.351786   
     99. A(C  20,C  21,C  22)          121.3994         0.432378   
    100. A(C  23,C  22,H  32)          120.6221         0.352596   
    101. A(C  21,C  22,H  32)          120.1476         0.351519   
    102. A(C  21,C  22,C  23)          119.2299         0.432981   
    103. A(C  24,C  23,H  33)          119.1095         0.351212   
    104. A(C  22,C  23,H  33)          120.2376         0.352377   
    105. A(C  22,C  23,C  24)          120.6529         0.432865   
    106. A(C  25,C  24,H  34)          120.5373         0.351928   
    107. A(C  23,C  24,H  34)          119.8625         0.351781   
    108. A(C  23,C  24,C  25)          119.6000         0.431536   
    109. A(C  24,C  25,O  26)          124.1954         0.434775   
    110. A(C  20,C  25,O  26)          115.2707         0.430967   
    111. A(C  20,C  25,C  24)          120.5292         0.427953   
    112. A(C  25,O  26,C  27)          120.1429         0.420092   
    113. A(O  26,C  27,H  36)          111.4840         0.338366   
    114. A(O  26,C  27,H  35)          111.0996         0.338330   
    115. A(H  36,C  27,H  37)          109.1662         0.287756   
    116. A(H  35,C  27,H  37)          109.4613         0.287728   
    117. A(O  26,C  27,H  37)          106.2450         0.339463   
    118. A(H  35,C  27,H  36)          109.3146         0.286858   
    119. A(C  18,N  28,O  29)          116.3319         0.417846   
    120. A(O  29,N  28,O  38)          125.8114         0.499345   
    121. A(C  18,N  28,O  38)          117.6096         0.419109   
    122. D(H  40,C   1,C   0,H  11)     -0.1039         0.017601   
    123. D(C   2,C   1,C   0,H  11)    178.6377         0.017601   
    124. D(H  40,C   1,C   0,C   5)    179.2884         0.017601   
    125. D(C   2,C   1,C   0,C   5)     -1.9700         0.017601   
    126. D(H  12,C   2,C   1,H  40)      1.2096         0.035272   
    127. D(N   3,C   2,C   1,C   0)      2.9294         0.035272   
    128. D(H  12,C   2,C   1,C   0)   -177.5461         0.035272   
    129. D(N   3,C   2,C   1,H  40)   -178.3150         0.035272   
    130. D(C   6,N   3,C   2,C   1)   -165.9204         0.031114   
    131. D(C   6,N   3,C   2,H  12)     14.5193         0.031114   
    132. D(C   4,N   3,C   2,C   1)     -2.2484         0.031114   
    133. D(C   4,N   3,C   2,H  12)    178.1913         0.031114   
    134. D(H  13,C   4,N   3,C   2)    126.1626         0.018018   
    135. D(C   5,C   4,N   3,C   2)      0.4337         0.018018   
    136. D(C   5,C   4,N   3,C   6)    166.1317         0.018018   
    137. D(C  18,C   4,N   3,C   6)     38.5965         0.018018   
    138. D(C  18,C   4,N   3,C   2)   -127.1015         0.018018   
    139. D(H  13,C   4,N   3,C   6)    -68.1394         0.018018   
    140. D(H  14,C   5,C   4,C  18)    -61.2022         0.013460   
    141. D(H  14,C   5,C   4,H  13)     54.5110         0.013460   
    142. D(C   0,C   5,C   4,C  18)    119.2779         0.013460   
    143. D(H  14,C   5,C   4,N   3)   -179.9734         0.013460   
    144. D(H  14,C   5,C   0,H  11)      0.1525         0.037346   
    145. D(C   0,C   5,C   4,N   3)      0.5067         0.013460   
    146. D(C   0,C   5,C   4,H  13)   -125.0089         0.013460   
    147. D(H  14,C   5,C   0,C   1)   -179.2388         0.037346   
    148. D(C   4,C   5,C   0,H  11)    179.6495         0.037346   
    149. D(C   4,C   5,C   0,C   1)      0.2583         0.037346   
    150. D(C   7,C   6,N   3,C   4)     93.4171         0.019429   
    151. D(C   7,C   6,N   3,C   2)   -100.9582         0.019429   
    152. D(H  15,C   6,N   3,C   2)     15.0622         0.019429   
    153. D(C  19,C   6,N   3,C   4)    -34.5873         0.019429   
    154. D(C  19,C   6,N   3,C   2)    131.0374         0.019429   
    155. D(H  15,C   6,N   3,C   4)   -150.5625         0.019429   
    156. D(O   9,C   7,C   6,C  19)    -62.7200         0.010829   
    157. D(O   9,C   7,C   6,N   3)    176.9328         0.010829   
    158. D(O   9,C   7,C   6,H  15)     57.9080         0.010829   
    159. D(O   8,C   7,C   6,C  19)    122.6004         0.010829   
    160. D(O   8,C   7,C   6,H  15)   -116.7715         0.010829   
    161. D(O   8,C   7,C   6,N   3)      2.2532         0.010829   
    162. D(C  10,O   9,C   7,O   8)     -4.6595         0.037790   
    163. D(C  10,O   9,C   7,C   6)   -179.3476         0.037790   
    164. D(H  39,C  10,O   9,C   7)    -61.9629         0.019546   
    165. D(H  17,C  10,O   9,C   7)     58.9787         0.019546   
    166. D(H  16,C  10,O   9,C   7)    178.7472         0.019546   
    167. D(F  41,C  18,C   4,H  13)    -37.6551         0.008908   
    168. D(F  41,C  18,C   4,C   5)     83.6506         0.008908   
    169. D(F  41,C  18,C   4,N   3)   -152.0709         0.008908   
    170. D(N  28,C  18,C   4,C   5)    -32.5670         0.008908   
    171. D(N  28,C  18,C   4,N   3)     91.7115         0.008908   
    172. D(C  19,C  18,C   4,H  13)     88.1100         0.008908   
    173. D(N  28,C  18,C   4,H  13)   -153.8726         0.008908   
    174. D(C  19,C  18,C   4,N   3)    -26.3058         0.008908   
    175. D(C  19,C  18,C   4,C   5)   -150.5843         0.008908   
    176. D(H  30,C  19,C   6,C   7)    139.6041         0.008289   
    177. D(H  30,C  19,C   6,N   3)    -96.4960         0.008289   
    178. D(C  20,C  19,C   6,H  15)    -99.2235         0.008289   
    179. D(C  20,C  19,C   6,C   7)     19.7098         0.008289   
    180. D(C  20,C  19,C   6,N   3)    143.6097         0.008289   
    181. D(C  18,C  19,C   6,H  15)    132.3700         0.008289   
    182. D(C  18,C  19,C   6,C   7)   -108.6967         0.008289   
    183. D(H  30,C  19,C   6,H  15)     20.6709         0.008289   
    184. D(C  18,C  19,C   6,N   3)     15.2032         0.008289   
    185. D(H  30,C  19,C  18,F  41)   -119.0843         0.009972   
    186. D(H  30,C  19,C  18,C   4)    117.5100         0.009972   
    187. D(C  20,C  19,C  18,F  41)     -1.9471         0.009972   
    188. D(C  20,C  19,C  18,N  28)    118.4012         0.009972   
    189. D(C  20,C  19,C  18,C   4)   -125.3528         0.009972   
    190. D(C   6,C  19,C  18,F  41)    130.2979         0.009972   
    191. D(H  30,C  19,C  18,N  28)      1.2639         0.009972   
    192. D(C   6,C  19,C  18,N  28)   -109.3539         0.009972   
    193. D(C   6,C  19,C  18,C   4)      6.8922         0.009972   
    194. D(C  25,C  20,C  19,H  30)    178.6583         0.012570   
    195. D(C  25,C  20,C  19,C  18)     61.6834         0.012570   
    196. D(C  25,C  20,C  19,C   6)    -62.3355         0.012570   
    197. D(C  21,C  20,C  19,H  30)     -0.1281         0.012570   
    198. D(C  21,C  20,C  19,C  18)   -117.1030         0.012570   
    199. D(C  21,C  20,C  19,C   6)    118.8781         0.012570   
    200. D(H  31,C  21,C  20,C  25)   -179.9203         0.026282   
    201. D(H  31,C  21,C  20,C  19)     -1.0983         0.026282   
    202. D(C  22,C  21,C  20,C  25)      0.0208         0.026282   
    203. D(C  22,C  21,C  20,C  19)    178.8427         0.026282   
    204. D(H  32,C  22,C  21,H  31)     -0.1686         0.025713   
    205. D(H  32,C  22,C  21,C  20)    179.8911         0.025713   
    206. D(C  23,C  22,C  21,H  31)    179.6204         0.025713   
    207. D(C  23,C  22,C  21,C  20)     -0.3199         0.025713   
    208. D(H  33,C  23,C  22,H  32)      0.0631         0.026717   
    209. D(H  33,C  23,C  22,C  21)   -179.7248         0.026717   
    210. D(C  24,C  23,C  22,H  32)   -179.9623         0.026717   
    211. D(C  24,C  23,C  22,C  21)      0.2498         0.026717   
    212. D(H  34,C  24,C  23,H  33)     -0.0604         0.025632   
    213. D(H  34,C  24,C  23,C  22)    179.9647         0.025632   
    214. D(C  25,C  24,C  23,H  33)   -179.9078         0.025632   
    215. D(C  25,C  24,C  23,C  22)      0.1172         0.025632   
    216. D(O  26,C  25,C  24,H  34)     -1.0944         0.025766   
    217. D(O  26,C  25,C  24,C  23)    178.7520         0.025766   
    218. D(C  20,C  25,C  24,H  34)    179.7312         0.025766   
    219. D(C  20,C  25,C  24,C  23)     -0.4224         0.025766   
    220. D(O  26,C  25,C  20,C  21)   -178.8921         0.023245   
    221. D(O  26,C  25,C  20,C  19)      2.3063         0.023245   
    222. D(C  24,C  25,C  20,C  21)      0.3528         0.023245   
    223. D(C  24,C  25,C  20,C  19)   -178.4488         0.023245   
    224. D(C  27,O  26,C  25,C  24)      2.0004         0.032141   
    225. D(C  27,O  26,C  25,C  20)   -178.7860         0.032141   
    226. D(H  37,C  27,O  26,C  25)   -178.2993         0.021692   
    227. D(H  36,C  27,O  26,C  25)    -59.4715         0.021692   
    228. D(H  35,C  27,O  26,C  25)     62.7278         0.021692   
    229. D(O  38,N  28,C  18,F  41)    -16.4808         0.011007   
    230. D(O  38,N  28,C  18,C  19)   -142.0706         0.011007   
    231. D(O  38,N  28,C  18,C   4)    103.0909         0.011007   
    232. D(O  29,N  28,C  18,F  41)    168.8941         0.011007   
    233. D(O  29,N  28,C  18,C  19)     43.3042         0.011007   
    234. D(O  29,N  28,C  18,C   4)    -71.5342         0.011007   
    -----------------------------------------------------------------

Number of atoms                         .... 42
Number of degrees of freedom            .... 234

         *************************************************************
         *                GEOMETRY OPTIMIZATION CYCLE   1            *
         *************************************************************
---------------------------------
CARTESIAN COORDINATES (ANGSTROEM)
---------------------------------
  C     -4.056659   -0.949898    0.195526
  C     -3.696747   -2.089708   -0.618604
  C     -2.382521   -2.284635   -0.891433
  N     -1.409730   -1.481750   -0.377133
  C     -1.670704   -0.332974    0.457387
  C     -3.127153   -0.118342    0.710136
  C     -0.054977   -1.450912   -0.845139
  C      0.865640   -2.246886    0.073236
  O      0.502391   -2.861040    1.044050
  O      2.100284   -2.263057   -0.408543
  C      3.073156   -2.983779    0.337444
  H     -5.113507   -0.763377    0.407548
  H     -2.020852   -3.095164   -1.529305
  H     -1.100864   -0.395522    1.407857
  H     -3.401947    0.734386    1.334617
  H      0.016924   -1.949077   -1.823985
  H      4.010888   -2.901717   -0.222686
  H      2.779519   -4.037984    0.439132
  C     -0.884039    0.797248   -0.282212
  C      0.253075    0.079657   -1.045634
  C      1.620817    0.618559   -0.731237
  C      2.382000    1.210287   -1.737563
  C      3.646214    1.742610   -1.475879
  C      4.152539    1.686136   -0.180965
  C      3.411905    1.100387    0.848390
  C      2.152359    0.564579    0.573084
  O      1.372029   -0.041142    1.486775
  C      1.791908   -0.129696    2.828250
  N     -1.833541    1.462077   -1.253005
  O     -2.144662    0.815528   -2.227488
  H      0.077743    0.266324   -2.110560
  H      1.970060    1.253921   -2.749655
  H      4.225896    2.200089   -2.280323
  H      5.138264    2.101742    0.043218
  H      3.821378    1.062593    1.858269
  H      1.899697    0.871032    3.277110
  H      2.745927   -0.673818    2.917430
  H      1.009425   -0.685632    3.358554
  O     -2.287710    2.535188   -0.944031
  H      3.192258   -2.544234    1.337985
  H     -4.451264   -2.763881   -1.021713
  F     -0.485818    1.754590    0.568159

----------------------------
CARTESIAN COORDINATES (A.U.)
----------------------------
  NO LB      ZA    FRAG     MASS         X           Y           Z
   0 C     6.0000    0    12.011   -7.665975   -1.795047    0.369491
   1 C     6.0000    0    12.011   -6.985839   -3.948976   -1.168992
   2 C     6.0000    0    12.011   -4.502312   -4.317334   -1.684564
   3 N     7.0000    0    14.007   -2.664004   -2.800102   -0.712678
   4 C     6.0000    0    12.011   -3.157173   -0.629230    0.864336
   5 C     6.0000    0    12.011   -5.909463   -0.223634    1.341963
   6 C     6.0000    0    12.011   -0.103891   -2.741826   -1.597081
   7 C     6.0000    0    12.011    1.635823   -4.245999    0.138396
   8 O     8.0000    0    15.999    0.949381   -5.406582    1.972969
   9 O     8.0000    0    15.999    3.968962   -4.276558   -0.772034
  10 C     6.0000    0    12.011    5.807423   -5.638525    0.637677
  11 H     1.0000    0     1.008   -9.663128   -1.442573    0.770154
  12 H     1.0000    0     1.008   -3.818857   -5.849012   -2.889968
  13 H     1.0000    0     1.008   -2.080331   -0.747428    2.660464
  14 H     1.0000    0     1.008   -6.428748    1.387788    2.522061
  15 H     1.0000    0     1.008    0.031982   -3.683222   -3.446832
  16 H     1.0000    0     1.008    7.579480   -5.483450   -0.420816
  17 H     1.0000    0     1.008    5.252530   -7.630684    0.829839
  18 C     6.0000    0    12.011   -1.670592    1.506580   -0.533303
  19 C     6.0000    0    12.011    0.478242    0.150530   -1.975962
  20 C     6.0000    0    12.011    3.062900    1.168907   -1.381838
  21 C     6.0000    0    12.011    4.501328    2.287111   -3.283518
  22 C     6.0000    0    12.011    6.890346    3.293056   -2.789007
  23 C     6.0000    0    12.011    7.847161    3.186335   -0.341974
  24 C     6.0000    0    12.011    6.447566    2.079430    1.603225
  25 C     6.0000    0    12.011    4.067369    1.066900    1.082972
  26 O     8.0000    0    15.999    2.592759   -0.077747    2.809598
  27 C     6.0000    0    12.011    3.386215   -0.245090    5.344618
  28 N     7.0000    0    14.007   -3.464890    2.762925   -2.367836
  29 O     8.0000    0    15.999   -4.052824    1.541125   -4.209342
  30 H     1.0000    0     1.008    0.146913    0.503279   -3.988380
  31 H     1.0000    0     1.008    3.722874    2.369567   -5.196095
  32 H     1.0000    0     1.008    7.985786    4.157566   -4.309186
  33 H     1.0000    0     1.008    9.709912    3.971717    0.081670
  34 H     1.0000    0     1.008    7.221358    2.008010    3.511619
  35 H     1.0000    0     1.008    3.589907    1.646012    6.192840
  36 H     1.0000    0     1.008    5.189050   -1.273331    5.513144
  37 H     1.0000    0     1.008    1.907537   -1.295657    6.346747
  38 O     8.0000    0    15.999   -4.323145    4.790811   -1.783960
  39 H     1.0000    0     1.008    6.032493   -4.807905    2.528425
  40 H     1.0000    0     1.008   -8.411670   -5.222978   -1.930758
  41 F     9.0000    0    18.998   -0.918063    3.315695    1.073665

--------------------------------
INTERNAL COORDINATES (ANGSTROEM)
--------------------------------
 C      0   0   0     0.000000000000     0.00000000     0.00000000
 C      1   0   0     1.446205773998     0.00000000     0.00000000
 C      2   1   0     1.356326722308   117.88170786     0.00000000
 N      3   2   1     1.362149456890   122.09553224     2.92936212
 C      4   3   2     1.443681875363   123.92962816   357.75158940
 C      1   2   3     1.349181321125   121.93976121   358.03003247
 C      4   3   2     1.433644408244   124.35259274   194.07960533
 C      7   4   3     1.524638616194   111.26811600   259.04178328
 O      8   7   4     1.204829778148   124.71070245     2.25324702
 O      8   7   4     1.325412506663   110.48068298   176.93279368
 C     10   8   7     1.422116990208   116.92093382   180.65235209
 H      1   2   3     1.093924634986   118.94187836   178.63774062
 H      3   2   1     1.092996987089   122.99689537   182.45388482
 H      5   4   3     1.109965359281   110.93709310   126.16259373
 H      6   1   2     1.092077517295   121.73643815   180.76119037
 H      7   4   3     1.100671437234   110.01752278    15.06215076
 H     11  10   8     1.095363452270   106.22702089   178.74715734
 H     11  10   8     1.099050189545   110.60214254    58.97871374
 C      5   4   3     1.563089975756   102.17366375   232.89852486
 C     19   5   4     1.546214164455   105.55501309   333.69416300
 C     20  19   5     1.503322659238   113.54500174   234.64723717
 C     21  20  19     1.393640414077   119.87546617   242.89698881
 C     22  21  20     1.396453840978   121.39944717   178.84268809
 C     23  22  21     1.391530303550   119.22994162   359.68009590
 C     24  23  22     1.396858020338   120.65291403     0.24979936
 C     25  24  23     1.396187570714   119.60003760     0.11722970
 O     26  25  24     1.345601754689   124.19535540   178.75201859
 C     27  26  25     1.408437205268   120.14290492     2.00037215
 N     19   5   4     1.511949303414   107.80021073    91.71154679
 O     29  19   5     1.210140075913   116.33187852   288.46580386
 H     20  19   5     1.095286841238   106.45312196   117.50998081
 H     22  21  20     1.093585253202   118.65117697   358.90166465
 H     23  22  21     1.091992859730   120.14761050   179.89112608
 H     24  23  22     1.092995947088   120.23759435   180.27515093
 H     25  24  23     1.090390810125   119.86246991   179.96467041
 H     28  27  26     1.102066376452   111.09962135    62.72777608
 H     28  27  26     1.101895673667   111.48403258   300.52851923
 H     28  27  26     1.096616074021   106.24504100   181.70068196
 O     29  19   5     1.205529606255   117.60959073   103.09092821
 H     11  10   8     1.099303136587   110.42096079   298.03711298
 H      2   1   3     1.089174918504   121.58655276   181.25836029
 F     19   5   4     1.340975207618   111.44511862   207.92907529

---------------------------
INTERNAL COORDINATES (A.U.)
---------------------------
 C      0   0   0     0.000000000000     0.00000000     0.00000000
 C      1   0   0     2.732932846151     0.00000000     0.00000000
 C      2   1   0     2.563086053281   117.88170786     0.00000000
 N      3   2   1     2.574089426992   122.09553224     2.92936212
 C      4   3   2     2.728163368942   123.92962816   357.75158940
 C      1   2   3     2.549583201928   121.93976121   358.03003247
 C      4   3   2     2.709195305009   124.35259274   194.07960533
 C      7   4   3     2.881149437807   111.26811600   259.04178328
 O      8   7   4     2.276798318693   124.71070245     2.25324702
 O      8   7   4     2.504666652067   110.48068298   176.93279368
 C     10   8   7     2.687411641889   116.92093382   180.65235209
 H      1   2   3     2.067217971273   118.94187836   178.63774062
 H      3   2   1     2.065464970800   122.99689537   182.45388482
 H      5   4   3     2.097530547181   110.93709310   126.16259373
 H      6   1   2     2.063727424700   121.73643815   180.76119037
 H      7   4   3     2.079967579801   110.01752278    15.06215076
 H     11  10   8     2.069936941896   106.22702089   178.74715734
 H     11  10   8     2.076903865674   110.60214254    58.97871374
 C      5   4   3     2.953811976857   102.17366375   232.89852486
 C     19   5   4     2.921921315210   105.55501309   333.69416300
 C     20  19   5     2.840868116877   113.54500174   234.64723717
 C     21  20  19     2.633598711770   119.87546617   242.89698881
 C     22  21  20     2.638915318110   121.39944717   178.84268809
 C     23  22  21     2.629611180761   119.22994162   359.68009590
 C     24  23  22     2.639679106410   120.65291403     0.24979936
 C     25  24  23     2.638412140234   119.60003760     0.11722970
 O     26  25  24     2.542818801686   124.19535540   178.75201859
 C     27  26  25     2.661560594781   120.14290492     2.00037215
 N     19   5   4     2.857170111825   107.80021073    91.71154679
 O     29  19   5     2.286833327158   116.33187852   288.46580386
 H     20  19   5     2.069792168027   106.45312196   117.50998081
 H     22  21  20     2.066576632646   118.65117697   358.90166465
 H     23  22  21     2.063567445087   120.14761050   179.89112608
 H     24  23  22     2.065463005482   120.23759435   180.27515093
 H     25  24  23     2.060540010082   119.86246991   179.96467041
 H     28  27  26     2.082603632896   111.09962135    62.72777608
 H     28  27  26     2.082281051382   111.48403258   300.52851923
 H     28  27  26     2.072304053955   106.24504100   181.70068196
 O     29  19   5     2.278120802156   117.60959073   103.09092821
 H     11  10   8     2.077381866310   110.42096079   298.03711298
 H      2   1   3     2.058242307909   121.58655276   181.25836029
 F     19   5   4     2.534075894776   111.44511862   207.92907529

---------------------
BASIS SET INFORMATION
---------------------
There are 5 groups of distinct atoms

 Group   1 Type C   : 11s6p2d1f contracted to 5s3p2d1f pattern {62111/411/11/1}
 Group   2 Type N   : 11s6p2d1f contracted to 5s3p2d1f pattern {62111/411/11/1}
 Group   3 Type O   : 11s6p2d1f contracted to 5s3p2d1f pattern {62111/411/11/1}
 Group   4 Type H   : 5s1p contracted to 3s1p pattern {311/1}
 Group   5 Type F   : 11s6p2d1f contracted to 5s3p2d1f pattern {62111/411/11/1}

Atom   0C    basis set group =>   1
Atom   1C    basis set group =>   1
Atom   2C    basis set group =>   1
Atom   3N    basis set group =>   2
Atom   4C    basis set group =>   1
Atom   5C    basis set group =>   1
Atom   6C    basis set group =>   1
Atom   7C    basis set group =>   1
Atom   8O    basis set group =>   3
Atom   9O    basis set group =>   3
Atom  10C    basis set group =>   1
Atom  11H    basis set group =>   4
Atom  12H    basis set group =>   4
Atom  13H    basis set group =>   4
Atom  14H    basis set group =>   4
Atom  15H    basis set group =>   4
Atom  16H    basis set group =>   4
Atom  17H    basis set group =>   4
Atom  18C    basis set group =>   1
Atom  19C    basis set group =>   1
Atom  20C    basis set group =>   1
Atom  21C    basis set group =>   1
Atom  22C    basis set group =>   1
Atom  23C    basis set group =>   1
Atom  24C    basis set group =>   1
Atom  25C    basis set group =>   1
Atom  26O    basis set group =>   3
Atom  27C    basis set group =>   1
Atom  28N    basis set group =>   2
Atom  29O    basis set group =>   3
Atom  30H    basis set group =>   4
Atom  31H    basis set group =>   4
Atom  32H    basis set group =>   4
Atom  33H    basis set group =>   4
Atom  34H    basis set group =>   4
Atom  35H    basis set group =>   4
Atom  36H    basis set group =>   4
Atom  37H    basis set group =>   4
Atom  38O    basis set group =>   3
Atom  39H    basis set group =>   4
Atom  40H    basis set group =>   4
Atom  41F    basis set group =>   5
---------------------------------
AUXILIARY/J BASIS SET INFORMATION
---------------------------------
There are 5 groups of distinct atoms

 Group   1 Type C   : 12s5p4d2f1g contracted to 6s4p3d1f1g pattern {711111/2111/211/2/1}
 Group   2 Type N   : 12s5p4d2f1g contracted to 6s4p3d1f1g pattern {711111/2111/211/2/1}
 Group   3 Type O   : 12s5p4d2f1g contracted to 6s4p3d1f1g pattern {711111/2111/211/2/1}
 Group   4 Type H   : 5s2p1d contracted to 3s1p1d pattern {311/2/1}
 Group   5 Type F   : 12s5p4d2f1g contracted to 6s4p3d1f1g pattern {711111/2111/211/2/1}

Atom   0C    basis set group =>   1
Atom   1C    basis set group =>   1
Atom   2C    basis set group =>   1
Atom   3N    basis set group =>   2
Atom   4C    basis set group =>   1
Atom   5C    basis set group =>   1
Atom   6C    basis set group =>   1
Atom   7C    basis set group =>   1
Atom   8O    basis set group =>   3
Atom   9O    basis set group =>   3
Atom  10C    basis set group =>   1
Atom  11H    basis set group =>   4
Atom  12H    basis set group =>   4
Atom  13H    basis set group =>   4
Atom  14H    basis set group =>   4
Atom  15H    basis set group =>   4
Atom  16H    basis set group =>   4
Atom  17H    basis set group =>   4
Atom  18C    basis set group =>   1
Atom  19C    basis set group =>   1
Atom  20C    basis set group =>   1
Atom  21C    basis set group =>   1
Atom  22C    basis set group =>   1
Atom  23C    basis set group =>   1
Atom  24C    basis set group =>   1
Atom  25C    basis set group =>   1
Atom  26O    basis set group =>   3
Atom  27C    basis set group =>   1
Atom  28N    basis set group =>   2
Atom  29O    basis set group =>   3
Atom  30H    basis set group =>   4
Atom  31H    basis set group =>   4
Atom  32H    basis set group =>   4
Atom  33H    basis set group =>   4
Atom  34H    basis set group =>   4
Atom  35H    basis set group =>   4
Atom  36H    basis set group =>   4
Atom  37H    basis set group =>   4
Atom  38O    basis set group =>   3
Atom  39H    basis set group =>   4
Atom  40H    basis set group =>   4
Atom  41F    basis set group =>   5


           ************************************************************
           *        Program running with 24 parallel MPI-processes    *
           *              working on a common directory               *
           ************************************************************
------------------------------------------------------------------------------
                           ORCA GTO INTEGRAL CALCULATION
                           -- RI-GTO INTEGRALS CHOSEN --
------------------------------------------------------------------------------
------------------------------------------------------------------------------
                   ___                                                        
                  /   \      - P O W E R E D   B Y -                         
                 /     \                                                     
                 |  |  |   _    _      __       _____    __    __             
                 |  |  |  | |  | |    /  \     |  _  \  |  |  /  |          
                  \  \/   | |  | |   /    \    | | | |  |  | /  /          
                 / \  \   | |__| |  /  /\  \   | |_| |  |  |/  /          
                |  |  |   |  __  | /  /__\  \  |    /   |      \           
                |  |  |   | |  | | |   __   |  |    \   |  |\   \          
                \     /   | |  | | |  |  |  |  | |\  \  |  | \   \       
                 \___/    |_|  |_| |__|  |__|  |_| \__\ |__|  \__/        
                                                                              
                      - O R C A' S   B I G   F R I E N D -                    
                                      &                                       
                       - I N T E G R A L  F E E D E R -                       
                                                                              
 v1 FN, 2020, v2 2021                                                         
------------------------------------------------------------------------------


Reading SHARK input file 3_F/3_F.SHARKINP.tmp ... ok
----------------------
SHARK INTEGRAL PACKAGE
----------------------

Number of atoms                             ...     42
Number of basis functions                   ...    877
Number of shells                            ...    343
Maximum angular momentum                    ...      3
Integral batch strategy                     ... SHARK/LIBINT Hybrid
RI-J (if used) integral strategy            ... SPLIT-RIJ (Revised 2003 algorithm where possible)
Printlevel                                  ...      1
Contraction scheme used                     ... SEGMENTED contraction
Coulomb Range Separation                    ... NOT USED
Exchange Range Separation                   ... NOT USED
Finite Nucleus Model                        ... NOT USED
Auxiliary Coulomb fitting basis             ... AVAILABLE
   # of basis functions in Aux-J            ...   1412
   # of shells in Aux-J                     ...    460
   Maximum angular momentum in Aux-J        ...      4
Auxiliary J/K fitting basis                 ... NOT available
Auxiliary Correlation fitting basis         ... NOT available
Auxiliary 'external' fitting basis          ... NOT available
Integral threshold                          ...     2.500000e-11
Primitive cut-off                           ...     2.500000e-12
Primitive pair pre-selection threshold      ...     2.500000e-12

Calculating pre-screening integrals         ... done (  0.1 sec) Dimension = 343
Organizing shell pair data                  ... done (  0.8 sec)
Shell pair information
Total number of shell pairs                 ...     58996
Shell pairs after pre-screening             ...     43819
Total number of primitive shell pairs       ...    182104
Primitive shell pairs kept                  ...     88863
          la=0 lb=0:  10995 shell pairs
          la=1 lb=0:  12497 shell pairs
          la=1 lb=1:   3555 shell pairs
          la=2 lb=0:   6326 shell pairs
          la=2 lb=1:   3656 shell pairs
          la=2 lb=2:    963 shell pairs
          la=3 lb=0:   2954 shell pairs
          la=3 lb=1:   1753 shell pairs
          la=3 lb=2:    894 shell pairs
          la=3 lb=3:    226 shell pairs

Calculating one electron integrals          ... done (  0.1 sec)
Calculating RI/J V-Matrix + Cholesky decomp.... done (  0.2 sec)
Calculating Nuclear repulsion               ... done (  0.0 sec) ENN=   2464.354967989285 Eh

SHARK setup successfully completed in   2.2 seconds

Maximum memory used throughout the entire GTOINT-calculation: 66.3 MB


           ************************************************************
           *        Program running with 24 parallel MPI-processes    *
           *              working on a common directory               *
           ************************************************************
-------------------------------------------------------------------------------
                                 ORCA SCF
-------------------------------------------------------------------------------

------------
SCF SETTINGS
------------
Hamiltonian:
 Density Functional     Method          .... DFT(GTOs)
 Exchange Functional    Exchange        .... PBE
   PBE kappa parameter   XKappa         ....  0.804000
   PBE mue parameter    XMuePBE         ....  0.219520
 Correlation Functional Correlation     .... PBE
   PBE beta parameter  CBetaPBE         ....  0.066725
 LDA part of GGA corr.  LDAOpt          .... PW91-LDA
 Gradients option       PostSCFGGA      .... off
 Hybrid DFT is turned on
   Fraction HF Exchange ScalHFX         ....  0.250000
   Scaling of DF-GGA-X  ScalDFX         ....  0.750000
   Scaling of DF-GGA-C  ScalDFC         ....  1.000000
   Scaling of DF-LDA-C  ScalLDAC        ....  1.000000
   Perturbative correction              ....  0.000000
   Density functional embedding theory  .... OFF
   NL short-range parameter             ....  6.900000
 RI-approximation to the Coulomb term is turned on
   Number of AuxJ basis functions       .... 1412
   RIJ-COSX (HFX calculated with COS-X)).... on


General Settings:
 Integral files         IntName         .... 3_F/3_F
 Hartree-Fock type      HFTyp           .... RHF
 Total Charge           Charge          ....    0
 Multiplicity           Mult            ....    1
 Number of Electrons    NEL             ....  182
 Basis Dimension        Dim             ....  877
 Nuclear Repulsion      ENuc            ....   2464.3549679893 Eh

Convergence Acceleration:
 DIIS                   CNVDIIS         .... on
   Start iteration      DIISMaxIt       ....    12
   Startup error        DIISStart       ....  0.200000
   # of expansion vecs  DIISMaxEq       ....     5
   Bias factor          DIISBfac        ....   1.050
   Max. coefficient     DIISMaxC        ....  10.000
 Trust-Rad. Augm. Hess. CNVTRAH         .... auto
   Auto Start mean grad. ratio tolernc. ....  1.125000
   Auto Start start iteration           ....    20
   Auto Start num. interpolation iter.  ....    10
   Max. Number of Micro iterations      ....    16
   Max. Number of Macro iterations      .... Maxiter - #DIIS iter
   Number of Davidson start vectors     ....     2
   Converg. threshold I  (grad. norm)   ....   1.000e-05
   Converg. threshold II (energy diff.) ....   1.000e-08
   Grad. Scal. Fac. for Micro threshold ....   0.100
   Minimum threshold for Micro iter.    ....   0.010
   NR start threshold (gradient norm)   ....   0.001
   Initial trust radius                 ....   0.400
   Minimum AH scaling param. (alpha)    ....   1.000
   Maximum AH scaling param. (alpha)    .... 1000.000
   Orbital update algorithm             .... Taylor
   White noise on init. David. guess    .... on
   Maximum white noise                  ....   0.010
   Quad. conv. algorithm                .... NR
 SOSCF                  CNVSOSCF        .... on
   Start iteration      SOSCFMaxIt      ....   150
   Startup grad/error   SOSCFStart      ....  0.003300
 Level Shifting         CNVShift        .... on
   Level shift para.    LevelShift      ....    0.2500
   Turn off err/grad.   ShiftErr        ....    0.0010
 Zerner damping         CNVZerner       .... off
 Static damping         CNVDamp         .... on
   Fraction old density DampFac         ....    0.7000
   Max. Damping (<1)    DampMax         ....    0.9800
   Min. Damping (>=0)   DampMin         ....    0.0000
   Turn off err/grad.   DampErr         ....    0.1000
 Fernandez-Rico         CNVRico         .... off

SCF Procedure:
 Maximum # iterations   MaxIter         ....   800
 SCF integral mode      SCFMode         .... Direct
   Integral package                     .... SHARK and LIBINT hybrid scheme
 Reset frequency        DirectResetFreq ....    20
 Integral Threshold     Thresh          ....  2.500e-11 Eh
 Primitive CutOff       TCut            ....  2.500e-12 Eh

Convergence Tolerance:
 Convergence Check Mode ConvCheckMode   .... Total+1el-Energy
 Convergence forced     ConvForced      .... 0
 Energy Change          TolE            ....  1.000e-08 Eh
 1-El. energy change                    ....  1.000e-05 Eh
 Orbital Gradient       TolG            ....  1.000e-05
 Orbital Rotation angle TolX            ....  1.000e-05
 DIIS Error             TolErr          ....  5.000e-07


Diagonalization of the overlap matrix:
Smallest eigenvalue                        ... 5.998e-06
Time for diagonalization                   ...    0.249 sec
Threshold for overlap eigenvalues          ... 1.000e-08
Number of eigenvalues below threshold      ... 0
Time for construction of square roots      ...    0.139 sec
Total time needed                          ...    0.395 sec

Time for model grid setup =    0.343 sec

------------------------------
INITIAL GUESS: MODEL POTENTIAL
------------------------------
Loading Hartree-Fock densities                     ... done
Calculating cut-offs                               ... done
Initializing the effective Hamiltonian             ... done
Setting up the integral package (SHARK)            ... done
Starting the Coulomb interaction                   ... done (   0.6 sec)
Reading the grid                                   ... done
Mapping shells                                     ... done
Starting the XC term evaluation                    ... done (   0.2 sec)
  promolecular density results
     # of electrons  =    181.992397091
     EX              =   -155.907869298
     EC              =     -6.199448567
     EX+EC           =   -162.107317866
Transforming the Hamiltonian                       ... done (   0.1 sec)
Diagonalizing the Hamiltonian                      ... done (   0.2 sec)
Back transforming the eigenvectors                 ... done (   0.0 sec)
Now organizing SCF variables                       ... done
                      ------------------
                      INITIAL GUESS DONE (   1.8 sec)
                      ------------------
-------------------
DFT GRID GENERATION
-------------------

General Integration Accuracy     IntAcc      ... 4.388
Radial Grid Type                 RadialGrid  ... OptM3 with GC (2021)
Angular Grid (max. ang.)         AngularGrid ... 4 (Lebedev-302)
Angular grid pruning method      GridPruning ... 4 (adaptive)
Weight generation scheme         WeightScheme... Becke
Basis function cutoff            BFCut       ... 1.0000e-11
Integration weight cutoff        WCut        ... 1.0000e-14
Angular grids for H and He will be reduced by one unit
Partially contracted basis set               ... off
Rotationally invariant grid construction     ... off

Total number of grid points                  ...   202922
Total number of batches                      ...     3195
Average number of points per batch           ...       63
Average number of grid points per atom       ...     4831
Time for grid setup =    1.435 sec

--------------------
COSX GRID GENERATION
--------------------

GRIDX 1
-------
General Integration Accuracy     IntAcc      ... 3.816
Radial Grid Type                 RadialGrid  ... OptM3 with GC (2021)
Angular Grid (max. ang.)         AngularGrid ... 1 (Lebedev-50)
Angular grid pruning method      GridPruning ... 4 (adaptive)
Weight generation scheme         WeightScheme... Becke
Basis function cutoff            BFCut       ... 1.0000e-11
Integration weight cutoff        WCut        ... 1.0000e-14
Angular grids for H and He will be reduced by one unit
Partially contracted basis set               ... on
Rotationally invariant grid construction     ... off

Total number of grid points                  ...    25774
Total number of batches                      ...      422
Average number of points per batch           ...       61
Average number of grid points per atom       ...      614
UseSFitting                                  ... on

GRIDX 2
-------
General Integration Accuracy     IntAcc      ... 4.020
Radial Grid Type                 RadialGrid  ... OptM3 with GC (2021)
Angular Grid (max. ang.)         AngularGrid ... 2 (Lebedev-110)
Angular grid pruning method      GridPruning ... 4 (adaptive)
Weight generation scheme         WeightScheme... Becke
Basis function cutoff            BFCut       ... 1.0000e-11
Integration weight cutoff        WCut        ... 1.0000e-14
Angular grids for H and He will be reduced by one unit
Partially contracted basis set               ... on
Rotationally invariant grid construction     ... off

Total number of grid points                  ...    56000
Total number of batches                      ...      898
Average number of points per batch           ...       62
Average number of grid points per atom       ...     1333
UseSFitting                                  ... on

GRIDX 3
-------
General Integration Accuracy     IntAcc      ... 4.338
Radial Grid Type                 RadialGrid  ... OptM3 with GC (2021)
Angular Grid (max. ang.)         AngularGrid ... 3 (Lebedev-194)
Angular grid pruning method      GridPruning ... 4 (adaptive)
Weight generation scheme         WeightScheme... Becke
Basis function cutoff            BFCut       ... 1.0000e-11
Integration weight cutoff        WCut        ... 1.0000e-14
Angular grids for H and He will be reduced by one unit
Partially contracted basis set               ... on
Rotationally invariant grid construction     ... off

Total number of grid points                  ...   122308
Total number of batches                      ...     1933
Average number of points per batch           ...       63
Average number of grid points per atom       ...     2912
UseSFitting                                  ... on

Time for X-Grid setup             =    2.457 sec


--------------------
CPCM SOLVATION MODEL
--------------------
CPCM parameters:
  Epsilon                                         ...      47.2000
  Refrac                                          ...       1.4790
  Rsolv                                           ...       1.3000
  Surface type                                    ... GAUSSIAN VDW
  Epsilon function type                           ...         CPCM
Radii:
 Radius for C  used is    3.8550 Bohr (=   2.0400 Ang.)
 Radius for N  used is    3.5149 Bohr (=   1.8600 Ang.)
 Radius for O  used is    3.4469 Bohr (=   1.8240 Ang.)
 Radius for H  used is    2.4944 Bohr (=   1.3200 Ang.)
 Radius for F  used is    3.3335 Bohr (=   1.7640 Ang.)
Calculating surface                               ...        done! (  0.0s)
GEPOL surface points                              ...         2113
GEPOL Volume                                      ...    2551.4562
GEPOL Surface-area                                ...    1240.4289
Calculating surface distance matrix               ...        done! (  0.1s)
Performing Cholesky decomposition & store         ...        done! (  0.3s)
Overall time for CPCM initialization              ...                 0.4s
--------------
SCF ITERATIONS
--------------
ITER       Energy         Delta-E        Max-DP      RMS-DP      [F,P]     Damp
               ***  Starting incremental Fock matrix formation  ***
  0  -1241.9377560365   0.000000000000 0.17697827  0.00079692  0.2639065 0.7000
  1  -1242.1903774207  -0.252621384158 0.15231469  0.00063939  0.1056293 0.7000
                               ***Turning on DIIS***
  2  -1242.2885992305  -0.098221809863 0.22633085  0.00107218  0.0327878 0.0000
  3  -1242.4542790786  -0.165679848106 0.13205643  0.00051217  0.0535458 0.0000
  4  -1242.4833016474  -0.029022568740 0.03825254  0.00018341  0.0142040 0.0000
  5  -1242.4854419777  -0.002140330370 0.01733349  0.00006162  0.0050560 0.0000
                      *** Initiating the SOSCF procedure ***
                           *** Shutting down DIIS ***
                      *** Re-Reading the Fockian *** 
                      *** Removing any level shift *** 
ITER      Energy       Delta-E        Grad      Rot      Max-DP    RMS-DP
  6  -1242.48558351  -0.0001415327  0.000251  0.000251  0.003123  0.000020
               *** Restarting incremental Fock matrix formation ***
  7  -1242.48558396  -0.0000004538  0.000168  0.000990  0.003771  0.000022
  8  -1242.48558400  -0.0000000358  0.000235  0.000385  0.000583  0.000006
  9  -1242.48558719  -0.0000031882  0.000112  0.000338  0.000501  0.000004
 10  -1242.48558694   0.0000002460  0.000208  0.000240  0.000472  0.000002
 11  -1242.48558732  -0.0000003784  0.000020  0.000043  0.000263  0.000001
 12  -1242.48558733  -0.0000000045  0.000018  0.000027  0.000159  0.000001
                  ***Gradient check signals convergence***
              ***Rediagonalizing the Fockian in SOSCF/NRSCF***

               *****************************************************
               *                     SUCCESS                       *
               *           SCF CONVERGED AFTER  13 CYCLES          *
               *****************************************************

Old exchange energy                            =    -39.652938928 Eh
New exchange energy                            =    -39.652953252 Eh
Exchange energy change after final integration =     -0.000014323 Eh
Total energy after final integration           =  -1242.485601682 Eh
Final COS-X integration done in                =    15.549 sec

----------------
TOTAL SCF ENERGY
----------------

Total Energy       :        -1242.48560168 Eh          -33809.75208 eV

Components:
Nuclear Repulsion  :         2464.35496799 Eh           67058.50787 eV
Electronic Energy  :        -3706.84056967 Eh         -100868.25994 eV
One Electron Energy:        -6599.40272924 Eh         -179578.87788 eV
Two Electron Energy:         2892.56215957 Eh           78710.61793 eV
Max COSX asymmetry :            0.00000721 Eh               0.00020 eV
CPCM Dielectric    :           -0.02942842 Eh              -0.80079 eV

Virial components:
Potential Energy   :        -2479.33979800 Eh          -67466.26582 eV
Kinetic Energy     :         1236.85419632 Eh           33656.51375 eV
Virial Ratio       :            2.00455301


DFT components:
N(Alpha)           :       91.000175985383 electrons
N(Beta)            :       91.000175985383 electrons
N(Total)           :      182.000351970766 electrons
E(X)               :     -118.778923291568 Eh       
E(C)               :       -6.189227438053 Eh       
E(XC)              :     -124.968150729620 Eh       
DFET-embed. en.    :        0.000000000000 Eh       
CPCM Solvation Model Properties:
Surface-charge          :           -0.03012376
Charge-correction       :           -0.00004147 Eh              -0.00113 eV
Free-energy (cav+disp)  :  This term is not implemented in the current solvation scheme

---------------
SCF CONVERGENCE
---------------

  Last Energy change         ...   -3.3826e-08  Tolerance :   1.0000e-08
  Last MAX-Density change    ...    2.1094e-15  Tolerance :   1.0000e-07
  Last RMS-Density change    ...    1.5177e-17  Tolerance :   5.0000e-09
  Last Orbital Gradient      ...    1.9639e-06  Tolerance :   1.0000e-05
  Last Orbital Rotation      ...    6.7334e-06  Tolerance :   1.0000e-05

             **** THE GBW FILE WAS UPDATED (3_F/3_F.gbw) ****
             **** DENSITY 3_F/3_F.scfp WAS UPDATED ****
             **** ENERGY FILE WAS UPDATED (3_F/3_F.en.tmp) ****
             **** THE GBW FILE WAS UPDATED (3_F/3_F.gbw) ****
             **** DENSITY 3_F/3_F.scfp WAS UPDATED ****
----------------
ORBITAL ENERGIES
----------------

  NO   OCC          E(Eh)            E(eV) 
   0   2.0000     -24.800491      -674.8557 
   1   2.0000     -19.263866      -524.1964 
   2   2.0000     -19.259641      -524.0815 
   3   2.0000     -19.258122      -524.0401 
   4   2.0000     -19.250216      -523.8250 
   5   2.0000     -19.202655      -522.5308 
   6   2.0000     -14.630559      -398.1177 
   7   2.0000     -14.429367      -392.6430 
   8   2.0000     -10.375478      -282.3311 
   9   2.0000     -10.360272      -281.9173 
  10   2.0000     -10.295764      -280.1620 
  11   2.0000     -10.293555      -280.1019 
  12   2.0000     -10.292567      -280.0750 
  13   2.0000     -10.273055      -279.5441 
  14   2.0000     -10.272092      -279.5178 
  15   2.0000     -10.271237      -279.4946 
  16   2.0000     -10.270692      -279.4797 
  17   2.0000     -10.246345      -278.8172 
  18   2.0000     -10.235965      -278.5348 
  19   2.0000     -10.235884      -278.5326 
  20   2.0000     -10.234996      -278.5084 
  21   2.0000     -10.230648      -278.3901 
  22   2.0000     -10.228929      -278.3433 
  23   2.0000     -10.225941      -278.2620 
  24   2.0000     -10.211788      -277.8769 
  25   2.0000      -1.305337       -35.5200 
  26   2.0000      -1.275818       -34.7168 
  27   2.0000      -1.154941       -31.4275 
  28   2.0000      -1.116094       -30.3705 
  29   2.0000      -1.115316       -30.3493 
  30   2.0000      -1.062430       -28.9102 
  31   2.0000      -1.022730       -27.8299 
  32   2.0000      -0.898030       -24.4366 
  33   2.0000      -0.872646       -23.7459 
  34   2.0000      -0.853681       -23.2299 
  35   2.0000      -0.813177       -22.1277 
  36   2.0000      -0.791536       -21.5388 
  37   2.0000      -0.784506       -21.3475 
  38   2.0000      -0.779188       -21.2028 
  39   2.0000      -0.749809       -20.4033 
  40   2.0000      -0.722618       -19.6634 
  41   2.0000      -0.712040       -19.3756 
  42   2.0000      -0.674355       -18.3501 
  43   2.0000      -0.652158       -17.7461 
  44   2.0000      -0.637921       -17.3587 
  45   2.0000      -0.629541       -17.1307 
  46   2.0000      -0.612607       -16.6699 
  47   2.0000      -0.604978       -16.4623 
  48   2.0000      -0.599875       -16.3234 
  49   2.0000      -0.582180       -15.8419 
  50   2.0000      -0.569242       -15.4899 
  51   2.0000      -0.556154       -15.1337 
  52   2.0000      -0.550485       -14.9795 
  53   2.0000      -0.543507       -14.7896 
  54   2.0000      -0.531060       -14.4509 
  55   2.0000      -0.529216       -14.4007 
  56   2.0000      -0.521977       -14.2037 
  57   2.0000      -0.506058       -13.7705 
  58   2.0000      -0.505079       -13.7439 
  59   2.0000      -0.494667       -13.4606 
  60   2.0000      -0.487558       -13.2671 
  61   2.0000      -0.483576       -13.1588 
  62   2.0000      -0.480061       -13.0631 
  63   2.0000      -0.467104       -12.7105 
  64   2.0000      -0.463054       -12.6003 
  65   2.0000      -0.453308       -12.3351 
  66   2.0000      -0.449617       -12.2347 
  67   2.0000      -0.439522       -11.9600 
  68   2.0000      -0.434653       -11.8275 
  69   2.0000      -0.434116       -11.8129 
  70   2.0000      -0.421949       -11.4818 
  71   2.0000      -0.403207       -10.9718 
  72   2.0000      -0.400244       -10.8912 
  73   2.0000      -0.395714       -10.7679 
  74   2.0000      -0.381463       -10.3801 
  75   2.0000      -0.380165       -10.3448 
  76   2.0000      -0.373932       -10.1752 
  77   2.0000      -0.369674       -10.0594 
  78   2.0000      -0.364731        -9.9248 
  79   2.0000      -0.361208        -9.8290 
  80   2.0000      -0.350446        -9.5361 
  81   2.0000      -0.346428        -9.4268 
  82   2.0000      -0.344016        -9.3612 
  83   2.0000      -0.335623        -9.1328 
  84   2.0000      -0.332513        -9.0481 
  85   2.0000      -0.328405        -8.9364 
  86   2.0000      -0.312068        -8.4918 
  87   2.0000      -0.299352        -8.1458 
  88   2.0000      -0.273365        -7.4386 
  89   2.0000      -0.242071        -6.5871 
  90   2.0000      -0.202150        -5.5008 
  91   0.0000      -0.077501        -2.1089 
  92   0.0000      -0.032073        -0.8727 
  93   0.0000      -0.019666        -0.5351 
  94   0.0000      -0.002081        -0.0566 
  95   0.0000       0.004001         0.1089 
  96   0.0000       0.045981         1.2512 
  97   0.0000       0.051120         1.3911 
  98   0.0000       0.060893         1.6570 
  99   0.0000       0.072247         1.9659 
 100   0.0000       0.073303         1.9947 
 101   0.0000       0.084307         2.2941 
 102   0.0000       0.085715         2.3324 
 103   0.0000       0.088615         2.4113 
 104   0.0000       0.090662         2.4670 
 105   0.0000       0.101072         2.7503 
 106   0.0000       0.106224         2.8905 
 107   0.0000       0.110583         3.0091 
 108   0.0000       0.115295         3.1373 
 109   0.0000       0.122395         3.3305 
 110   0.0000       0.123090         3.3494 
 111   0.0000       0.127802         3.4777 
 112   0.0000       0.130632         3.5547 
 113   0.0000       0.138186         3.7602 
 114   0.0000       0.142513         3.8780 
 115   0.0000       0.143685         3.9099 
 116   0.0000       0.145287         3.9535 
 117   0.0000       0.149529         4.0689 
 118   0.0000       0.162249         4.4150 
 119   0.0000       0.163435         4.4473 
 120   0.0000       0.168509         4.5854 
 121   0.0000       0.176672         4.8075 
 122   0.0000       0.182711         4.9718 
 123   0.0000       0.189522         5.1572 
 124   0.0000       0.200178         5.4471 
 125   0.0000       0.201548         5.4844 
 126   0.0000       0.203959         5.5500 
 127   0.0000       0.208684         5.6786 
 128   0.0000       0.216206         5.8833 
 129   0.0000       0.218129         5.9356 
 130   0.0000       0.220874         6.0103 
 131   0.0000       0.222895         6.0653 
 132   0.0000       0.228722         6.2238 
 133   0.0000       0.235955         6.4207 
 134   0.0000       0.241220         6.5639 
 135   0.0000       0.246484         6.7072 
 136   0.0000       0.250190         6.8080 
 137   0.0000       0.252958         6.8833 
 138   0.0000       0.259472         7.0606 
 139   0.0000       0.260645         7.0925 
 140   0.0000       0.266590         7.2543 
 141   0.0000       0.267816         7.2876 
 142   0.0000       0.274325         7.4648 
 143   0.0000       0.282634         7.6909 
 144   0.0000       0.284523         7.7423 
 145   0.0000       0.292538         7.9604 
 146   0.0000       0.296500         8.0682 
 147   0.0000       0.306321         8.3354 
 148   0.0000       0.308111         8.3841 
 149   0.0000       0.309689         8.4271 
 150   0.0000       0.317053         8.6274 
 151   0.0000       0.320291         8.7156 
 152   0.0000       0.323052         8.7907 
 153   0.0000       0.326365         8.8808 
 154   0.0000       0.330331         8.9888 
 155   0.0000       0.337513         9.1842 
 156   0.0000       0.340521         9.2660 
 157   0.0000       0.343708         9.3528 
 158   0.0000       0.346774         9.4362 
 159   0.0000       0.352729         9.5982 
 160   0.0000       0.353637         9.6230 
 161   0.0000       0.357031         9.7153 
 162   0.0000       0.360845         9.8191 
 163   0.0000       0.367172         9.9913 
 164   0.0000       0.369818        10.0633 
 165   0.0000       0.373464        10.1625 
 166   0.0000       0.376006        10.2316 
 167   0.0000       0.387759        10.5515 
 168   0.0000       0.390137        10.6162 
 169   0.0000       0.394082        10.7235 
 170   0.0000       0.395295        10.7565 
 171   0.0000       0.402680        10.9575 
 172   0.0000       0.407523        11.0893 
 173   0.0000       0.411938        11.2094 
 174   0.0000       0.412815        11.2333 
 175   0.0000       0.420798        11.4505 
 176   0.0000       0.422069        11.4851 
 177   0.0000       0.427124        11.6226 
 178   0.0000       0.430206        11.7065 
 179   0.0000       0.431006        11.7283 
 180   0.0000       0.436913        11.8890 
 181   0.0000       0.442199        12.0329 
 182   0.0000       0.446225        12.1424 
 183   0.0000       0.448208        12.1964 
 184   0.0000       0.453149        12.3308 
 185   0.0000       0.456502        12.4220 
 186   0.0000       0.460061        12.5189 
 187   0.0000       0.463279        12.6065 
 188   0.0000       0.466734        12.7005 
 189   0.0000       0.472984        12.8706 
 190   0.0000       0.477223        12.9859 
 191   0.0000       0.479166        13.0388 
 192   0.0000       0.480238        13.0679 
 193   0.0000       0.486428        13.2364 
 194   0.0000       0.497268        13.5314 
 195   0.0000       0.499709        13.5978 
 196   0.0000       0.500925        13.6309 
 197   0.0000       0.504769        13.7355 
 198   0.0000       0.505835        13.7645 
 199   0.0000       0.515659        14.0318 
 200   0.0000       0.518366        14.1055 
 201   0.0000       0.519971        14.1491 
 202   0.0000       0.524163        14.2632 
 203   0.0000       0.527536        14.3550 
 204   0.0000       0.536091        14.5878 
 205   0.0000       0.540156        14.6984 
 206   0.0000       0.542647        14.7662 
 207   0.0000       0.548453        14.9242 
 208   0.0000       0.550206        14.9719 
 209   0.0000       0.554168        15.0797 
 210   0.0000       0.564609        15.3638 
 211   0.0000       0.572218        15.5708 
 212   0.0000       0.574448        15.6315 
 213   0.0000       0.582935        15.8625 
 214   0.0000       0.587136        15.9768 
 215   0.0000       0.594277        16.1711 
 216   0.0000       0.595029        16.1916 
 217   0.0000       0.614486        16.7210 
 218   0.0000       0.618056        16.8182 
 219   0.0000       0.623543        16.9675 
 220   0.0000       0.627793        17.0831 
 221   0.0000       0.643946        17.5227 
 222   0.0000       0.651087        17.7170 
 223   0.0000       0.652523        17.7561 
 224   0.0000       0.653904        17.7936 
 225   0.0000       0.662630        18.0311 
 226   0.0000       0.671091        18.2613 
 227   0.0000       0.676532        18.4094 
 228   0.0000       0.679992        18.5035 
 229   0.0000       0.687058        18.6958 
 230   0.0000       0.696117        18.9423 
 231   0.0000       0.699394        19.0315 
 232   0.0000       0.706575        19.2269 
 233   0.0000       0.711992        19.3743 
 234   0.0000       0.716200        19.4888 
 235   0.0000       0.720519        19.6063 
 236   0.0000       0.729178        19.8419 
 237   0.0000       0.732799        19.9405 
 238   0.0000       0.740191        20.1416 
 239   0.0000       0.744519        20.2594 
 240   0.0000       0.750882        20.4325 
 241   0.0000       0.753790        20.5117 
 242   0.0000       0.759033        20.6543 
 243   0.0000       0.767929        20.8964 
 244   0.0000       0.770579        20.9685 
 245   0.0000       0.779734        21.2176 
 246   0.0000       0.794434        21.6176 
 247   0.0000       0.798280        21.7223 
 248   0.0000       0.806058        21.9339 
 249   0.0000       0.810484        22.0544 
 250   0.0000       0.821385        22.3510 
 251   0.0000       0.822846        22.3908 
 252   0.0000       0.833125        22.6705 
 253   0.0000       0.837068        22.7778 
 254   0.0000       0.842776        22.9331 
 255   0.0000       0.845160        22.9980 
 256   0.0000       0.856005        23.2931 
 257   0.0000       0.863786        23.5048 
 258   0.0000       0.871159        23.7054 
 259   0.0000       0.876340        23.8464 
 260   0.0000       0.884782        24.0761 
 261   0.0000       0.889302        24.1991 
 262   0.0000       0.891502        24.2590 
 263   0.0000       0.910393        24.7731 
 264   0.0000       0.915180        24.9033 
 265   0.0000       0.921284        25.0694 
 266   0.0000       0.924313        25.1518 
 267   0.0000       0.933971        25.4146 
 268   0.0000       0.939088        25.5539 
 269   0.0000       0.949877        25.8475 
 270   0.0000       0.959596        26.1119 
 271   0.0000       0.967556        26.3285 
 272   0.0000       0.968686        26.3593 
 273   0.0000       0.976331        26.5673 
 274   0.0000       0.982989        26.7485 
 275   0.0000       0.991018        26.9670 
 276   0.0000       1.003201        27.2985 
 277   0.0000       1.006591        27.3907 
 278   0.0000       1.012788        27.5594 
 279   0.0000       1.021752        27.8033 
 280   0.0000       1.027851        27.9692 
 281   0.0000       1.032156        28.0864 
 282   0.0000       1.043632        28.3987 
 283   0.0000       1.050263        28.5791 
 284   0.0000       1.057588        28.7784 
 285   0.0000       1.067016        29.0350 
 286   0.0000       1.071706        29.1626 
 287   0.0000       1.084964        29.5234 
 288   0.0000       1.091153        29.6918 
 289   0.0000       1.097785        29.8722 
 290   0.0000       1.098452        29.8904 
 291   0.0000       1.105592        30.0847 
 292   0.0000       1.113312        30.2948 
 293   0.0000       1.119280        30.4572 
 294   0.0000       1.129612        30.7383 
 295   0.0000       1.133119        30.8337 
 296   0.0000       1.140447        31.0332 
 297   0.0000       1.144497        31.1434 
 298   0.0000       1.153772        31.3957 
 299   0.0000       1.160560        31.5805 
 300   0.0000       1.169733        31.8301 
 301   0.0000       1.177459        32.0403 
 302   0.0000       1.180936        32.1349 
 303   0.0000       1.186283        32.2804 
 304   0.0000       1.196087        32.5472 
 305   0.0000       1.210786        32.9472 
 306   0.0000       1.213931        33.0327 
 307   0.0000       1.228385        33.4260 
 308   0.0000       1.232249        33.5312 
 309   0.0000       1.236166        33.6378 
[...]
 14:    115.82   0.000035    0.18  0.000095  ( 0.009671 -0.000953  0.000442)
 15:    118.21   0.000586    2.96  0.001547  ( 0.014812 -0.034915 -0.010440)
 16:    144.79   0.000635    3.21  0.001368  ( 0.023167  0.028230 -0.005894)
 17:    151.36   0.000112    0.57  0.000231  (-0.005958 -0.001295  0.013925)
 18:    183.13   0.000405    2.05  0.000690  ( 0.009993 -0.021273 -0.011740)
 19:    195.42   0.000447    2.26  0.000714  ( 0.006519 -0.023821 -0.010177)
 20:    206.85   0.001185    5.99  0.001788  (-0.004618  0.031010  0.028374)
 21:    228.97   0.000235    1.19  0.000320  (-0.017116 -0.003933 -0.003450)
 22:    242.74   0.000490    2.47  0.000630  ( 0.023162  0.003587 -0.008958)
 23:    246.46   0.000461    2.33  0.000583  ( 0.013848 -0.018761 -0.006301)
 24:    281.33   0.001608    8.12  0.001783  (-0.041157  0.009346  0.001460)
 25:    289.66   0.004024   20.34  0.004335  (-0.063308 -0.010412  0.014795)
 26:    300.22   0.000460    2.32  0.000478  (-0.008334 -0.017837  0.009509)
 27:    318.89   0.000212    1.07  0.000208  ( 0.013746 -0.001610 -0.004024)
 28:    368.60   0.001587    8.02  0.001343  ( 0.022453 -0.023790  0.016525)
 29:    369.47   0.002087   10.55  0.001763  ( 0.005224  0.036960 -0.019220)
 30:    375.53   0.001991   10.06  0.001654  ( 0.029845  0.022232 -0.016410)
 31:    436.13   0.004456   22.52  0.003188  ( 0.015348 -0.040633  0.036081)
 32:    444.13   0.001362    6.88  0.000957  (-0.000451  0.023934  0.019592)
 33:    479.84   0.000257    1.30  0.000167  ( 0.009386  0.000712  0.008850)
 34:    489.06   0.001017    5.14  0.000649  ( 0.002747 -0.023035 -0.010541)
 35:    550.69   0.002843   14.37  0.001611  (-0.036747  0.015685  0.003857)
 36:    553.32   0.003316   16.76  0.001870  ( 0.008048  0.040298  0.013468)
 37:    571.66   0.006470   32.69  0.003532  (-0.033271 -0.019183  0.045352)
 38:    576.53   0.002410   12.18  0.001304  (-0.023633 -0.014219 -0.023318)
 39:    589.05   0.002995   15.14  0.001587  ( 0.004194 -0.023533 -0.031867)
 40:    609.80   0.003742   18.91  0.001915  (-0.034850  0.024581  0.009802)
 41:    643.07   0.003036   15.34  0.001473  ( 0.000560 -0.036118  0.012982)
 42:    654.36   0.001407    7.11  0.000671  (-0.016743 -0.010702 -0.016623)
 43:    667.69   0.011070   55.94  0.005174  (-0.041357  0.047023 -0.035387)
 44:    711.59   0.017075   86.29  0.007488  (-0.010463 -0.046168  0.072438)
 45:    723.34   0.002324   11.74  0.001003  (-0.021307  0.020864 -0.010643)
 46:    754.14   0.000208    1.05  0.000086  ( 0.006334 -0.004685  0.004914)
 47:    767.38   0.014606   73.81  0.005940  (-0.030384  0.070510  0.006686)
 48:    770.44   0.007657   38.69  0.003101  ( 0.009060 -0.032135 -0.044572)
 49:    781.71   0.008820   44.57  0.003521  (-0.029582  0.046159 -0.022696)
 50:    798.77   0.000303    1.53  0.000119  ( 0.009401  0.005481 -0.000337)
 51:    835.12   0.002824   14.27  0.001055  ( 0.025173 -0.020165  0.003856)
 52:    849.38   0.021481  108.56  0.007892  (-0.044056 -0.063990  0.043088)
 53:    869.13   0.003281   16.58  0.001178  (-0.016082  0.027737 -0.012250)
 54:    873.40   0.002323   11.74  0.000830  (-0.020110  0.019783 -0.005856)
 55:    889.74   0.002628   13.28  0.000922  ( 0.015237 -0.002949  0.026090)
 56:    930.59   0.003835   19.38  0.001286  ( 0.007337  0.030512  0.017353)
 57:    946.40   0.001094    5.53  0.000361  ( 0.017333 -0.005640 -0.005338)
 58:    959.15   0.000528    2.67  0.000172  (-0.004440  0.012238  0.001474)
 59:    990.24   0.009412   47.57  0.002966  (-0.004408 -0.053862  0.006762)
 60:    990.63   0.000045    0.23  0.000014  (-0.000654 -0.003659  0.000536)
 61:    995.73   0.000809    4.09  0.000254  (-0.003252 -0.007779  0.013510)
 62:   1000.67   0.000571    2.88  0.000178  (-0.003935  0.012604  0.001917)
 63:   1015.21   0.001941    9.81  0.000597  (-0.019122 -0.002099 -0.015049)
 64:   1023.92   0.001618    8.18  0.000493  ( 0.001225  0.018219 -0.012641)
 65:   1039.26   0.017604   88.96  0.005286  ( 0.053242 -0.049152 -0.005949)
 66:   1064.71   0.003660   18.50  0.001073  (-0.013733 -0.013414 -0.026537)
 67:   1072.33   0.009326   47.13  0.002714  (-0.026278 -0.000185 -0.044984)
 68:   1086.37   0.010851   54.84  0.003117  (-0.005530 -0.012331  0.054170)
 69:   1110.37   0.001610    8.14  0.000453  ( 0.018717 -0.008875  0.004844)
 70:   1148.04   0.014361   72.58  0.003904  ( 0.015148 -0.011539  0.059507)
 71:   1155.61   0.004048   20.46  0.001093  ( 0.015230 -0.029327 -0.001066)
 72:   1170.78   0.000289    1.46  0.000077  (-0.000524 -0.006771 -0.005569)
 73:   1172.69   0.000113    0.57  0.000030  (-0.003219  0.004388  0.000568)
 74:   1173.64   0.000941    4.76  0.000250  ( 0.004457 -0.001206  0.015133)
 75:   1195.38   0.004707   23.79  0.001229  (-0.034853 -0.002357 -0.002896)
 76:   1206.15   0.002212   11.18  0.000572  ( 0.017849 -0.007846 -0.013860)
 77:   1206.70   0.004070   20.57  0.001053  (-0.025308  0.014353 -0.014355)
 78:   1231.88   0.001148    5.80  0.000291  (-0.004770 -0.014546 -0.007507)
 79:   1238.86   0.011473   57.98  0.002890  ( 0.036373 -0.010672 -0.038119)
 80:   1246.65   0.035819  181.01  0.008966  (-0.011933  0.088552  0.031341)
 81:   1250.35   0.068230  344.80  0.017029  ( 0.126072 -0.033164  0.005908)
 82:   1265.70   0.045701  230.95  0.011268  (-0.104547  0.018379  0.000038)
 83:   1273.69   0.017819   90.05  0.004366  (-0.060485 -0.011628 -0.023920)
 84:   1309.96   0.061030  308.42  0.014539  ( 0.045666  0.047437 -0.101010)
 85:   1323.05   0.009444   47.73  0.002228  ( 0.003632  0.000330 -0.047056)
 86:   1330.00   0.009598   48.51  0.002252  (-0.040843 -0.013904  0.019764)
 87:   1352.01   0.004388   22.17  0.001013  ( 0.026413  0.005840 -0.016763)
 88:   1361.78   0.022464  113.53  0.005148  (-0.052452  0.029868 -0.038789)
 89:   1369.72   0.022857  115.51  0.005208  ( 0.071762 -0.000816 -0.007555)
 90:   1387.57   0.005860   29.61  0.001318  (-0.015367 -0.005786 -0.032377)
 91:   1402.58   0.001352    6.83  0.000301  ( 0.004246  0.011767 -0.012015)
 92:   1436.20   0.013510   68.27  0.002935  (-0.020071 -0.047633  0.016237)
 93:   1448.44   0.037669  190.36  0.008116  ( 0.056560 -0.055257  0.043165)
 94:   1465.45   0.003304   16.70  0.000704  (-0.005799  0.022263  0.013204)
 95:   1465.76   0.005220   26.38  0.001111  (-0.002348  0.024956 -0.021980)
 96:   1469.35   0.004870   24.61  0.001034  ( 0.031310  0.003439  0.006489)
 97:   1472.61   0.006305   31.86  0.001336  (-0.026486  0.008769  0.023616)
 98:   1475.37   0.001870    9.45  0.000395  ( 0.002502 -0.014944  0.012880)
 99:   1484.34   0.003825   19.33  0.000804  ( 0.018370  0.013931 -0.016508)
100:   1499.94   0.010143   51.26  0.002110  (-0.007111  0.011365 -0.043937)
101:   1501.09   0.033364  168.61  0.006936  ( 0.072941  0.039511  0.007392)
102:   1541.73   0.032777  165.64  0.006634  ( 0.035559  0.037151 -0.063165)
103:   1622.32   0.042575  215.16  0.008190  (-0.081829  0.031845  0.021901)
104:   1650.71   0.009118   46.08  0.001724  ( 0.003470 -0.037852  0.016702)
105:   1659.50   0.129337  653.62  0.024321  (-0.009358  0.130406  0.085019)
106:   1665.10   0.014910   75.35  0.002794  ( 0.035443  0.013660 -0.036763)
107:   1709.25   0.034017  171.91  0.006211  (-0.074751 -0.024335 -0.005547)
108:   1795.69   0.107204  541.77  0.018630  ( 0.071418  0.065150 -0.096361)
109:   2977.32   0.008226   41.57  0.000862  (-0.017143 -0.012367 -0.020381)
110:   3040.88   0.011923   60.25  0.001224  (-0.010143  0.002180 -0.033405)
111:   3073.95   0.006651   33.61  0.000675  (-0.018996  0.014108 -0.010740)
112:   3092.11   0.002219   11.21  0.000224  ( 0.013942 -0.005143 -0.001755)
113:   3113.52   0.007395   37.37  0.000741  (-0.012280  0.023596  0.005800)
114:   3142.30   0.000055    0.28  0.000005  ( 0.002248  0.000371  0.000490)
115:   3157.61   0.003891   19.66  0.000385  ( 0.004865  0.015376  0.011155)
116:   3168.54   0.003305   16.70  0.000325  ( 0.013605  0.008742 -0.007998)
117:   3186.52   0.000720    3.64  0.000070  (-0.004632 -0.000600 -0.006977)
118:   3188.26   0.002522   12.75  0.000247  (-0.014569  0.004181  0.004142)
119:   3189.60   0.002167   10.95  0.000212  ( 0.010874  0.002369 -0.009391)
120:   3196.50   0.001613    8.15  0.000157  (-0.010265 -0.003627 -0.006238)
121:   3211.49   0.000474    2.40  0.000046  (-0.006306 -0.001288  0.002161)
122:   3211.81   0.000761    3.85  0.000074  ( 0.005688 -0.004654 -0.004464)
123:   3215.12   0.002781   14.05  0.000270  ( 0.010187  0.007199 -0.010693)
124:   3230.67   0.000305    1.54  0.000029  (-0.002774 -0.000044 -0.004665)
125:   3246.72   0.000629    3.18  0.000060  ( 0.000753  0.006658  0.003944)

* The epsilon (eps) is given for a Dirac delta lineshape.
** The dipole moment derivative (T) already includes vibrational overlap.

The first frequency considered to be a vibration is 6
The total number of vibrations considered is 120


--------------------------
THERMOCHEMISTRY AT 298.15K
--------------------------

Temperature         ... 298.15 K
Pressure            ... 1.00 atm
Total Mass          ... 348.33 AMU

Throughout the following assumptions are being made:
  (1) The electronic state is orbitally nondegenerate
  (2) There are no thermally accessible electronically excited states
  (3) Hindered rotations indicated by low frequency modes are not
      treated as such but are treated as vibrations and this may
      cause some error
  (4) All equations used are the standard statistical mechanics
      equations for an ideal gas
  (5) All vibrations are strictly harmonic

freq.      22.99  E(vib)   ...       0.56 
freq.      47.28  E(vib)   ...       0.53 
freq.      57.99  E(vib)   ...       0.51 
freq.      67.26  E(vib)   ...       0.50 
freq.      71.91  E(vib)   ...       0.50 
freq.      89.22  E(vib)   ...       0.47 
freq.      89.71  E(vib)   ...       0.47 
freq.     103.89  E(vib)   ...       0.46 
freq.     115.82  E(vib)   ...       0.44 
freq.     118.21  E(vib)   ...       0.44 
freq.     144.79  E(vib)   ...       0.41 
freq.     151.36  E(vib)   ...       0.40 
freq.     183.13  E(vib)   ...       0.37 
freq.     195.42  E(vib)   ...       0.36 
freq.     206.85  E(vib)   ...       0.35 
freq.     228.97  E(vib)   ...       0.32 
freq.     242.74  E(vib)   ...       0.31 
freq.     246.46  E(vib)   ...       0.31 
freq.     281.33  E(vib)   ...       0.28 
freq.     289.66  E(vib)   ...       0.27 
freq.     300.22  E(vib)   ...       0.26 
freq.     318.89  E(vib)   ...       0.25 
freq.     368.60  E(vib)   ...       0.21 
freq.     369.47  E(vib)   ...       0.21 
freq.     375.53  E(vib)   ...       0.21 
freq.     436.13  E(vib)   ...       0.17 
freq.     444.13  E(vib)   ...       0.17 
freq.     479.84  E(vib)   ...       0.15 
freq.     489.06  E(vib)   ...       0.15 
freq.     550.69  E(vib)   ...       0.12 
freq.     553.32  E(vib)   ...       0.12 
freq.     571.66  E(vib)   ...       0.11 
freq.     576.53  E(vib)   ...       0.11 
freq.     589.05  E(vib)   ...       0.10 
freq.     609.80  E(vib)   ...       0.10 
freq.     643.07  E(vib)   ...       0.09 
freq.     654.36  E(vib)   ...       0.08 
freq.     667.69  E(vib)   ...       0.08 
freq.     711.59  E(vib)   ...       0.07 
freq.     723.34  E(vib)   ...       0.07 
freq.     754.14  E(vib)   ...       0.06 
freq.     767.38  E(vib)   ...       0.06 
freq.     770.44  E(vib)   ...       0.05 
freq.     781.71  E(vib)   ...       0.05 
freq.     798.77  E(vib)   ...       0.05 
freq.     835.12  E(vib)   ...       0.04 
freq.     849.38  E(vib)   ...       0.04 
freq.     869.13  E(vib)   ...       0.04 
freq.     873.40  E(vib)   ...       0.04 
freq.     889.74  E(vib)   ...       0.04 
freq.     930.59  E(vib)   ...       0.03 
freq.     946.40  E(vib)   ...       0.03 
freq.     959.15  E(vib)   ...       0.03 
freq.     990.24  E(vib)   ...       0.02 
freq.     990.63  E(vib)   ...       0.02 
freq.     995.73  E(vib)   ...       0.02 
freq.    1000.67  E(vib)   ...       0.02 
freq.    1015.21  E(vib)   ...       0.02 
freq.    1023.92  E(vib)   ...       0.02 
freq.    1039.26  E(vib)   ...       0.02 
freq.    1064.71  E(vib)   ...       0.02 
freq.    1072.33  E(vib)   ...       0.02 
freq.    1086.37  E(vib)   ...       0.02 
freq.    1110.37  E(vib)   ...       0.02 
freq.    1148.04  E(vib)   ...       0.01 
freq.    1155.61  E(vib)   ...       0.01 
freq.    1170.78  E(vib)   ...       0.01 
freq.    1172.69  E(vib)   ...       0.01 
freq.    1173.64  E(vib)   ...       0.01 
freq.    1195.38  E(vib)   ...       0.01 
freq.    1206.15  E(vib)   ...       0.01 
freq.    1206.70  E(vib)   ...       0.01 
freq.    1231.88  E(vib)   ...       0.01 
freq.    1238.86  E(vib)   ...       0.01 
freq.    1246.65  E(vib)   ...       0.01 
freq.    1250.35  E(vib)   ...       0.01 
freq.    1265.70  E(vib)   ...       0.01 
freq.    1273.69  E(vib)   ...       0.01 
freq.    1309.96  E(vib)   ...       0.01 
freq.    1323.05  E(vib)   ...       0.01 
freq.    1330.00  E(vib)   ...       0.01 
freq.    1352.01  E(vib)   ...       0.01 
freq.    1361.78  E(vib)   ...       0.01 
freq.    1369.72  E(vib)   ...       0.01 
freq.    1387.57  E(vib)   ...       0.00 
freq.    1402.58  E(vib)   ...       0.00 
freq.    1436.20  E(vib)   ...       0.00 
freq.    1448.44  E(vib)   ...       0.00 
freq.    1465.45  E(vib)   ...       0.00 
freq.    1465.76  E(vib)   ...       0.00 
freq.    1469.35  E(vib)   ...       0.00 
freq.    1472.61  E(vib)   ...       0.00 
freq.    1475.37  E(vib)   ...       0.00 
freq.    1484.34  E(vib)   ...       0.00 
freq.    1499.94  E(vib)   ...       0.00 
freq.    1501.09  E(vib)   ...       0.00 
freq.    1541.73  E(vib)   ...       0.00 
freq.    1622.32  E(vib)   ...       0.00 
freq.    1650.71  E(vib)   ...       0.00 
freq.    1659.50  E(vib)   ...       0.00 
freq.    1665.10  E(vib)   ...       0.00 
freq.    1709.25  E(vib)   ...       0.00 
freq.    1795.69  E(vib)   ...       0.00 
freq.    2977.32  E(vib)   ...       0.00 
freq.    3040.88  E(vib)   ...       0.00 
freq.    3073.95  E(vib)   ...       0.00 
freq.    3092.11  E(vib)   ...       0.00 
freq.    3113.52  E(vib)   ...       0.00 
freq.    3142.30  E(vib)   ...       0.00 
freq.    3157.61  E(vib)   ...       0.00 
freq.    3168.54  E(vib)   ...       0.00 
freq.    3186.52  E(vib)   ...       0.00 
freq.    3188.26  E(vib)   ...       0.00 
freq.    3189.60  E(vib)   ...       0.00 
freq.    3196.50  E(vib)   ...       0.00 
freq.    3211.49  E(vib)   ...       0.00 
freq.    3211.81  E(vib)   ...       0.00 
freq.    3215.12  E(vib)   ...       0.00 
freq.    3230.67  E(vib)   ...       0.00 
freq.    3246.72  E(vib)   ...       0.00 

------------
INNER ENERGY
------------

The inner energy is: U= E(el) + E(ZPE) + E(vib) + E(rot) + E(trans)
    E(el)   - is the total energy from the electronic structure calculation
              = E(kin-el) + E(nuc-el) + E(el-el) + E(nuc-nuc)
    E(ZPE)  - the the zero temperature vibrational energy from the frequency calculation
    E(vib)  - the the finite temperature correction to E(ZPE) due to population
              of excited vibrational states
    E(rot)  - is the rotational thermal energy
    E(trans)- is the translational thermal energy

Summary of contributions to the inner energy U:
Electronic energy                ...  -1242.54203450 Eh
Zero point energy                ...      0.32710236 Eh     205.26 kcal/mol
Thermal vibrational correction   ...      0.01927887 Eh      12.10 kcal/mol
Thermal rotational correction    ...      0.00141627 Eh       0.89 kcal/mol
Thermal translational correction ...      0.00141627 Eh       0.89 kcal/mol
-----------------------------------------------------------------------
Total thermal energy                  -1242.19282072 Eh


Summary of corrections to the electronic energy:
(perhaps to be used in another calculation)
Total thermal correction                  0.02211141 Eh      13.88 kcal/mol
Non-thermal (ZPE) correction              0.32710236 Eh     205.26 kcal/mol
-----------------------------------------------------------------------
Total correction                          0.34921377 Eh     219.13 kcal/mol


--------
ENTHALPY
--------

The enthalpy is H = U + kB*T
                kB is Boltzmann's constant
Total free energy                 ...  -1242.19282072 Eh 
Thermal Enthalpy correction       ...      0.00094421 Eh       0.59 kcal/mol
-----------------------------------------------------------------------
Total Enthalpy                    ...  -1242.19187651 Eh


Note: Only C1 symmetry has been detected, increase convergence thresholds 
      if your molecule has a higher symmetry. Symmetry factor of 1.0 is   
      used for the rotational entropy correction. 
 

Note: Rotational entropy computed according to Herzberg 
Infrared and Raman Spectra, Chapter V,1, Van Nostrand Reinhold, 1945 
Point Group:  C1, Symmetry Number:   1  
Rotational constants in cm-1:     0.012202     0.007151     0.005735 

Vibrational entropy computed according to the QRRHO of S. Grimme
Chem.Eur.J. 2012 18 9955


-------
ENTROPY
-------

The entropy contributions are T*S = T*(S(el)+S(vib)+S(rot)+S(trans))
     S(el)   - electronic entropy
     S(vib)  - vibrational entropy
     S(rot)  - rotational entropy
     S(trans)- translational entropy
The entropies will be listed as multiplied by the temperature to get
units of energy

Electronic entropy                ...      0.00000000 Eh      0.00 kcal/mol
Vibrational entropy               ...      0.03420269 Eh     21.46 kcal/mol
Rotational entropy                ...      0.01635982 Eh     10.27 kcal/mol
Translational entropy             ...      0.02063872 Eh     12.95 kcal/mol
-----------------------------------------------------------------------
Final entropy term                ...      0.07120123 Eh     44.68 kcal/mol

In case the symmetry of your molecule has not been determined correctly
or in case you have a reason to use a different symmetry number we print 
out the resulting rotational entropy values for sn=1,12 :
 --------------------------------------------------------
|  sn= 1 | S(rot)=       0.01635982 Eh     10.27 kcal/mol|
|  sn= 2 | S(rot)=       0.01570536 Eh      9.86 kcal/mol|
|  sn= 3 | S(rot)=       0.01532253 Eh      9.62 kcal/mol|
|  sn= 4 | S(rot)=       0.01505090 Eh      9.44 kcal/mol|
|  sn= 5 | S(rot)=       0.01484022 Eh      9.31 kcal/mol|
|  sn= 6 | S(rot)=       0.01466807 Eh      9.20 kcal/mol|
|  sn= 7 | S(rot)=       0.01452253 Eh      9.11 kcal/mol|
|  sn= 8 | S(rot)=       0.01439645 Eh      9.03 kcal/mol|
|  sn= 9 | S(rot)=       0.01428524 Eh      8.96 kcal/mol|
|  sn=10 | S(rot)=       0.01418576 Eh      8.90 kcal/mol|
|  sn=11 | S(rot)=       0.01409577 Eh      8.85 kcal/mol|
|  sn=12 | S(rot)=       0.01401362 Eh      8.79 kcal/mol|
 --------------------------------------------------------


-------------------
GIBBS FREE ENERGY
-------------------

The Gibbs free energy is G = H - T*S

Total enthalpy                    ...  -1242.19187651 Eh 
Total entropy correction          ...     -0.07120123 Eh    -44.68 kcal/mol
-----------------------------------------------------------------------
Final Gibbs free energy         ...  -1242.26307774 Eh

For completeness - the Gibbs free energy minus the electronic energy
G-E(el)                           ...      0.27895675 Eh    175.05 kcal/mol


Timings for individual modules:

Sum of individual times         ...     5263.759 sec (=  87.729 min)
GTO integral calculation        ...       41.377 sec (=   0.690 min)   0.8 %
SCF iterations                  ...     1718.663 sec (=  28.644 min)  32.7 %
SCF Gradient evaluation         ...      451.294 sec (=   7.522 min)   8.6 %
Geometry relaxation             ...        2.192 sec (=   0.037 min)   0.0 %
Analytical frequency calculation...     3050.233 sec (=  50.837 min)  57.9 %
                             ****ORCA TERMINATED NORMALLY****
TOTAL RUN TIME: 0 days 1 hours 28 minutes 39 seconds 897 msec
