
                                 *****************
                                 * O   R   C   A *
                                 *****************

                                            #,                                       
                                            ###                                      
                                            ####                                     
                                            #####                                    
                                            ######                                   
                                           ########,                                 
                                     ,,################,,,,,                         
                               ,,#################################,,                 
                          ,,##########################################,,             
                       ,#########################################, ''#####,          
                    ,#############################################,,   '####,        
                  ,##################################################,,,,####,       
                ,###########''''           ''''###############################       
              ,#####''   ,,,,##########,,,,          '''####'''          '####       
            ,##' ,,,,###########################,,,                        '##       
           ' ,,###''''                  '''############,,,                           
         ,,##''                                '''############,,,,        ,,,,,,###''
      ,#''                                            '''#######################'''  
     '                                                          ''''####''''         
             ,#######,   #######,   ,#######,      ##                                
            ,#'     '#,  ##    ##  ,#'     '#,    #''#        ######   ,####,        
            ##       ##  ##   ,#'  ##            #'  '#       #        #'  '#        
            ##       ##  #######   ##           ,######,      #####,   #    #        
            '#,     ,#'  ##    ##  '#,     ,#' ,#      #,         ##   #,  ,#        
             '#######'   ##     ##  '#######'  #'      '#     #####' # '####'        



                  #######################################################
                  #                        -***-                        #
                  #          Department of theory and spectroscopy      #
                  #    Directorship and core code : Frank Neese         #
                  #        Max Planck Institute fuer Kohlenforschung    #
                  #                Kaiser Wilhelm Platz 1               #
                  #                 D-45470 Muelheim/Ruhr               #
                  #                      Germany                        #
                  #                                                     #
                  #                  All rights reserved                #
                  #                        -***-                        #
                  #######################################################


                         Program Version 5.0.4 -  RELEASE  -


 With contributions from (in alphabetic order):
   Daniel Aravena         : Magnetic Suceptibility
   Michael Atanasov       : Ab Initio Ligand Field Theory (pilot matlab implementation)
   Alexander A. Auer      : GIAO ZORA, VPT2 properties, NMR spectrum
   Ute Becker             : Parallelization
   Giovanni Bistoni       : ED, misc. LED, open-shell LED, HFLD
   Martin Brehm           : Molecular dynamics
   Dmytro Bykov           : SCF Hessian
   Vijay G. Chilkuri      : MRCI spin determinant printing, contributions to CSF-ICE
   Dipayan Datta          : RHF DLPNO-CCSD density
   Achintya Kumar Dutta   : EOM-CC, STEOM-CC
   Dmitry Ganyushin       : Spin-Orbit,Spin-Spin,Magnetic field MRCI
   Miquel Garcia          : C-PCM and meta-GGA Hessian, CC/C-PCM, Gaussian charge scheme
   Yang Guo               : DLPNO-NEVPT2, F12-NEVPT2, CIM, IAO-localization
   Andreas Hansen         : Spin unrestricted coupled pair/coupled cluster methods
   Benjamin Helmich-Paris : MC-RPA, TRAH-SCF, COSX integrals
   Lee Huntington         : MR-EOM, pCC
   Robert Izsak           : Overlap fitted RIJCOSX, COSX-SCS-MP3, EOM
   Marcus Kettner         : VPT2
   Christian Kollmar      : KDIIS, OOCD, Brueckner-CCSD(T), CCSD density, CASPT2, CASPT2-K
   Simone Kossmann        : Meta GGA functionals, TD-DFT gradient, OOMP2, MP2 Hessian
   Martin Krupicka        : Initial AUTO-CI
   Lucas Lang             : DCDCAS
   Marvin Lechner         : AUTO-CI (C++ implementation), FIC-MRCC
   Dagmar Lenk            : GEPOL surface, SMD
   Dimitrios Liakos       : Extrapolation schemes; Compound Job, initial MDCI parallelization
   Dimitrios Manganas     : Further ROCIS development; embedding schemes
   Dimitrios Pantazis     : SARC Basis sets
   Anastasios Papadopoulos: AUTO-CI, single reference methods and gradients
   Taras Petrenko         : DFT Hessian,TD-DFT gradient, ASA, ECA, R-Raman, ABS, FL, XAS/XES, NRVS
   Peter Pinski           : DLPNO-MP2, DLPNO-MP2 Gradient
   Christoph Reimann      : Effective Core Potentials
   Marius Retegan         : Local ZFS, SOC
   Christoph Riplinger    : Optimizer, TS searches, QM/MM, DLPNO-CCSD(T), (RO)-DLPNO pert. Triples
   Tobias Risthaus        : Range-separated hybrids, TD-DFT gradient, RPA, STAB
   Michael Roemelt        : Original ROCIS implementation
   Masaaki Saitow         : Open-shell DLPNO-CCSD energy and density
   Barbara Sandhoefer     : DKH picture change effects
   Avijit Sen             : IP-ROCIS
   Kantharuban Sivalingam : CASSCF convergence, NEVPT2, FIC-MRCI
   Bernardo de Souza      : ESD, SOC TD-DFT
   Georgi Stoychev        : AutoAux, RI-MP2 NMR, DLPNO-MP2 response
   Willem Van den Heuvel  : Paramagnetic NMR
   Boris Wezisla          : Elementary symmetry handling
   Frank Wennmohs         : Technical directorship


 We gratefully acknowledge several colleagues who have allowed us to
 interface, adapt or use parts of their codes:
   Stefan Grimme, W. Hujo, H. Kruse, P. Pracht,  : VdW corrections, initial TS optimization,
                  C. Bannwarth, S. Ehlert          DFT functionals, gCP, sTDA/sTD-DF
   Ed Valeev, F. Pavosevic, A. Kumar             : LibInt (2-el integral package), F12 methods
   Garnet Chan, S. Sharma, J. Yang, R. Olivares  : DMRG
   Ulf Ekstrom                                   : XCFun DFT Library
   Mihaly Kallay                                 : mrcc  (arbitrary order and MRCC methods)
   Jiri Pittner, Ondrej Demel                    : Mk-CCSD
   Frank Weinhold                                : gennbo (NPA and NBO analysis)
   Christopher J. Cramer and Donald G. Truhlar   : smd solvation model
   Lars Goerigk                                  : TD-DFT with DH, B97 family of functionals
   V. Asgeirsson, H. Jonsson                     : NEB implementation
   FAccTs GmbH                                   : IRC, NEB, NEB-TS, DLPNO-Multilevel, CI-OPT
                                                   MM, QMMM, 2- and 3-layer-ONIOM, Crystal-QMMM,
                                                   LR-CPCM, SF, NACMEs, symmetry and pop. for TD-DFT,
                                                   nearIR, NL-DFT gradient (VV10), updates on ESD,
                                                   ML-optimized integration grids
   S Lehtola, MJT Oliveira, MAL Marques          : LibXC Library
   Liviu Ungur et al                             : ANISO software


 Your calculation uses the libint2 library for the computation of 2-el integrals
 For citations please refer to: http://libint.valeyev.net

 Your ORCA version has been built with support for libXC version: 5.1.0
 For citations please refer to: https://tddft.org/programs/libxc/

 This ORCA versions uses:
   CBLAS   interface :  Fast vector & matrix operations
   LAPACKE interface :  Fast linear algebra routines
   SCALAPACK package :  Parallel linear algebra routines
   Shared memory     :  Shared parallel matrices
   BLAS/LAPACK       :  OpenBLAS 0.3.15  USE64BITINT DYNAMIC_ARCH NO_AFFINITY Haswell SINGLE_THREADED
        Core in use  :  Haswell
   Copyright (c) 2011-2014, The OpenBLAS Project


Your calculation utilizes the atom-pairwise dispersion correction
with the Becke-Johnson damping scheme (D3BJ)
Cite in your paper:
S.Grimme, S.Ehrlich, L.Goerigk, J Comput Chem, (2011), 32, 1456–1465 
S.Grimme, J.Antony, S.Ehrlich and H.Krieg, J.Chem.Phys., 132, (2010), 154104 
   

================================================================================

----- Orbital basis set information -----
Your calculation utilizes the basis: def2-TZVP
   F. Weigend and R. Ahlrichs, Phys. Chem. Chem. Phys. 7, 3297 (2005).

----- AuxJ basis set information -----
Your calculation utilizes the auxiliary basis: def2/J
   F. Weigend, Phys. Chem. Chem. Phys. 8, 1057 (2006).

================================================================================
                                        WARNINGS
                       Please study these warnings very carefully!
================================================================================


WARNING: Geometry Optimization
  ===> : Switching off AutoStart
         For restart on a previous wavefunction, please use MOREAD

INFO   : the flag for use of the SHARK integral package has been found!

================================================================================
                                       INPUT FILE
================================================================================
NAME = 3_H/3_H.inp
|  1> %pal nprocs 24 end
|  2> ! PBE0 D3BJ def2-TZVP TightSCF OPT FREQ TightOpt
|  3> ! CPCM(dmso)
|  4> %scf
|  5> MaxIter 800
|  6> end
|  7> 
|  8> %geom
|  9> MaxIter 800
| 10> MaxStep 0.15
| 11> end
| 12> 
| 13> *xyz 0 1
| 14> C      -4.06389600     -1.00294200      0.08636200
| 15> C      -3.70486900     -1.95975400     -0.93697400
| 16> C      -2.38657100     -2.18257900     -1.16600600
| 17> N      -1.41037800     -1.57928600     -0.42851100
| 18> C      -1.67317000     -0.49782200      0.50353600
| 19> C      -3.12955700     -0.32409100      0.78476300
| 20> C      -0.04180800     -1.49237500     -0.84220400
| 21> C       0.87058100     -2.23772400      0.12302800
| 22> O       0.51443900     -2.78011000      1.13878000
| 23> O       2.10944800     -2.27209300     -0.34877900
| 24> C       3.08868900     -2.92207500      0.45182600
| 25> H      -5.12198800     -0.84078100      0.31209800
| 26> H      -2.02595200     -2.87658700     -1.92977100
| 27> H      -1.10903900     -0.68081500      1.43536200
| 28> H      -3.40507700      0.38663100      1.56640700
| 29> H       0.09850700     -1.97198600     -1.82163900
| 30> H       4.02994600     -2.85870900     -0.10490500
| 31> H       2.81507600     -3.97298600      0.62116700
| 32> C      -0.89150500      0.71118000     -0.13481600
| 33> C       0.20537200      0.05912800     -0.98907600
| 34> C       1.59072800      0.58997100     -0.74898400
| 35> C       2.36509300      1.05687600     -1.80922900
| 36> C       3.65673000      1.54900200     -1.60664800
| 37> C       4.18043500      1.57634600     -0.31776400
| 38> C       3.42681000      1.11750800      0.76573600
| 39> C       2.13917400      0.62371600      0.54923100
| 40> O       1.33951400      0.13992800      1.52234200
| 41> C       1.79857400      0.10345000      2.85384000
| 42> N      -1.84934600      1.49805300     -0.95699600
| 43> O      -2.10677800      1.12862100     -2.08312900
| 44> H      -0.05255400      0.27568800     -2.03292100
| 45> H       1.94167800      1.03145400     -2.81728300
| 46> H       4.24540600      1.90926500     -2.45305800
| 47> H       5.18874500      1.95927300     -0.14082300
| 48> H       3.84983400      1.14289400      1.77044400
| 49> H       2.00365700      1.11763100      3.23316600
| 50> H       2.70897900     -0.51039500      2.94797900
| 51> H       0.99433100     -0.35078200      3.44493200
| 52> O      -2.39827900      2.42596200     -0.40161900
| 53> H       3.18987800     -2.41453900      1.42168400
| 54> H      -4.46239400     -2.49163900     -1.51141400
| 55> H      -0.53190700      1.40249200      0.63101200
| 56> *
| 57> 
| 58>                          ****END OF INPUT****
================================================================================

                       *****************************
                       * Geometry Optimization Run *
                       *****************************

Geometry optimization settings:
Update method            Update   .... BFGS
Choice of coordinates    CoordSys .... Z-matrix Internals
Initial Hessian          InHess   .... Almoef's Model

Convergence Tolerances:
Energy Change            TolE     ....  1.0000e-06 Eh
Max. Gradient            TolMAXG  ....  1.0000e-04 Eh/bohr
RMS Gradient             TolRMSG  ....  3.0000e-05 Eh/bohr
Max. Displacement        TolMAXD  ....  1.0000e-03 bohr
RMS Displacement         TolRMSD  ....  6.0000e-04 bohr
Strict Convergence                ....  False
------------------------------------------------------------------------------
                        ORCA OPTIMIZATION COORDINATE SETUP
------------------------------------------------------------------------------

The optimization will be done in new redundant internal coordinates
Making redundant internal coordinates   ...  (new redundants) done
Evaluating the initial hessian          ...  (Almloef) done
Evaluating the coordinates              ...  done
Calculating the B-matrix                .... done
Calculating the G-matrix                .... done
Diagonalizing the G-matrix              .... done
Small eigenvalue found = 4.111e-03
Small eigenvalue found = 6.455e-03
Small eigenvalue found = 9.553e-03
Small eigenvalue found = 2.139e-02
Small eigenvalue found = 2.259e-02
The first mode is                       ....  114
The number of degrees of freedom        ....  120

    -----------------------------------------------------------------
                    Redundant Internal Coordinates


    -----------------------------------------------------------------
         Definition                    Initial Value    Approx d2E/dq
    -----------------------------------------------------------------
      1. B(C   1,C   0)                  1.4462         0.508175   
      2. B(C   2,C   1)                  1.3565         0.706692   
      3. B(N   3,C   2)                  1.3641         0.615419   
      4. B(C   4,N   3)                  1.4517         0.446160   
      5. B(C   5,C   4)                  1.4934         0.427289   
      6. B(C   5,C   0)                  1.3497         0.724590   
      7. B(C   6,N   3)                  1.4324         0.478938   
      8. B(C   7,C   6)                  1.5230         0.383240   
      9. B(O   8,C   7)                  1.2053         1.102902   
     10. B(O   9,C   7)                  1.3261         0.707626   
     11. B(C  10,O   9)                  1.4221         0.497357   
     12. B(H  11,C   0)                  1.0940         0.354862   
     13. B(H  12,C   2)                  1.0932         0.355925   
     14. B(H  13,C   4)                  1.1045         0.341358   
     15. B(H  14,C   5)                  1.0918         0.357740   
     16. B(H  15,C   6)                  1.0995         0.347687   
     17. B(H  16,C  10)                  1.0954         0.353010   
     18. B(H  17,C  10)                  1.0991         0.348300   
     19. B(C  18,C   4)                  1.5749         0.316817   
     20. B(C  19,C  18)                  1.5356         0.365966   
     21. B(C  19,C   6)                  1.5779         0.313274   
     22. B(C  20,C  19)                  1.5029         0.412710   
     23. B(C  21,C  20)                  1.3935         0.616881   
     24. B(C  22,C  21)                  1.3970         0.608979   
     25. B(C  23,C  22)                  1.3915         0.621392   
     26. B(C  24,C  23)                  1.3973         0.608257   
     27. B(C  25,C  24)                  1.3960         0.611260   
     28. B(C  25,C  20)                  1.4097         0.581147   
     29. B(O  26,C  25)                  1.3492         0.649985   
     30. B(C  27,O  26)                  1.4089         0.522093   
     31. B(N  28,C  18)                  1.4875         0.391152   
     32. B(O  29,N  28)                  1.2128         0.960938   
     33. B(H  30,C  19)                  1.0968         0.351177   
     34. B(H  31,C  21)                  1.0937         0.355286   
     35. B(H  32,C  22)                  1.0921         0.357299   
     36. B(H  33,C  23)                  1.0930         0.356164   
     37. B(H  34,C  24)                  1.0904         0.359535   
     38. B(H  35,C  27)                  1.1020         0.344509   
     39. B(H  36,C  27)                  1.1020         0.344512   
     40. B(H  37,C  27)                  1.0966         0.351479   
     41. B(O  38,N  28)                  1.2128         0.961143   
     42. B(H  39,C  10)                  1.0993         0.348007   
     43. B(H  40,C   1)                  1.0894         0.360934   
     44. B(H  41,C  18)                  1.0926         0.356712   
     45. A(C   1,C   0,H  11)          118.9584         0.340457   
     46. A(C   1,C   0,C   5)          121.8067         0.430723   
     47. A(C   5,C   0,H  11)          119.2243         0.361481   
     48. A(C   0,C   1,H  40)          121.5681         0.341424   
     49. A(C   2,C   1,H  40)          120.4358         0.360986   
     50. A(C   0,C   1,C   2)          117.9961         0.428794   
     51. A(N   3,C   2,H  12)          114.9879         0.349610   
     52. A(C   1,C   2,N   3)          122.1103         0.440925   
     53. A(C   1,C   2,H  12)          122.8779         0.360127   
     54. A(C   2,N   3,C   6)          123.6720         0.408611   
     55. A(C   4,N   3,C   6)          108.2521         0.386171   
     56. A(C   2,N   3,C   4)          123.1646         0.403523   
     57. A(C   5,C   4,C  18)          118.1026         0.361467   
     58. A(N   3,C   4,C  18)          102.8156         0.361881   
     59. A(N   3,C   4,C   5)          112.5882         0.380997   
     60. A(N   3,C   4,H  13)          109.0124         0.329031   
     61. A(C   5,C   4,H  13)          111.0066         0.328667   
     62. A(H  13,C   4,C  18)          102.4532         0.312977   
     63. A(C   4,C   5,H  14)          117.1705         0.331223   
     64. A(C   0,C   5,H  14)          121.5465         0.361980   
     65. A(C   0,C   5,C   4)          121.2752         0.417574   
     66. A(C   7,C   6,C  19)          116.5088         0.354164   
     67. A(N   3,C   6,C  19)          103.6633         0.365590   
     68. A(N   3,C   6,C   7)          111.0781         0.378502   
     69. A(C   7,C   6,H  15)          105.9389         0.323811   
     70. A(N   3,C   6,H  15)          110.6543         0.333930   
     71. A(H  15,C   6,C  19)          109.0252         0.313339   
     72. A(C   6,C   7,O   9)          110.2947         0.405244   
     73. A(C   6,C   7,O   8)          125.2604         0.438659   
     74. A(O   8,C   7,O   9)          124.3470         0.487416   
     75. A(C   7,O   9,C  10)          117.0544         0.421701   
     76. A(H  16,C  10,H  39)          110.0349         0.288386   
     77. A(H  16,C  10,H  17)          110.3366         0.288423   
     78. A(O   9,C  10,H  17)          110.6311         0.336130   
     79. A(H  17,C  10,H  39)          109.1742         0.287780   
     80. A(O   9,C  10,H  39)          110.4292         0.336083   
     81. A(O   9,C  10,H  16)          106.2077         0.336882   
     82. A(C  19,C  18,N  28)          112.1540         0.362663   
     83. A(C   4,C  18,N  28)          108.0917         0.353874   
     84. A(C  19,C  18,H  41)          115.0566         0.322725   
     85. A(C   4,C  18,H  41)          111.4068         0.315219   
     86. A(C   4,C  18,C  19)          104.7171         0.352079   
     87. A(N  28,C  18,H  41)          105.3464         0.324320   
     88. A(C  20,C  19,H  30)          107.4014         0.328322   
     89. A(C  18,C  19,H  30)          106.1182         0.321899   
     90. A(C   6,C  19,H  30)          104.2340         0.313846   
     91. A(C  18,C  19,C  20)          114.8083         0.368304   
     92. A(C   6,C  19,C  20)          118.4788         0.358647   
     93. A(C   6,C  19,C  18)          104.7048         0.351410   
     94. A(C  21,C  20,C  25)          118.4550         0.428660   
     95. A(C  19,C  20,C  25)          120.9439         0.399125   
     96. A(C  19,C  20,C  21)          120.6007         0.403342   
     97. A(C  22,C  21,H  31)          119.9874         0.351040   
     98. A(C  20,C  21,H  31)          118.5793         0.351806   
     99. A(C  20,C  21,C  22)          121.4333         0.432276   
    100. A(C  23,C  22,H  32)          120.5650         0.352577   
    101. A(C  21,C  22,H  32)          120.1452         0.351376   
    102. A(C  21,C  22,C  23)          119.2897         0.432843   
    103. A(C  24,C  23,H  33)          119.1482         0.351116   
    104. A(C  22,C  23,H  33)          120.2676         0.352387   
    105. A(C  22,C  23,C  24)          120.5842         0.432750   
    106. A(C  25,C  24,H  34)          120.5956         0.351969   
    107. A(C  23,C  24,H  34)          119.8405         0.351676   
    108. A(C  23,C  24,C  25)          119.5631         0.431474   
    109. A(C  24,C  25,O  26)          124.1706         0.433795   
    110. A(C  20,C  25,O  26)          115.1521         0.429875   
    111. A(C  20,C  25,C  24)          120.6739         0.427957   
    112. A(C  25,O  26,C  27)          119.8535         0.418969   
    113. A(O  26,C  27,H  36)          111.3659         0.338242   
    114. A(O  26,C  27,H  35)          111.2294         0.338241   
    115. A(H  36,C  27,H  37)          109.2140         0.287735   
    116. A(H  35,C  27,H  37)          109.3988         0.287735   
    117. A(O  26,C  27,H  37)          106.3304         0.339374   
    118. A(H  35,C  27,H  36)          109.2360         0.286836   
    119. A(C  18,N  28,O  29)          119.2599         0.423858   
    120. A(O  29,N  28,O  38)          124.2080         0.495978   
    121. A(C  18,N  28,O  38)          116.3012         0.423874   
    122. D(H  40,C   1,C   0,H  11)      2.3736         0.017597   
    123. D(C   2,C   1,C   0,H  11)   -177.5581         0.017597   
    124. D(H  40,C   1,C   0,C   5)   -178.8217         0.017597   
    125. D(C   2,C   1,C   0,C   5)      1.2467         0.017597   
    126. D(H  12,C   2,C   1,H  40)      1.0149         0.035231   
    127. D(N   3,C   2,C   1,C   0)      2.8153         0.035231   
    128. D(H  12,C   2,C   1,C   0)   -179.0526         0.035231   
    129. D(N   3,C   2,C   1,H  40)   -177.1172         0.035231   
    130. D(C   6,N   3,C   2,C   1)   -162.5992         0.030633   
    131. D(C   6,N   3,C   2,H  12)     19.1315         0.030633   
    132. D(C   4,N   3,C   2,C   1)    -10.3550         0.030633   
    133. D(C   4,N   3,C   2,H  12)    171.3757         0.030633   
    134. D(H  13,C   4,N   3,C   2)    136.0829         0.016978   
    135. D(C   5,C   4,N   3,C   2)     12.4404         0.016978   
    136. D(C   5,C   4,N   3,C   6)    168.3547         0.016978   
    137. D(C  18,C   4,N   3,C   6)     40.1947         0.016978   
    138. D(C  18,C   4,N   3,C   2)   -115.7196         0.016978   
    139. D(H  13,C   4,N   3,C   6)    -68.0028         0.016978   
    140. D(H  14,C   5,C   4,C  18)    -67.5728         0.013488   
    141. D(H  14,C   5,C   4,H  13)     50.2620         0.013488   
    142. D(C   0,C   5,C   4,C  18)    111.4287         0.013488   
    143. D(H  14,C   5,C   4,N   3)    172.7898         0.013488   
    144. D(H  14,C   5,C   0,H  11)     -0.2986         0.037202   
    145. D(C   0,C   5,C   4,N   3)     -8.2087         0.013488   
    146. D(C   0,C   5,C   4,H  13)   -130.7365         0.013488   
    147. D(H  14,C   5,C   0,C   1)   -179.1003         0.037202   
    148. D(C   4,C   5,C   0,H  11)   -179.2563         0.037202   
    149. D(C   4,C   5,C   0,C   1)      1.9421         0.037202   
    150. D(C   7,C   6,N   3,C   4)     86.9910         0.019617   
    151. D(C   7,C   6,N   3,C   2)   -117.2449         0.019617   
    152. D(H  15,C   6,N   3,C   2)      0.1299         0.019617   
    153. D(C  19,C   6,N   3,C   4)    -38.8803         0.019617   
    154. D(C  19,C   6,N   3,C   2)    116.8837         0.019617   
    155. D(H  15,C   6,N   3,C   4)   -155.6342         0.019617   
    156. D(O   9,C   7,C   6,C  19)    -68.4136         0.010948   
    157. D(O   9,C   7,C   6,N   3)    173.2181         0.010948   
    158. D(O   9,C   7,C   6,H  15)     53.0054         0.010948   
    159. D(O   8,C   7,C   6,C  19)    115.0624         0.010948   
    160. D(O   8,C   7,C   6,H  15)   -123.5186         0.010948   
    161. D(O   8,C   7,C   6,N   3)     -3.3059         0.010948   
    162. D(C  10,O   9,C   7,O   8)     -4.2488         0.037577   
    163. D(C  10,O   9,C   7,C   6)    179.1888         0.037577   
    164. D(H  39,C  10,O   9,C   7)    -61.4684         0.019550   
    165. D(H  17,C  10,O   9,C   7)     59.5116         0.019550   
    166. D(H  16,C  10,O   9,C   7)    179.2576         0.019550   
    167. D(H  41,C  18,C   4,H  13)    -36.2327         0.008247   
    168. D(H  41,C  18,C   4,C   5)     86.0507         0.008247   
    169. D(H  41,C  18,C   4,N   3)   -149.3354         0.008247   
    170. D(N  28,C  18,C   4,C   5)    -29.2344         0.008247   
    171. D(N  28,C  18,C   4,N   3)     95.3795         0.008247   
    172. D(C  19,C  18,C   4,H  13)     88.7480         0.008247   
    173. D(N  28,C  18,C   4,H  13)   -151.5178         0.008247   
    174. D(C  19,C  18,C   4,N   3)    -24.3548         0.008247   
    175. D(C  19,C  18,C   4,C   5)   -148.9686         0.008247   
    176. D(H  30,C  19,C   6,C   7)    147.4181         0.008085   
    177. D(H  30,C  19,C   6,N   3)    -90.2483         0.008085   
    178. D(C  20,C  19,C   6,H  15)    -91.6067         0.008085   
    179. D(C  20,C  19,C   6,C   7)     28.1681         0.008085   
    180. D(C  20,C  19,C   6,N   3)    150.5017         0.008085   
    181. D(C  18,C  19,C   6,H  15)    138.9083         0.008085   
    182. D(C  18,C  19,C   6,C   7)   -101.3168         0.008085   
    183. D(H  30,C  19,C   6,H  15)     27.6432         0.008085   
    184. D(C  18,C  19,C   6,N   3)     21.0168         0.008085   
    185. D(H  30,C  19,C  18,H  41)   -125.2253         0.010721   
    186. D(H  30,C  19,C  18,C   4)    112.1339         0.010721   
    187. D(C  20,C  19,C  18,H  41)     -6.7664         0.010721   
    188. D(C  20,C  19,C  18,N  28)    113.6172         0.010721   
    189. D(C  20,C  19,C  18,C   4)   -129.4072         0.010721   
    190. D(C   6,C  19,C  18,H  41)    124.8705         0.010721   
    191. D(H  30,C  19,C  18,N  28)     -4.8417         0.010721   
    192. D(C   6,C  19,C  18,N  28)   -114.7459         0.010721   
    193. D(C   6,C  19,C  18,C   4)      2.2297         0.010721   
    194. D(C  25,C  20,C  19,H  30)    171.4875         0.012609   
    195. D(C  25,C  20,C  19,C  18)     53.7524         0.012609   
    196. D(C  25,C  20,C  19,C   6)    -70.9211         0.012609   
    197. D(C  21,C  20,C  19,H  30)     -8.7294         0.012609   
    198. D(C  21,C  20,C  19,C  18)   -126.4644         0.012609   
    199. D(C  21,C  20,C  19,C   6)    108.8621         0.012609   
    200. D(H  31,C  21,C  20,C  25)    179.9885         0.026316   
    201. D(H  31,C  21,C  20,C  19)      0.2000         0.026316   
    202. D(C  22,C  21,C  20,C  25)      0.0460         0.026316   
    203. D(C  22,C  21,C  20,C  19)   -179.7425         0.026316   
    204. D(H  32,C  22,C  21,H  31)      0.0272         0.025608   
    205. D(H  32,C  22,C  21,C  20)    179.9689         0.025608   
    206. D(C  23,C  22,C  21,H  31)    179.9145         0.025608   
    207. D(C  23,C  22,C  21,C  20)     -0.1438         0.025608   
    208. D(H  33,C  23,C  22,H  32)     -0.0333         0.026726   
    209. D(H  33,C  23,C  22,C  21)   -179.9200         0.026726   
    210. D(C  24,C  23,C  22,H  32)    179.8967         0.026726   
    211. D(C  24,C  23,C  22,C  21)      0.0100         0.026726   
    212. D(H  34,C  24,C  23,H  33)     -0.1749         0.025544   
    213. D(H  34,C  24,C  23,C  22)    179.8944         0.025544   
    214. D(C  25,C  24,C  23,H  33)   -179.8507         0.025544   
    215. D(C  25,C  24,C  23,C  22)      0.2186         0.025544   
    216. D(O  26,C  25,C  24,H  34)     -0.6964         0.025811   
    217. D(O  26,C  25,C  24,C  23)    178.9769         0.025811   
    218. D(C  20,C  25,C  24,H  34)   -179.9917         0.025811   
    219. D(C  20,C  25,C  24,C  23)     -0.3184         0.025811   
    220. D(O  26,C  25,C  20,C  21)   -179.1691         0.023208   
    221. D(O  26,C  25,C  20,C  19)      0.6186         0.023208   
    222. D(C  24,C  25,C  20,C  21)      0.1868         0.023208   
    223. D(C  24,C  25,C  20,C  19)    179.9745         0.023208   
    224. D(C  27,O  26,C  25,C  24)     -0.5117         0.031223   
    225. D(C  27,O  26,C  25,C  20)    178.8187         0.031223   
    226. D(H  37,C  27,O  26,C  25)   -178.3974         0.021618   
    227. D(H  36,C  27,O  26,C  25)    -59.5247         0.021618   
    228. D(H  35,C  27,O  26,C  25)     62.5822         0.021618   
    229. D(O  38,N  28,C  18,H  41)    -26.5411         0.013077   
    230. D(O  38,N  28,C  18,C  19)   -152.4091         0.013077   
    231. D(O  38,N  28,C  18,C   4)     92.6566         0.013077   
    232. D(O  29,N  28,C  18,H  41)    158.7463         0.013077   
    233. D(O  29,N  28,C  18,C  19)     32.8782         0.013077   
    234. D(O  29,N  28,C  18,C   4)    -82.0560         0.013077   
    -----------------------------------------------------------------

Number of atoms                         .... 42
Number of degrees of freedom            .... 234

         *************************************************************
         *                GEOMETRY OPTIMIZATION CYCLE   1            *
         *************************************************************
---------------------------------
CARTESIAN COORDINATES (ANGSTROEM)
---------------------------------
  C     -4.063896   -1.002942    0.086362
  C     -3.704869   -1.959754   -0.936974
  C     -2.386571   -2.182579   -1.166006
  N     -1.410378   -1.579286   -0.428511
  C     -1.673170   -0.497822    0.503536
  C     -3.129557   -0.324091    0.784763
  C     -0.041808   -1.492375   -0.842204
  C      0.870581   -2.237724    0.123028
  O      0.514439   -2.780110    1.138780
  O      2.109448   -2.272093   -0.348779
  C      3.088689   -2.922075    0.451826
  H     -5.121988   -0.840781    0.312098
  H     -2.025952   -2.876587   -1.929771
  H     -1.109039   -0.680815    1.435362
  H     -3.405077    0.386631    1.566407
  H      0.098507   -1.971986   -1.821639
  H      4.029946   -2.858709   -0.104905
  H      2.815076   -3.972986    0.621167
  C     -0.891505    0.711180   -0.134816
  C      0.205372    0.059128   -0.989076
  C      1.590728    0.589971   -0.748984
  C      2.365093    1.056876   -1.809229
  C      3.656730    1.549002   -1.606648
  C      4.180435    1.576346   -0.317764
  C      3.426810    1.117508    0.765736
  C      2.139174    0.623716    0.549231
  O      1.339514    0.139928    1.522342
  C      1.798574    0.103450    2.853840
  N     -1.849346    1.498053   -0.956996
  O     -2.106778    1.128621   -2.083129
  H     -0.052554    0.275688   -2.032921
  H      1.941678    1.031454   -2.817283
  H      4.245406    1.909265   -2.453058
  H      5.188745    1.959273   -0.140823
  H      3.849834    1.142894    1.770444
  H      2.003657    1.117631    3.233166
  H      2.708979   -0.510395    2.947979
  H      0.994331   -0.350782    3.444932
  O     -2.398279    2.425962   -0.401619
  H      3.189878   -2.414539    1.421684
  H     -4.462394   -2.491639   -1.511414
  H     -0.531907    1.402492    0.631012

----------------------------
CARTESIAN COORDINATES (A.U.)
----------------------------
  NO LB      ZA    FRAG     MASS         X           Y           Z
   0 C     6.0000    0    12.011   -7.679650   -1.895286    0.163201
   1 C     6.0000    0    12.011   -7.001188   -3.703398   -1.770624
   2 C     6.0000    0    12.011   -4.509966   -4.124477   -2.203432
   3 N     7.0000    0    14.007   -2.665228   -2.984418   -0.809768
   4 C     6.0000    0    12.011   -3.161833   -0.940747    0.951545
   5 C     6.0000    0    12.011   -5.914006   -0.612443    1.482987
   6 C     6.0000    0    12.011   -0.079006   -2.820180   -1.591535
   7 C     6.0000    0    12.011    1.645160   -4.228686    0.232489
   8 O     8.0000    0    15.999    0.972149   -5.253647    2.151982
   9 O     8.0000    0    15.999    3.986279   -4.293634   -0.659097
  10 C     6.0000    0    12.011    5.836776   -5.521921    0.853827
  11 H     1.0000    0     1.008   -9.679155   -1.588846    0.589780
  12 H     1.0000    0     1.008   -3.828494   -5.435962   -3.646739
  13 H     1.0000    0     1.008   -2.095780   -1.286554    2.712441
  14 H     1.0000    0     1.008   -6.434663    0.730627    2.960080
  15 H     1.0000    0     1.008    0.186151   -3.726513   -3.442399
  16 H     1.0000    0     1.008    7.615494   -5.402177   -0.198242
  17 H     1.0000    0     1.008    5.319723   -7.507855    1.173836
  18 C     6.0000    0    12.011   -1.684700    1.343935   -0.254765
  19 C     6.0000    0    12.011    0.388097    0.111736   -1.869083
  20 C     6.0000    0    12.011    3.006040    1.114884   -1.415375
  21 C     6.0000    0    12.011    4.469378    1.997206   -3.418947
  22 C     6.0000    0    12.011    6.910218    2.927190   -3.036125
  23 C     6.0000    0    12.011    7.899877    2.978862   -0.600487
  24 C     6.0000    0    12.011    6.475732    2.111784    1.447031
  25 C     6.0000    0    12.011    4.042453    1.178652    1.037896
  26 O     8.0000    0    15.999    2.531315    0.264426    2.876809
  27 C     6.0000    0    12.011    3.398812    0.195492    5.392976
  28 N     7.0000    0    14.007   -3.494757    2.830910   -1.808460
  29 O     8.0000    0    15.999   -3.981233    2.132785   -3.936543
  30 H     1.0000    0     1.008   -0.099313    0.520975   -3.841664
  31 H     1.0000    0     1.008    3.669240    1.949166   -5.323893
  32 H     1.0000    0     1.008    8.022655    3.607988   -4.635608
  33 H     1.0000    0     1.008    9.805307    3.702489   -0.266117
  34 H     1.0000    0     1.008    7.275132    2.159757    3.345654
  35 H     1.0000    0     1.008    3.786363    2.112017    6.109798
  36 H     1.0000    0     1.008    5.119228   -0.964507    5.570873
  37 H     1.0000    0     1.008    1.879013   -0.662882    6.509978
  38 O     8.0000    0    15.999   -4.532091    4.584404   -0.758950
  39 H     1.0000    0     1.008    6.027996   -4.562817    2.686593
  40 H     1.0000    0     1.008   -8.432703   -4.708515   -2.856159
  41 H     1.0000    0     1.008   -1.005159    2.650326    1.192440

--------------------------------
INTERNAL COORDINATES (ANGSTROEM)
--------------------------------
 C      0   0   0     0.000000000000     0.00000000     0.00000000
 C      1   0   0     1.446238624491     0.00000000     0.00000000
 C      2   1   0     1.356471988083   117.99609536     0.00000000
 N      3   2   1     1.364116597701   122.11031179     2.81529292
 C      4   3   2     1.451666500533   123.16460119   349.64504128
 C      1   2   3     1.349663663259   121.80673166     1.24666305
 C      4   3   2     1.432368411084   123.67196533   197.40084379
 C      7   4   3     1.523046825592   111.07813754   242.75509619
 O      8   7   4     1.205309845087   125.26042371   356.69409574
 O      8   7   4     1.326112558231   110.29472015   173.21810135
 C     10   8   7     1.422096305610   117.05440430   179.18879241
 H      1   2   3     1.093988853728   118.95836519   182.44191843
 H      3   2   1     1.093174342203   122.87793177   180.94741335
 H      5   4   3     1.104549644645   109.01239300   136.08292273
 H      6   1   2     1.091789528444   121.54648790   180.89973681
 H      7   4   3     1.099548966518   110.65428697     0.12989114
 H     11  10   8     1.095412888534   106.20772042   179.25762125
 H     11  10   8     1.099069778481   110.63105381    59.51158057
 C      5   4   3     1.574858496543   102.81555923   244.28042622
 C     19   5   4     1.535601221487   104.71714797   335.64523517
 C     20  19   5     1.502880469581   114.80833798   230.59277801
 C     21  20  19     1.393470807830   120.60074257   233.53555979
 C     22  21  20     1.396980028922   121.43328960   180.25751709
 C     23  22  21     1.391487185287   119.28973213   359.85617812
 C     24  23  22     1.397302830767   120.58419084     0.00000000
 C     25  24  23     1.395962543475   119.56310712     0.21856487
 O     26  25  24     1.349241254508   124.17056964   178.97693323
 C     27  26  25     1.408883832006   119.85354735   359.48827131
 N     19   5   4     1.487483933295   108.09169203    95.37949134
 O     29  19   5     1.212817698971   119.25987533   277.94395457
 H     20  19   5     1.096830177877   106.11820718   112.13389007
 H     22  21  20     1.093663297009   118.57928571     0.20003012
 H     23  22  21     1.092125794149   120.14515648   179.96894080
 H     24  23  22     1.092991427647   120.26755960   180.07999029
 H     25  24  23     1.090427401910   119.84046490   179.89437586
 H     28  27  26     1.102048252993   111.22939724    62.58221480
 H     28  27  26     1.102045869903   111.36594324   300.47527259
 H     28  27  26     1.096596218002   106.33044849   181.60261629
 O     29  19   5     1.212759730078   116.30121283    92.65660416
 H     11  10   8     1.099298205757   110.42920771   298.53159943
 H      2   1   3     1.089370043856   121.56811461   179.93167200
 H     19   5   4     1.092572893921   111.40681421   210.66458126

---------------------------
INTERNAL COORDINATES (A.U.)
---------------------------
 C      0   0   0     0.000000000000     0.00000000     0.00000000
 C      1   0   0     2.732994924587     0.00000000     0.00000000
 C      2   1   0     2.563360565812   117.99609536     0.00000000
 N      3   2   1     2.577806784391   122.11031179     2.81529292
 C      4   3   2     2.743252123795   123.16460119   349.64504128
 C      1   2   3     2.550494696465   121.80673166     1.24666305
 C      4   3   2     2.706784019828   123.67196533   197.40084379
 C      7   4   3     2.878141389507   111.07813754   242.75509619
 O      8   7   4     2.277705513734   125.26042371   356.69409574
 O      8   7   4     2.505989557811   110.29472015   173.21810135
 C     10   8   7     2.687372553664   117.05440430   179.18879241
 H      1   2   3     2.067339327108   118.95836519   182.44191843
 H      3   2   1     2.065800123392   122.87793177   180.94741335
 H      5   4   3     2.087296329700   109.01239300   136.08292273
 H      6   1   2     2.063183204642   121.54648790   180.89973681
 H      7   4   3     2.077846417555   110.65428697     0.12989114
 H     11  10   8     2.070030362897   106.20772042   179.25762125
 H     11  10   8     2.076940883399   110.63105381    59.51158057
 C      5   4   3     2.976051258145   102.81555923   244.28042622
 C     19   5   4     2.901865759526   104.71714797   335.64523517
 C     20  19   5     2.840032499528   114.80833798   230.59277801
 C     21  20  19     2.633278202413   120.60074257   233.53555979
 C     22  21  20     2.639909669219   121.43328960   180.25751709
 C     23  22  21     2.629529699053   119.28973213   359.85617812
 C     24  23  22     2.640519676302   120.58419084     0.00000000
 C     25  24  23     2.637986900380   119.56310712     0.21856487
 O     26  25  24     2.549696459608   124.17056964   178.97693323
 C     27  26  25     2.662404597001   119.85354735   359.48827131
 N     19   5   4     2.810937262535   108.09169203    95.37949134
 O     29  19   5     2.291893301427   119.25987533   277.94395457
 H     20  19   5     2.072708651607   106.11820718   112.13389007
 H     22  21  20     2.066724114069   118.57928571     0.20003012
 H     23  22  21     2.063818654732   120.14515648   179.96894080
 H     24  23  22     2.065454464977   120.26755960   180.07999029
 H     25  24  23     2.060609158533   119.84046490   179.89437586
 H     28  27  26     2.082569384524   111.22939724    62.58221480
 H     28  27  26     2.082564881136   111.36594324   300.47527259
 H     28  27  26     2.072266531518   106.33044849   181.60261629
 O     29  19   5     2.291783756096   116.30121283    92.65660416
 H     11  10   8     2.077372548392   110.42920771   298.53159943
 H      2   1   3     2.058611041385   121.56811461   179.93167200
 H     19   5   4     2.064663550857   111.40681421   210.66458126

---------------------
BASIS SET INFORMATION
---------------------
There are 4 groups of distinct atoms

 Group   1 Type C   : 11s6p2d1f contracted to 5s3p2d1f pattern {62111/411/11/1}
 Group   2 Type N   : 11s6p2d1f contracted to 5s3p2d1f pattern {62111/411/11/1}
 Group   3 Type O   : 11s6p2d1f contracted to 5s3p2d1f pattern {62111/411/11/1}
 Group   4 Type H   : 5s1p contracted to 3s1p pattern {311/1}

Atom   0C    basis set group =>   1
Atom   1C    basis set group =>   1
Atom   2C    basis set group =>   1
Atom   3N    basis set group =>   2
Atom   4C    basis set group =>   1
Atom   5C    basis set group =>   1
Atom   6C    basis set group =>   1
Atom   7C    basis set group =>   1
Atom   8O    basis set group =>   3
Atom   9O    basis set group =>   3
Atom  10C    basis set group =>   1
Atom  11H    basis set group =>   4
Atom  12H    basis set group =>   4
Atom  13H    basis set group =>   4
Atom  14H    basis set group =>   4
Atom  15H    basis set group =>   4
Atom  16H    basis set group =>   4
Atom  17H    basis set group =>   4
Atom  18C    basis set group =>   1
Atom  19C    basis set group =>   1
Atom  20C    basis set group =>   1
Atom  21C    basis set group =>   1
Atom  22C    basis set group =>   1
Atom  23C    basis set group =>   1
Atom  24C    basis set group =>   1
Atom  25C    basis set group =>   1
Atom  26O    basis set group =>   3
Atom  27C    basis set group =>   1
Atom  28N    basis set group =>   2
Atom  29O    basis set group =>   3
Atom  30H    basis set group =>   4
Atom  31H    basis set group =>   4
Atom  32H    basis set group =>   4
Atom  33H    basis set group =>   4
Atom  34H    basis set group =>   4
Atom  35H    basis set group =>   4
Atom  36H    basis set group =>   4
Atom  37H    basis set group =>   4
Atom  38O    basis set group =>   3
Atom  39H    basis set group =>   4
Atom  40H    basis set group =>   4
Atom  41H    basis set group =>   4
---------------------------------
AUXILIARY/J BASIS SET INFORMATION
---------------------------------
There are 4 groups of distinct atoms

 Group   1 Type C   : 12s5p4d2f1g contracted to 6s4p3d1f1g pattern {711111/2111/211/2/1}
 Group   2 Type N   : 12s5p4d2f1g contracted to 6s4p3d1f1g pattern {711111/2111/211/2/1}
 Group   3 Type O   : 12s5p4d2f1g contracted to 6s4p3d1f1g pattern {711111/2111/211/2/1}
 Group   4 Type H   : 5s2p1d contracted to 3s1p1d pattern {311/2/1}

Atom   0C    basis set group =>   1
Atom   1C    basis set group =>   1
Atom   2C    basis set group =>   1
Atom   3N    basis set group =>   2
Atom   4C    basis set group =>   1
Atom   5C    basis set group =>   1
Atom   6C    basis set group =>   1
Atom   7C    basis set group =>   1
Atom   8O    basis set group =>   3
Atom   9O    basis set group =>   3
Atom  10C    basis set group =>   1
Atom  11H    basis set group =>   4
Atom  12H    basis set group =>   4
Atom  13H    basis set group =>   4
Atom  14H    basis set group =>   4
Atom  15H    basis set group =>   4
Atom  16H    basis set group =>   4
Atom  17H    basis set group =>   4
Atom  18C    basis set group =>   1
Atom  19C    basis set group =>   1
Atom  20C    basis set group =>   1
Atom  21C    basis set group =>   1
Atom  22C    basis set group =>   1
Atom  23C    basis set group =>   1
Atom  24C    basis set group =>   1
Atom  25C    basis set group =>   1
Atom  26O    basis set group =>   3
Atom  27C    basis set group =>   1
Atom  28N    basis set group =>   2
Atom  29O    basis set group =>   3
Atom  30H    basis set group =>   4
Atom  31H    basis set group =>   4
Atom  32H    basis set group =>   4
Atom  33H    basis set group =>   4
Atom  34H    basis set group =>   4
Atom  35H    basis set group =>   4
Atom  36H    basis set group =>   4
Atom  37H    basis set group =>   4
Atom  38O    basis set group =>   3
Atom  39H    basis set group =>   4
Atom  40H    basis set group =>   4
Atom  41H    basis set group =>   4


           ************************************************************
           *        Program running with 24 parallel MPI-processes    *
           *              working on a common directory               *
           ************************************************************
------------------------------------------------------------------------------
                           ORCA GTO INTEGRAL CALCULATION
                           -- RI-GTO INTEGRALS CHOSEN --
------------------------------------------------------------------------------
------------------------------------------------------------------------------
                   ___                                                        
                  /   \      - P O W E R E D   B Y -                         
                 /     \                                                     
                 |  |  |   _    _      __       _____    __    __             
                 |  |  |  | |  | |    /  \     |  _  \  |  |  /  |          
                  \  \/   | |  | |   /    \    | | | |  |  | /  /          
                 / \  \   | |__| |  /  /\  \   | |_| |  |  |/  /          
                |  |  |   |  __  | /  /__\  \  |    /   |      \           
                |  |  |   | |  | | |   __   |  |    \   |  |\   \          
                \     /   | |  | | |  |  |  |  | |\  \  |  | \   \       
                 \___/    |_|  |_| |__|  |__|  |_| \__\ |__|  \__/        
                                                                              
                      - O R C A' S   B I G   F R I E N D -                    
                                      &                                       
                       - I N T E G R A L  F E E D E R -                       
                                                                              
 v1 FN, 2020, v2 2021                                                         
------------------------------------------------------------------------------


Reading SHARK input file 3_H/3_H.SHARKINP.tmp ... ok
----------------------
SHARK INTEGRAL PACKAGE
----------------------

Number of atoms                             ...     42
Number of basis functions                   ...    852
Number of shells                            ...    336
Maximum angular momentum                    ...      3
Integral batch strategy                     ... SHARK/LIBINT Hybrid
RI-J (if used) integral strategy            ... SPLIT-RIJ (Revised 2003 algorithm where possible)
Printlevel                                  ...      1
Contraction scheme used                     ... SEGMENTED contraction
Coulomb Range Separation                    ... NOT USED
Exchange Range Separation                   ... NOT USED
Finite Nucleus Model                        ... NOT USED
Auxiliary Coulomb fitting basis             ... AVAILABLE
   # of basis functions in Aux-J            ...   1374
   # of shells in Aux-J                     ...    450
   Maximum angular momentum in Aux-J        ...      4
Auxiliary J/K fitting basis                 ... NOT available
Auxiliary Correlation fitting basis         ... NOT available
Auxiliary 'external' fitting basis          ... NOT available
Integral threshold                          ...     2.500000e-11
Primitive cut-off                           ...     2.500000e-12
Primitive pair pre-selection threshold      ...     2.500000e-12

Calculating pre-screening integrals         ... done (  0.1 sec) Dimension = 336
Organizing shell pair data                  ... done (  0.5 sec)
Shell pair information
Total number of shell pairs                 ...     56616
Shell pairs after pre-screening             ...     42350
Total number of primitive shell pairs       ...    173748
Primitive shell pairs kept                  ...     85876
          la=0 lb=0:  10881 shell pairs
          la=1 lb=0:  12154 shell pairs
          la=1 lb=1:   3400 shell pairs
          la=2 lb=0:   6079 shell pairs
          la=2 lb=1:   3427 shell pairs
          la=2 lb=2:    887 shell pairs
          la=3 lb=0:   2836 shell pairs
          la=3 lb=1:   1651 shell pairs
          la=3 lb=2:    826 shell pairs
          la=3 lb=3:    209 shell pairs

Calculating one electron integrals          ... done (  0.1 sec)
Calculating RI/J V-Matrix + Cholesky decomp.... done (  0.2 sec)
Calculating Nuclear repulsion               ... done (  0.0 sec) ENN=   2249.468179175189 Eh

SHARK setup successfully completed in   1.6 seconds

Maximum memory used throughout the entire GTOINT-calculation: 63.8 MB


           ************************************************************
           *        Program running with 24 parallel MPI-processes    *
           *              working on a common directory               *
           ************************************************************
-------------------------------------------------------------------------------
                                 ORCA SCF
-------------------------------------------------------------------------------

------------
SCF SETTINGS
------------
Hamiltonian:
 Density Functional     Method          .... DFT(GTOs)
 Exchange Functional    Exchange        .... PBE
   PBE kappa parameter   XKappa         ....  0.804000
   PBE mue parameter    XMuePBE         ....  0.219520
 Correlation Functional Correlation     .... PBE
   PBE beta parameter  CBetaPBE         ....  0.066725
 LDA part of GGA corr.  LDAOpt          .... PW91-LDA
 Gradients option       PostSCFGGA      .... off
 Hybrid DFT is turned on
   Fraction HF Exchange ScalHFX         ....  0.250000
   Scaling of DF-GGA-X  ScalDFX         ....  0.750000
   Scaling of DF-GGA-C  ScalDFC         ....  1.000000
   Scaling of DF-LDA-C  ScalLDAC        ....  1.000000
   Perturbative correction              ....  0.000000
   Density functional embedding theory  .... OFF
   NL short-range parameter             ....  6.900000
 RI-approximation to the Coulomb term is turned on
   Number of AuxJ basis functions       .... 1374
   RIJ-COSX (HFX calculated with COS-X)).... on


General Settings:
 Integral files         IntName         .... 3_H/3_H
 Hartree-Fock type      HFTyp           .... RHF
 Total Charge           Charge          ....    0
 Multiplicity           Mult            ....    1
 Number of Electrons    NEL             ....  174
 Basis Dimension        Dim             ....  852
 Nuclear Repulsion      ENuc            ....   2249.4681791752 Eh

Convergence Acceleration:
 DIIS                   CNVDIIS         .... on
   Start iteration      DIISMaxIt       ....    12
   Startup error        DIISStart       ....  0.200000
   # of expansion vecs  DIISMaxEq       ....     5
   Bias factor          DIISBfac        ....   1.050
   Max. coefficient     DIISMaxC        ....  10.000
 Trust-Rad. Augm. Hess. CNVTRAH         .... auto
   Auto Start mean grad. ratio tolernc. ....  1.125000
   Auto Start start iteration           ....    20
   Auto Start num. interpolation iter.  ....    10
   Max. Number of Micro iterations      ....    16
   Max. Number of Macro iterations      .... Maxiter - #DIIS iter
   Number of Davidson start vectors     ....     2
   Converg. threshold I  (grad. norm)   ....   1.000e-05
   Converg. threshold II (energy diff.) ....   1.000e-08
   Grad. Scal. Fac. for Micro threshold ....   0.100
   Minimum threshold for Micro iter.    ....   0.010
   NR start threshold (gradient norm)   ....   0.001
   Initial trust radius                 ....   0.400
   Minimum AH scaling param. (alpha)    ....   1.000
   Maximum AH scaling param. (alpha)    .... 1000.000
   Orbital update algorithm             .... Taylor
   White noise on init. David. guess    .... on
   Maximum white noise                  ....   0.010
   Quad. conv. algorithm                .... NR
 SOSCF                  CNVSOSCF        .... on
   Start iteration      SOSCFMaxIt      ....   150
   Startup grad/error   SOSCFStart      ....  0.003300
 Level Shifting         CNVShift        .... on
   Level shift para.    LevelShift      ....    0.2500
   Turn off err/grad.   ShiftErr        ....    0.0010
 Zerner damping         CNVZerner       .... off
 Static damping         CNVDamp         .... on
   Fraction old density DampFac         ....    0.7000
   Max. Damping (<1)    DampMax         ....    0.9800
   Min. Damping (>=0)   DampMin         ....    0.0000
   Turn off err/grad.   DampErr         ....    0.1000
 Fernandez-Rico         CNVRico         .... off

SCF Procedure:
 Maximum # iterations   MaxIter         ....   800
 SCF integral mode      SCFMode         .... Direct
   Integral package                     .... SHARK and LIBINT hybrid scheme
 Reset frequency        DirectResetFreq ....    20
 Integral Threshold     Thresh          ....  2.500e-11 Eh
 Primitive CutOff       TCut            ....  2.500e-12 Eh

Convergence Tolerance:
 Convergence Check Mode ConvCheckMode   .... Total+1el-Energy
 Convergence forced     ConvForced      .... 0
 Energy Change          TolE            ....  1.000e-08 Eh
 1-El. energy change                    ....  1.000e-05 Eh
 Orbital Gradient       TolG            ....  1.000e-05
 Orbital Rotation angle TolX            ....  1.000e-05
 DIIS Error             TolErr          ....  5.000e-07


Diagonalization of the overlap matrix:
Smallest eigenvalue                        ... 6.040e-06
Time for diagonalization                   ...    0.246 sec
Threshold for overlap eigenvalues          ... 1.000e-08
Number of eigenvalues below threshold      ... 0
Time for construction of square roots      ...    0.125 sec
Total time needed                          ...    0.377 sec

Time for model grid setup =    0.338 sec

------------------------------
INITIAL GUESS: MODEL POTENTIAL
------------------------------
Loading Hartree-Fock densities                     ... done
Calculating cut-offs                               ... done
Initializing the effective Hamiltonian             ... done
Setting up the integral package (SHARK)            ... done
Starting the Coulomb interaction                   ... done (   0.5 sec)
Reading the grid                                   ... done
Mapping shells                                     ... done
Starting the XC term evaluation                    ... done (   0.2 sec)
  promolecular density results
     # of electrons  =    173.989659583
     EX              =   -146.191729744
     EC              =     -5.904504222
     EX+EC           =   -152.096233966
Transforming the Hamiltonian                       ... done (   0.1 sec)
Diagonalizing the Hamiltonian                      ... done (   0.2 sec)
Back transforming the eigenvectors                 ... done (   0.0 sec)
Now organizing SCF variables                       ... done
                      ------------------
                      INITIAL GUESS DONE (   1.7 sec)
                      ------------------
-------------------
DFT GRID GENERATION
-------------------

General Integration Accuracy     IntAcc      ... 4.388
Radial Grid Type                 RadialGrid  ... OptM3 with GC (2021)
Angular Grid (max. ang.)         AngularGrid ... 4 (Lebedev-302)
Angular grid pruning method      GridPruning ... 4 (adaptive)
Weight generation scheme         WeightScheme... Becke
Basis function cutoff            BFCut       ... 1.0000e-11
Integration weight cutoff        WCut        ... 1.0000e-14
Angular grids for H and He will be reduced by one unit
Partially contracted basis set               ... off
Rotationally invariant grid construction     ... off

Total number of grid points                  ...   200012
Total number of batches                      ...     3146
Average number of points per batch           ...       63
Average number of grid points per atom       ...     4762
Time for grid setup =    1.370 sec

--------------------
COSX GRID GENERATION
--------------------

GRIDX 1
-------
General Integration Accuracy     IntAcc      ... 3.816
Radial Grid Type                 RadialGrid  ... OptM3 with GC (2021)
Angular Grid (max. ang.)         AngularGrid ... 1 (Lebedev-50)
Angular grid pruning method      GridPruning ... 4 (adaptive)
Weight generation scheme         WeightScheme... Becke
Basis function cutoff            BFCut       ... 1.0000e-11
Integration weight cutoff        WCut        ... 1.0000e-14
Angular grids for H and He will be reduced by one unit
Partially contracted basis set               ... on
Rotationally invariant grid construction     ... off

Total number of grid points                  ...    25403
Total number of batches                      ...      416
Average number of points per batch           ...       61
Average number of grid points per atom       ...      605
UseSFitting                                  ... on

GRIDX 2
-------
General Integration Accuracy     IntAcc      ... 4.020
Radial Grid Type                 RadialGrid  ... OptM3 with GC (2021)
Angular Grid (max. ang.)         AngularGrid ... 2 (Lebedev-110)
Angular grid pruning method      GridPruning ... 4 (adaptive)
Weight generation scheme         WeightScheme... Becke
Basis function cutoff            BFCut       ... 1.0000e-11
Integration weight cutoff        WCut        ... 1.0000e-14
Angular grids for H and He will be reduced by one unit
Partially contracted basis set               ... on
Rotationally invariant grid construction     ... off

Total number of grid points                  ...    54930
Total number of batches                      ...      880
Average number of points per batch           ...       62
Average number of grid points per atom       ...     1308
UseSFitting                                  ... on

GRIDX 3
-------
General Integration Accuracy     IntAcc      ... 4.338
Radial Grid Type                 RadialGrid  ... OptM3 with GC (2021)
Angular Grid (max. ang.)         AngularGrid ... 3 (Lebedev-194)
Angular grid pruning method      GridPruning ... 4 (adaptive)
Weight generation scheme         WeightScheme... Becke
Basis function cutoff            BFCut       ... 1.0000e-11
Integration weight cutoff        WCut        ... 1.0000e-14
Angular grids for H and He will be reduced by one unit
Partially contracted basis set               ... on
Rotationally invariant grid construction     ... off

Total number of grid points                  ...   119866
Total number of batches                      ...     1893
Average number of points per batch           ...       63
Average number of grid points per atom       ...     2854
UseSFitting                                  ... on

Time for X-Grid setup             =    2.523 sec


--------------------
CPCM SOLVATION MODEL
--------------------
CPCM parameters:
  Epsilon                                         ...      47.2000
  Refrac                                          ...       1.4790
  Rsolv                                           ...       1.3000
  Surface type                                    ... GAUSSIAN VDW
  Epsilon function type                           ...         CPCM
Radii:
 Radius for C  used is    3.8550 Bohr (=   2.0400 Ang.)
 Radius for N  used is    3.5149 Bohr (=   1.8600 Ang.)
 Radius for O  used is    3.4469 Bohr (=   1.8240 Ang.)
 Radius for H  used is    2.4944 Bohr (=   1.3200 Ang.)
Calculating surface                               ...        done! (  0.0s)
GEPOL surface points                              ...         2129
GEPOL Volume                                      ...    2503.6945
GEPOL Surface-area                                ...    1227.3226
Calculating surface distance matrix               ...        done! (  0.1s)
Performing Cholesky decomposition & store         ...        done! (  0.3s)
Overall time for CPCM initialization              ...                 0.4s
--------------
SCF ITERATIONS
--------------
ITER       Energy         Delta-E        Max-DP      RMS-DP      [F,P]     Damp
               ***  Starting incremental Fock matrix formation  ***
  0  -1142.7754817627   0.000000000000 0.16160465  0.00078552  0.2655120 0.7000
  1  -1143.0154394589  -0.239957696188 0.14815026  0.00067767  0.1073729 0.7000
                               ***Turning on DIIS***
  2  -1143.1115449584  -0.096105499532 0.25718244  0.00117880  0.0332501 0.0000
  3  -1143.2701086440  -0.158563685570 0.13351995  0.00054130  0.0536947 0.0000
  4  -1143.2988227946  -0.028714150561 0.04329048  0.00018647  0.0149048 0.0000
  5  -1143.3007307443  -0.001907949681 0.01674614  0.00006532  0.0059990 0.0000
                      *** Initiating the SOSCF procedure ***
                           *** Shutting down DIIS ***
                      *** Re-Reading the Fockian *** 
                      *** Removing any level shift *** 
ITER      Energy       Delta-E        Grad      Rot      Max-DP    RMS-DP
  6  -1143.30088222  -0.0001514793  0.000176  0.000176  0.006518  0.000034
               *** Restarting incremental Fock matrix formation ***
  7  -1143.30085560   0.0000266223  0.000254  0.001000  0.002573  0.000022
  8  -1143.30084819   0.0000074145  0.000458  0.000677  0.001318  0.000007
  9  -1143.30086045  -0.0000122648  0.000069  0.000240  0.000550  0.000003
 10  -1143.30086020   0.0000002474  0.000160  0.000194  0.000321  0.000002
 11  -1143.30086055  -0.0000003421  0.000024  0.000064  0.000477  0.000003
 12  -1143.30086051   0.0000000344  0.000034  0.000038  0.000071  0.000001
                  ***Gradient check signals convergence***
              ***Rediagonalizing the Fockian in SOSCF/NRSCF***

               *****************************************************
               *                     SUCCESS                       *
               *           SCF CONVERGED AFTER  13 CYCLES          *
               *****************************************************

Old exchange energy                            =    -37.224813312 Eh
New exchange energy                            =    -37.224806546 Eh
Exchange energy change after final integration =      0.000006766 Eh
Total energy after final integration           =  -1143.300853796 Eh
Final COS-X integration done in                =    18.486 sec

----------------
TOTAL SCF ENERGY
----------------

Total Energy       :        -1143.30085380 Eh          -31110.79787 eV

Components:
Nuclear Repulsion  :         2249.46817918 Eh           61211.14107 eV
Electronic Energy  :        -3392.76903297 Eh          -92321.93894 eV
One Electron Energy:        -6031.41921015 Eh         -164123.26057 eV
Two Electron Energy:         2638.65017718 Eh           71801.32163 eV
Max COSX asymmetry :            0.00000232 Eh               0.00006 eV
CPCM Dielectric    :           -0.03034083 Eh              -0.82562 eV

Virial components:
Potential Energy   :        -2281.22149024 Eh          -62075.19259 eV
Kinetic Energy     :         1137.92063644 Eh           30964.39472 eV
Virial Ratio       :            2.00472811


DFT components:
N(Alpha)           :       87.000063529795 electrons
N(Beta)            :       87.000063529795 electrons
N(Total)           :      174.000127059591 electrons
E(X)               :     -111.484903534608 Eh       
E(C)               :       -5.895698772405 Eh       
E(XC)              :     -117.380602307013 Eh       
DFET-embed. en.    :        0.000000000000 Eh       
CPCM Solvation Model Properties:
Surface-charge          :           -0.03106949
Charge-correction       :           -0.00007439 Eh              -0.00202 eV
Free-energy (cav+disp)  :  This term is not implemented in the current solvation scheme

---------------
SCF CONVERGENCE
---------------

  Last Energy change         ...   -4.9947e-08  Tolerance :   1.0000e-08
  Last MAX-Density change    ...    2.6645e-15  Tolerance :   1.0000e-07
  Last RMS-Density change    ...    1.4405e-17  Tolerance :   5.0000e-09
  Last Orbital Gradient      ...    1.0241e-06  Tolerance :   1.0000e-05
  Last Orbital Rotation      ...    5.3634e-06  Tolerance :   1.0000e-05

             **** THE GBW FILE WAS UPDATED (3_H/3_H.gbw) ****
             **** DENSITY 3_H/3_H.scfp WAS UPDATED ****
             **** ENERGY FILE WAS UPDATED (3_H/3_H.en.tmp) ****
             **** THE GBW FILE WAS UPDATED (3_H/3_H.gbw) ****
             **** DENSITY 3_H/3_H.scfp WAS UPDATED ****
----------------
ORBITAL ENERGIES
----------------

  NO   OCC          E(Eh)            E(eV) 
   0   2.0000     -19.263537      -524.1875 
   1   2.0000     -19.250041      -523.8202 
   2   2.0000     -19.248590      -523.7808 
   3   2.0000     -19.247516      -523.7515 
   4   2.0000     -19.202625      -522.5300 
   5   2.0000     -14.621708      -397.8769 
   6   2.0000     -14.425233      -392.5306 
   7   2.0000     -10.359180      -281.8876 
   8   2.0000     -10.293734      -280.1067 
   9   2.0000     -10.288536      -279.9653 
  10   2.0000     -10.287771      -279.9445 
  11   2.0000     -10.286699      -279.9153 
  12   2.0000     -10.272804      -279.5372 
  13   2.0000     -10.270901      -279.4854 
  14   2.0000     -10.268096      -279.4091 
  15   2.0000     -10.262325      -279.2521 
  16   2.0000     -10.243021      -278.7268 
  17   2.0000     -10.233418      -278.4655 
  18   2.0000     -10.233329      -278.4630 
  19   2.0000     -10.233123      -278.4574 
  20   2.0000     -10.229770      -278.3662 
  21   2.0000     -10.226217      -278.2695 
  22   2.0000     -10.225038      -278.2374 
  23   2.0000     -10.210176      -277.8330 
  24   2.0000      -1.280706       -34.8498 
  25   2.0000      -1.154251       -31.4088 
  26   2.0000      -1.114200       -30.3189 
  27   2.0000      -1.101111       -29.9627 
  28   2.0000      -1.061711       -28.8906 
  29   2.0000      -1.018357       -27.7109 
  30   2.0000      -0.896316       -24.3900 
  31   2.0000      -0.872099       -23.7310 
  32   2.0000      -0.850916       -23.1546 
  33   2.0000      -0.808175       -21.9916 
  34   2.0000      -0.788427       -21.4542 
  35   2.0000      -0.781374       -21.2623 
  36   2.0000      -0.775921       -21.1139 
  37   2.0000      -0.745558       -20.2877 
  38   2.0000      -0.719947       -19.5908 
  39   2.0000      -0.702981       -19.1291 
  40   2.0000      -0.668291       -18.1851 
  41   2.0000      -0.645290       -17.5592 
  42   2.0000      -0.629927       -17.1412 
  43   2.0000      -0.621088       -16.9007 
  44   2.0000      -0.605577       -16.4786 
  45   2.0000      -0.593522       -16.1506 
  46   2.0000      -0.579557       -15.7705 
  47   2.0000      -0.570299       -15.5186 
  48   2.0000      -0.558192       -15.1892 
  49   2.0000      -0.548228       -14.9180 
  50   2.0000      -0.544417       -14.8143 
  51   2.0000      -0.533313       -14.5122 
  52   2.0000      -0.520768       -14.1708 
  53   2.0000      -0.515917       -14.0388 
  54   2.0000      -0.504042       -13.7157 
  55   2.0000      -0.500619       -13.6225 
  56   2.0000      -0.492038       -13.3890 
  57   2.0000      -0.484670       -13.1885 
  58   2.0000      -0.482607       -13.1324 
  59   2.0000      -0.470395       -12.8001 
  60   2.0000      -0.460117       -12.5204 
  61   2.0000      -0.452917       -12.3245 
  62   2.0000      -0.441409       -12.0114 
  63   2.0000      -0.438958       -11.9447 
  64   2.0000      -0.436786       -11.8855 
  65   2.0000      -0.429623       -11.6906 
  66   2.0000      -0.415937       -11.3182 
  67   2.0000      -0.402136       -10.9427 
  68   2.0000      -0.396684       -10.7943 
  69   2.0000      -0.388571       -10.5736 
  70   2.0000      -0.381638       -10.3849 
  71   2.0000      -0.377916       -10.2836 
  72   2.0000      -0.376387       -10.2420 
  73   2.0000      -0.369032       -10.0419 
  74   2.0000      -0.362972        -9.8770 
  75   2.0000      -0.357368        -9.7245 
  76   2.0000      -0.343366        -9.3435 
  77   2.0000      -0.342659        -9.3242 
  78   2.0000      -0.341046        -9.2803 
  79   2.0000      -0.331142        -9.0108 
  80   2.0000      -0.328538        -8.9400 
  81   2.0000      -0.321591        -8.7509 
  82   2.0000      -0.310298        -8.4436 
  83   2.0000      -0.297504        -8.0955 
  84   2.0000      -0.270718        -7.3666 
  85   2.0000      -0.241093        -6.5605 
  86   2.0000      -0.200122        -5.4456 
  87   0.0000      -0.069919        -1.9026 
  88   0.0000      -0.027382        -0.7451 
  89   0.0000      -0.017218        -0.4685 
  90   0.0000      -0.001982        -0.0539 
  91   0.0000       0.003949         0.1074 
  92   0.0000       0.043158         1.1744 
  93   0.0000       0.053062         1.4439 
  94   0.0000       0.060928         1.6579 
  95   0.0000       0.070508         1.9186 
  96   0.0000       0.075079         2.0430 
  97   0.0000       0.083500         2.2722 
  98   0.0000       0.088824         2.4170 
  99   0.0000       0.092059         2.5050 
 100   0.0000       0.093837         2.5534 
 101   0.0000       0.100782         2.7424 
 102   0.0000       0.106269         2.8917 
 103   0.0000       0.109487         2.9793 
 104   0.0000       0.115187         3.1344 
 105   0.0000       0.119048         3.2395 
 106   0.0000       0.123488         3.3603 
 107   0.0000       0.129799         3.5320 
 108   0.0000       0.131335         3.5738 
 109   0.0000       0.139123         3.7857 
 110   0.0000       0.142034         3.8650 
 111   0.0000       0.145400         3.9565 
 112   0.0000       0.147157         4.0044 
 113   0.0000       0.155428         4.2294 
 114   0.0000       0.159380         4.3370 
 115   0.0000       0.161049         4.3824 
 116   0.0000       0.165848         4.5130 
 117   0.0000       0.173207         4.7132 
 118   0.0000       0.183295         4.9877 
 119   0.0000       0.191836         5.2201 
 120   0.0000       0.195448         5.3184 
 121   0.0000       0.203640         5.5413 
 122   0.0000       0.206847         5.6286 
 123   0.0000       0.211616         5.7584 
 124   0.0000       0.216664         5.8957 
 125   0.0000       0.220486         5.9997 
 126   0.0000       0.221627         6.0308 
 127   0.0000       0.226390         6.1604 
 128   0.0000       0.227659         6.1949 
 129   0.0000       0.240212         6.5365 
 130   0.0000       0.242467         6.5979 
 131   0.0000       0.245053         6.6682 
 132   0.0000       0.247566         6.7366 
 133   0.0000       0.254014         6.9121 
 134   0.0000       0.263334         7.1657 
 135   0.0000       0.264308         7.1922 
 136   0.0000       0.265690         7.2298 
 137   0.0000       0.272167         7.4060 
 138   0.0000       0.274222         7.4620 
 139   0.0000       0.281011         7.6467 
 140   0.0000       0.286680         7.8010 
 141   0.0000       0.288538         7.8515 
 142   0.0000       0.292975         7.9723 
 143   0.0000       0.300070         8.1653 
 144   0.0000       0.306894         8.3510 
 145   0.0000       0.312529         8.5044 
 146   0.0000       0.315668         8.5898 
 147   0.0000       0.322725         8.7818 
 148   0.0000       0.326741         8.8911 
 149   0.0000       0.330467         8.9925 
 150   0.0000       0.332359         9.0440 
 151   0.0000       0.335836         9.1386 
 152   0.0000       0.338901         9.2220 
 153   0.0000       0.346527         9.4295 
 154   0.0000       0.349167         9.5013 
 155   0.0000       0.354513         9.6468 
 156   0.0000       0.358784         9.7630 
 157   0.0000       0.364789         9.9264 
 158   0.0000       0.365917         9.9571 
 159   0.0000       0.373009        10.1501 
 160   0.0000       0.376427        10.2431 
 161   0.0000       0.380188        10.3454 
 162   0.0000       0.386023        10.5042 
 163   0.0000       0.391338        10.6488 
 164   0.0000       0.395184        10.7535 
 165   0.0000       0.395748        10.7688 
 166   0.0000       0.401853        10.9350 
 167   0.0000       0.402967        10.9653 
 168   0.0000       0.409713        11.1489 
 169   0.0000       0.414034        11.2665 
 170   0.0000       0.416411        11.3311 
 171   0.0000       0.419271        11.4089 
 172   0.0000       0.427172        11.6239 
 173   0.0000       0.429404        11.6847 
 174   0.0000       0.431726        11.7478 
 175   0.0000       0.435690        11.8557 
 176   0.0000       0.438379        11.9289 
 177   0.0000       0.440417        11.9844 
 178   0.0000       0.445144        12.1130 
 179   0.0000       0.448647        12.2083 
 180   0.0000       0.457089        12.4380 
 181   0.0000       0.459175        12.4948 
 182   0.0000       0.461415        12.5557 
 183   0.0000       0.465020        12.6538 
 184   0.0000       0.471864        12.8401 
 185   0.0000       0.472281        12.8514 
 186   0.0000       0.474524        12.9125 
 187   0.0000       0.483702        13.1622 
 188   0.0000       0.486537        13.2393 
 189   0.0000       0.492948        13.4138 
 190   0.0000       0.496618        13.5137 
 191   0.0000       0.498640        13.5687 
 192   0.0000       0.500493        13.6191 
 193   0.0000       0.507259        13.8032 
 194   0.0000       0.511268        13.9123 
 195   0.0000       0.516219        14.0470 
 196   0.0000       0.520926        14.1751 
 197   0.0000       0.523933        14.2569 
 198   0.0000       0.526823        14.3356 
 199   0.0000       0.528356        14.3773 
 200   0.0000       0.533887        14.5278 
 201   0.0000       0.538921        14.6648 
 202   0.0000       0.544604        14.8194 
 203   0.0000       0.547922        14.9097 
 204   0.0000       0.553765        15.0687 
 205   0.0000       0.560292        15.2463 
 206   0.0000       0.565598        15.3907 
 207   0.0000       0.569132        15.4869 
 208   0.0000       0.576896        15.6981 
 209   0.0000       0.584949        15.9173 
 210   0.0000       0.589441        16.0395 
 211   0.0000       0.598625        16.2894 
 212   0.0000       0.610928        16.6242 
 213   0.0000       0.612774        16.6744 
 214   0.0000       0.616199        16.7676 
 215   0.0000       0.634835        17.2747 
 216   0.0000       0.641856        17.4658 
 217   0.0000       0.646416        17.5899 
 218   0.0000       0.650364        17.6973 
 219   0.0000       0.652447        17.7540 
 220   0.0000       0.657695        17.8968 
 221   0.0000       0.666199        18.1282 
 222   0.0000       0.667405        18.1610 
 223   0.0000       0.677839        18.4449 
 224   0.0000       0.683832        18.6080 
 225   0.0000       0.685546        18.6546 
 226   0.0000       0.697448        18.9785 
 227   0.0000       0.702691        19.1212 
 228   0.0000       0.710754        19.3406 
 229   0.0000       0.712691        19.3933 
 230   0.0000       0.717522        19.5248 
 231   0.0000       0.720900        19.6167 
 232   0.0000       0.728604        19.8263 
 233   0.0000       0.738335        20.0911 
 234   0.0000       0.740833        20.1591 
 235   0.0000       0.747082        20.3291 
 236   0.0000       0.753697        20.5091 
 237   0.0000       0.757787        20.6204 
 238   0.0000       0.762817        20.7573 
 239   0.0000       0.769175        20.9303 
 240   0.0000       0.778504        21.1842 
 241   0.0000       0.783007        21.3067 
 242   0.0000       0.791693        21.5430 
 243   0.0000       0.804203        21.8835 
 244   0.0000       0.809866        22.0376 
 245   0.0000       0.813506        22.1366 
 246   0.0000       0.821083        22.3428 
 247   0.0000       0.828806        22.5530 
 248   0.0000       0.838733        22.8231 
 249   0.0000       0.843197        22.9446 
 250   0.0000       0.847606        23.0645 
 251   0.0000       0.856535        23.3075 
 252   0.0000       0.863241        23.4900 
 253   0.0000       0.867396        23.6030 
 254   0.0000       0.877970        23.8908 
 255   0.0000       0.879172        23.9235 
 256   0.0000       0.887187        24.1416 
 257   0.0000       0.890149        24.2222 
 258   0.0000       0.901899        24.5419 
 259   0.0000       0.921502        25.0753 
 260   0.0000       0.926845        25.2207 
 261   0.0000       0.930262        25.3137 
 262   0.0000       0.935867        25.4662 
 263   0.0000       0.940533        25.5932 
 264   0.0000       0.945891        25.7390 
 265   0.0000       0.950778        25.8720 
 266   0.0000       0.962916        26.2023 
 267   0.0000       0.972559        26.4647 
 268   0.0000       0.978897        26.6371 
 269   0.0000       0.988798        26.9066 
 270   0.0000       0.994200        27.0536 
 271   0.0000       1.005809        27.3695 
 272   0.0000       1.009222        27.4623 
 273   0.0000       1.014600        27.6087 
 274   0.0000       1.022533        27.8245 
 275   0.0000       1.032472        28.0950 
 276   0.0000       1.042727        28.3740 
 277   0.0000       1.049041        28.5458 
 278   0.0000       1.050204        28.5775 
 279   0.0000       1.066138        29.0111 
 280   0.0000       1.074320        29.2337 
 281   0.0000       1.079468        29.3738 
 282   0.0000       1.085942        29.5500 
 283   0.0000       1.095651        29.8142 
 284   0.0000       1.100588        29.9485 
 285   0.0000       1.107849        30.1461 
 286   0.0000       1.115996        30.3678 
 287   0.0000       1.121966        30.5302 
 288   0.0000       1.126008        30.6402 
 289   0.0000       1.133623        30.8474 
 290   0.0000       1.140434        31.0328 
 291   0.0000       1.144789        31.1513 
 292   0.0000       1.151584        31.3362 
 293   0.0000       1.163564        31.6622 
 294   0.0000       1.164938        31.6996 
 295   0.0000       1.171846        31.8876 
 296   0.0000       1.182278        32.1714 
 297   0.0000       1.189527        32.3687 
 298   0.0000       1.196089        32.5472 
 299   0.0000       1.208910        32.8961 
 300   0.0000       1.213682        33.0260 
 301   0.0000       1.229136        33.4465 
 302   0.0000       1.231121        33.5005 
 303   0.0000       1.238940        33.7133 
 304   0.0000       1.241720        33.7889 
 305   0.0000       1.245733        33.8981 
 306   0.0000       1.258370        34.2420 
 307   0.0000       1.259347        34.2686 
 308   0.0000       1.269525        34.5455 
 309   0.0000       1.280067        34.8324 
 310   0.0000       1.286548        35.0088 
 311   0.0000       1.291584        35.1458 
 312   0.0000       1.303183        35.4614 
 313   0.0000       1.305410        35.5220 
 314   0.0000       1.310372        35.6570 
[...]
 14:    111.75   0.001086    5.49  0.003034  ( 0.016106 -0.051104 -0.012754)
 15:    116.30   0.000014    0.07  0.000038  (-0.005874  0.000818  0.001784)
 16:    141.71   0.000831    4.20  0.001830  (-0.026567 -0.032461  0.008405)
 17:    147.09   0.000042    0.21  0.000089  (-0.005048 -0.001235  0.007876)
 18:    187.74   0.000303    1.53  0.000503  ( 0.011685 -0.018716 -0.004029)
 19:    208.01   0.001112    5.62  0.001668  (-0.000669  0.037774  0.015530)
 20:    214.19   0.001364    6.89  0.001988  (-0.012037  0.026579  0.033711)
 21:    230.59   0.000802    4.05  0.001085  ( 0.031062 -0.000541 -0.010953)
 22:    252.13   0.000444    2.24  0.000550  ( 0.011745 -0.017815 -0.009706)
 23:    280.69   0.003895   19.69  0.004331  ( 0.064580 -0.006039 -0.011121)
 24:    289.51   0.000718    3.63  0.000773  (-0.023267 -0.011691  0.009769)
 25:    305.92   0.000674    3.41  0.000688  ( 0.017033  0.018713 -0.006877)
 26:    308.82   0.000307    1.55  0.000310  ( 0.016565 -0.005172  0.002990)
 27:    343.10   0.000913    4.61  0.000830  ( 0.023392 -0.010789  0.012902)
 28:    372.64   0.001738    8.78  0.001455  ( 0.037456 -0.004829  0.005371)
 29:    417.95   0.008879   44.87  0.006629  (-0.009914  0.075936 -0.027656)
 30:    445.36   0.000210    1.06  0.000147  (-0.007053  0.000426 -0.009854)
 31:    474.70   0.000030    0.15  0.000020  (-0.004022 -0.001715  0.000766)
 32:    504.98   0.001915    9.68  0.001184  (-0.001022 -0.034075 -0.004644)
 33:    540.79   0.004229   21.37  0.002440  (-0.009969  0.039452  0.028004)
 34:    564.19   0.004279   21.62  0.002367  ( 0.046164  0.010000 -0.011638)
 35:    569.44   0.003464   17.50  0.001898  ( 0.001024 -0.020819  0.038257)
 36:    585.11   0.000300    1.52  0.000160  ( 0.005226  0.011252 -0.002519)
 37:    598.46   0.005941   30.02  0.003098  ( 0.034864 -0.041473 -0.012734)
 38:    613.03   0.002491   12.59  0.001268  (-0.027490  0.012450 -0.018906)
 39:    647.47   0.001388    7.02  0.000669  (-0.010156 -0.023635 -0.002732)
 40:    668.01   0.005027   25.40  0.002348  ( 0.012458 -0.037780  0.027670)
 41:    678.31   0.008445   42.68  0.003885  ( 0.037857 -0.027877  0.040927)
 42:    710.47   0.009700   49.02  0.004261  ( 0.019269  0.045433 -0.042723)
 43:    722.57   0.007194   36.36  0.003107  ( 0.006075  0.038728 -0.039628)
 44:    760.59   0.000896    4.53  0.000368  ( 0.009072 -0.014040  0.009392)
 45:    763.23   0.010686   54.00  0.004369  (-0.020980  0.057006  0.026067)
 46:    774.66   0.014267   72.10  0.005747  (-0.028745  0.070145 -0.000856)
 47:    794.40   0.000993    5.02  0.000390  (-0.018162  0.001614  0.007591)
 48:    816.80   0.003584   18.11  0.001369  ( 0.010137  0.030166 -0.018878)
 49:    839.99   0.029233  147.73  0.010860  (-0.020569 -0.092813  0.042696)
 50:    867.02   0.003138   15.86  0.001129  ( 0.033082  0.005249 -0.002724)
 51:    872.29   0.001624    8.21  0.000581  ( 0.019902  0.011844 -0.006682)
 52:    880.94   0.005729   28.95  0.002029  ( 0.033203 -0.012287 -0.027857)
 53:    883.36   0.003306   16.70  0.001168  (-0.026610 -0.021378 -0.001623)
 54:    927.45   0.001278    6.46  0.000430  ( 0.004282  0.018936  0.007280)
 55:    947.15   0.001167    5.90  0.000385  (-0.018236  0.007203  0.000398)
 56:    956.63   0.000161    0.81  0.000053  ( 0.003152 -0.006286 -0.001761)
 57:    971.10   0.022501  113.71  0.007231  (-0.007116  0.083835 -0.012320)
 58:    988.70   0.000207    1.05  0.000065  (-0.000309  0.006745 -0.004452)
 59:    991.36   0.000576    2.91  0.000181  ( 0.001190 -0.009481  0.009494)
 60:    998.62   0.000264    1.33  0.000082  (-0.007354  0.002840 -0.004494)
 61:   1009.17   0.002843   14.37  0.000879  ( 0.018252  0.006264  0.022512)
 62:   1039.26   0.007558   38.20  0.002270  ( 0.024540 -0.040700 -0.003298)
 63:   1042.40   0.005354   27.06  0.001603  ( 0.033064 -0.022554 -0.000905)
 64:   1051.75   0.007087   35.81  0.002103  ( 0.020101 -0.020444  0.035788)
 65:   1070.80   0.008914   45.05  0.002598  ( 0.029938  0.008898  0.040279)
 66:   1084.87   0.010231   51.70  0.002943  ( 0.008364  0.009621 -0.052731)
 67:   1104.66   0.001756    8.87  0.000496  ( 0.007078  0.016351  0.013366)
 68:   1145.21   0.013821   69.85  0.003766  (-0.018981 -0.005663 -0.058085)
 69:   1151.18   0.005053   25.53  0.001370  ( 0.012634 -0.033068  0.010798)
 70:   1169.72   0.000346    1.75  0.000092  (-0.001724 -0.007685 -0.005506)
 71:   1172.85   0.000109    0.55  0.000029  (-0.001588  0.004386  0.002703)
 72:   1174.00   0.001079    5.45  0.000287  ( 0.006634 -0.001241  0.015534)
 73:   1190.58   0.003961   20.02  0.001038  (-0.015443  0.020164 -0.019831)
 74:   1205.54   0.004137   20.90  0.001071  (-0.030291  0.012322  0.001190)
 75:   1206.35   0.003437   17.37  0.000889  (-0.019548  0.000502 -0.022508)
 76:   1216.47   0.003241   16.38  0.000831  (-0.009535 -0.020261  0.018167)
 77:   1221.18   0.013329   67.36  0.003406  ( 0.043901  0.038211 -0.004344)
 78:   1233.80   0.004720   23.85  0.001194  (-0.005112 -0.030751  0.014905)
 79:   1246.74   0.040499  204.67  0.010137  ( 0.096018 -0.026984 -0.013767)
 80:   1257.28   0.085140  430.26  0.021132  ( 0.137704 -0.046405 -0.004045)
 81:   1273.05   0.012314   62.23  0.003019  ( 0.013353 -0.020875  0.049035)
 82:   1292.66   0.021446  108.38  0.005177  (-0.013717 -0.019002  0.068030)
 83:   1306.32   0.028220  142.61  0.006741  (-0.051284 -0.027373  0.057982)
 84:   1324.03   0.017997   90.95  0.004242  (-0.025329  0.021818 -0.055895)
 85:   1333.03   0.016812   84.96  0.003936  (-0.056454 -0.025606 -0.009643)
 86:   1352.84   0.007750   39.17  0.001788  ( 0.040752  0.008409 -0.007505)
 87:   1366.54   0.018339   92.68  0.004188  ( 0.062699 -0.014750 -0.006264)
 88:   1370.50   0.007758   39.20  0.001766  ( 0.031087 -0.028275 -0.000772)
 89:   1389.51   0.009726   49.15  0.002184  (-0.011725 -0.016942 -0.041950)
 90:   1409.70   0.003991   20.17  0.000883  (-0.012813 -0.001829 -0.026757)
 91:   1438.91   0.015815   79.92  0.003430  (-0.011342 -0.057322  0.003919)
 92:   1448.56   0.044884  226.83  0.009669  (-0.058751  0.072251 -0.031584)
 93:   1465.00   0.003126   15.80  0.000666  (-0.006747 -0.021210 -0.013061)
 94:   1465.95   0.005199   26.27  0.001107  (-0.000434 -0.021981  0.024968)
 95:   1469.20   0.007199   36.38  0.001529  ( 0.038423 -0.007112  0.001464)
 96:   1473.13   0.004042   20.43  0.000856  (-0.017467  0.016908  0.016286)
 97:   1475.43   0.002739   13.84  0.000579  (-0.005491 -0.013781  0.018955)
 98:   1486.73   0.003252   16.44  0.000683  ( 0.016112  0.009760 -0.018106)
 99:   1499.58   0.016997   85.89  0.003537  (-0.033761 -0.000330 -0.048960)
100:   1500.22   0.022321  112.80  0.004643  ( 0.060762  0.030093 -0.006739)
101:   1540.65   0.030907  156.19  0.006260  (-0.035172 -0.027588  0.065285)
102:   1620.51   0.041566  210.06  0.008004  (-0.083063  0.028923  0.016381)
103:   1631.48   0.118991  601.33  0.022760  ( 0.021693 -0.090657 -0.118621)
104:   1650.45   0.009960   50.33  0.001883  (-0.001431  0.000069  0.043373)
105:   1664.91   0.010246   51.78  0.001920  (-0.026394 -0.018575  0.029644)
106:   1706.50   0.034020  171.92  0.006221  (-0.074589 -0.020907 -0.014854)
107:   1794.73   0.106285  537.12  0.018481  ( 0.076693  0.058543 -0.095768)
108:   3026.44   0.005514   27.86  0.000569  ( 0.011432  0.004761  0.020376)
109:   3040.47   0.011679   59.02  0.001199  ( 0.011339  0.000171  0.032712)
110:   3073.66   0.006542   33.06  0.000664  ( 0.018356 -0.013197  0.012373)
111:   3111.37   0.000948    4.79  0.000095  (-0.009191  0.003084  0.001051)
112:   3112.90   0.007333   37.06  0.000735  ( 0.011611 -0.024236 -0.003596)
113:   3123.49   0.001006    5.08  0.000101  (-0.008492  0.005315 -0.000418)
114:   3156.91   0.003950   19.96  0.000390  ( 0.004170  0.016344  0.010292)
115:   3168.05   0.003413   17.25  0.000336  (-0.013466 -0.007682  0.009791)
116:   3185.31   0.000985    4.98  0.000097  (-0.005840 -0.001548 -0.007748)
117:   3187.03   0.002897   14.64  0.000284  ( 0.015878 -0.003573 -0.004335)
118:   3189.44   0.002223   11.23  0.000217  (-0.011441 -0.001958  0.009097)
119:   3196.07   0.001607    8.12  0.000157  ( 0.010142  0.003575  0.006420)
120:   3203.76   0.000106    0.54  0.000010  (-0.002220 -0.001049 -0.002079)
121:   3207.28   0.000300    1.51  0.000029  ( 0.002245  0.004561  0.001817)
122:   3213.81   0.003430   17.33  0.000333  ( 0.011356  0.006121 -0.012907)
123:   3214.03   0.000908    4.59  0.000088  (-0.007188  0.003546  0.004893)
124:   3231.02   0.000378    1.91  0.000037  ( 0.003375  0.000452  0.004992)
125:   3244.07   0.000741    3.75  0.000071  ( 0.001360  0.005854  0.005931)

* The epsilon (eps) is given for a Dirac delta lineshape.
** The dipole moment derivative (T) already includes vibrational overlap.

The first frequency considered to be a vibration is 6
The total number of vibrations considered is 120


--------------------------
THERMOCHEMISTRY AT 298.15K
--------------------------

Temperature         ... 298.15 K
Pressure            ... 1.00 atm
Total Mass          ... 330.34 AMU

Throughout the following assumptions are being made:
  (1) The electronic state is orbitally nondegenerate
  (2) There are no thermally accessible electronically excited states
  (3) Hindered rotations indicated by low frequency modes are not
      treated as such but are treated as vibrations and this may
      cause some error
  (4) All equations used are the standard statistical mechanics
      equations for an ideal gas
  (5) All vibrations are strictly harmonic

freq.      15.90  E(vib)   ...       0.57 
freq.      43.33  E(vib)   ...       0.53 
freq.      53.11  E(vib)   ...       0.52 
freq.      65.35  E(vib)   ...       0.50 
freq.      70.57  E(vib)   ...       0.50 
freq.      74.08  E(vib)   ...       0.49 
freq.      82.66  E(vib)   ...       0.48 
freq.     100.41  E(vib)   ...       0.46 
freq.     111.75  E(vib)   ...       0.45 
freq.     116.30  E(vib)   ...       0.44 
freq.     141.71  E(vib)   ...       0.41 
freq.     147.09  E(vib)   ...       0.41 
freq.     187.74  E(vib)   ...       0.36 
freq.     208.01  E(vib)   ...       0.34 
freq.     214.19  E(vib)   ...       0.34 
freq.     230.59  E(vib)   ...       0.32 
freq.     252.13  E(vib)   ...       0.30 
freq.     280.69  E(vib)   ...       0.28 
freq.     289.51  E(vib)   ...       0.27 
freq.     305.92  E(vib)   ...       0.26 
freq.     308.82  E(vib)   ...       0.26 
freq.     343.10  E(vib)   ...       0.23 
freq.     372.64  E(vib)   ...       0.21 
freq.     417.95  E(vib)   ...       0.18 
freq.     445.36  E(vib)   ...       0.17 
freq.     474.70  E(vib)   ...       0.15 
freq.     504.98  E(vib)   ...       0.14 
freq.     540.79  E(vib)   ...       0.12 
freq.     564.19  E(vib)   ...       0.11 
freq.     569.44  E(vib)   ...       0.11 
freq.     585.11  E(vib)   ...       0.11 
freq.     598.46  E(vib)   ...       0.10 
freq.     613.03  E(vib)   ...       0.10 
freq.     647.47  E(vib)   ...       0.09 
freq.     668.01  E(vib)   ...       0.08 
freq.     678.31  E(vib)   ...       0.08 
freq.     710.47  E(vib)   ...       0.07 
freq.     722.57  E(vib)   ...       0.07 
freq.     760.59  E(vib)   ...       0.06 
freq.     763.23  E(vib)   ...       0.06 
freq.     774.66  E(vib)   ...       0.05 
freq.     794.40  E(vib)   ...       0.05 
freq.     816.80  E(vib)   ...       0.05 
freq.     839.99  E(vib)   ...       0.04 
freq.     867.02  E(vib)   ...       0.04 
freq.     872.29  E(vib)   ...       0.04 
freq.     880.94  E(vib)   ...       0.04 
freq.     883.36  E(vib)   ...       0.04 
freq.     927.45  E(vib)   ...       0.03 
freq.     947.15  E(vib)   ...       0.03 
freq.     956.63  E(vib)   ...       0.03 
freq.     971.10  E(vib)   ...       0.03 
freq.     988.70  E(vib)   ...       0.02 
freq.     991.36  E(vib)   ...       0.02 
freq.     998.62  E(vib)   ...       0.02 
freq.    1009.17  E(vib)   ...       0.02 
freq.    1039.26  E(vib)   ...       0.02 
freq.    1042.40  E(vib)   ...       0.02 
freq.    1051.75  E(vib)   ...       0.02 
freq.    1070.80  E(vib)   ...       0.02 
freq.    1084.87  E(vib)   ...       0.02 
freq.    1104.66  E(vib)   ...       0.02 
freq.    1145.21  E(vib)   ...       0.01 
freq.    1151.18  E(vib)   ...       0.01 
freq.    1169.72  E(vib)   ...       0.01 
freq.    1172.85  E(vib)   ...       0.01 
freq.    1174.00  E(vib)   ...       0.01 
freq.    1190.58  E(vib)   ...       0.01 
freq.    1205.54  E(vib)   ...       0.01 
freq.    1206.35  E(vib)   ...       0.01 
freq.    1216.47  E(vib)   ...       0.01 
freq.    1221.18  E(vib)   ...       0.01 
freq.    1233.80  E(vib)   ...       0.01 
freq.    1246.74  E(vib)   ...       0.01 
freq.    1257.28  E(vib)   ...       0.01 
freq.    1273.05  E(vib)   ...       0.01 
freq.    1292.66  E(vib)   ...       0.01 
freq.    1306.32  E(vib)   ...       0.01 
freq.    1324.03  E(vib)   ...       0.01 
freq.    1333.03  E(vib)   ...       0.01 
freq.    1352.84  E(vib)   ...       0.01 
freq.    1366.54  E(vib)   ...       0.01 
freq.    1370.50  E(vib)   ...       0.01 
freq.    1389.51  E(vib)   ...       0.00 
freq.    1409.70  E(vib)   ...       0.00 
freq.    1438.91  E(vib)   ...       0.00 
freq.    1448.56  E(vib)   ...       0.00 
freq.    1465.00  E(vib)   ...       0.00 
freq.    1465.95  E(vib)   ...       0.00 
freq.    1469.20  E(vib)   ...       0.00 
freq.    1473.13  E(vib)   ...       0.00 
freq.    1475.43  E(vib)   ...       0.00 
freq.    1486.73  E(vib)   ...       0.00 
freq.    1499.58  E(vib)   ...       0.00 
freq.    1500.22  E(vib)   ...       0.00 
freq.    1540.65  E(vib)   ...       0.00 
freq.    1620.51  E(vib)   ...       0.00 
freq.    1631.48  E(vib)   ...       0.00 
freq.    1650.45  E(vib)   ...       0.00 
freq.    1664.91  E(vib)   ...       0.00 
freq.    1706.50  E(vib)   ...       0.00 
freq.    1794.73  E(vib)   ...       0.00 
freq.    3026.44  E(vib)   ...       0.00 
freq.    3040.47  E(vib)   ...       0.00 
freq.    3073.66  E(vib)   ...       0.00 
freq.    3111.37  E(vib)   ...       0.00 
freq.    3112.90  E(vib)   ...       0.00 
freq.    3123.49  E(vib)   ...       0.00 
freq.    3156.91  E(vib)   ...       0.00 
freq.    3168.05  E(vib)   ...       0.00 
freq.    3185.31  E(vib)   ...       0.00 
freq.    3187.03  E(vib)   ...       0.00 
freq.    3189.44  E(vib)   ...       0.00 
freq.    3196.07  E(vib)   ...       0.00 
freq.    3203.76  E(vib)   ...       0.00 
freq.    3207.28  E(vib)   ...       0.00 
freq.    3213.81  E(vib)   ...       0.00 
freq.    3214.03  E(vib)   ...       0.00 
freq.    3231.02  E(vib)   ...       0.00 
freq.    3244.07  E(vib)   ...       0.00 

------------
INNER ENERGY
------------

The inner energy is: U= E(el) + E(ZPE) + E(vib) + E(rot) + E(trans)
    E(el)   - is the total energy from the electronic structure calculation
              = E(kin-el) + E(nuc-el) + E(el-el) + E(nuc-nuc)
    E(ZPE)  - the the zero temperature vibrational energy from the frequency calculation
    E(vib)  - the the finite temperature correction to E(ZPE) due to population
              of excited vibrational states
    E(rot)  - is the rotational thermal energy
    E(trans)- is the translational thermal energy

Summary of contributions to the inner energy U:
Electronic energy                ...  -1143.35689871 Eh
Zero point energy                ...      0.33584691 Eh     210.75 kcal/mol
Thermal vibrational correction   ...      0.01853372 Eh      11.63 kcal/mol
Thermal rotational correction    ...      0.00141627 Eh       0.89 kcal/mol
Thermal translational correction ...      0.00141627 Eh       0.89 kcal/mol
-----------------------------------------------------------------------
Total thermal energy                  -1142.99968554 Eh


Summary of corrections to the electronic energy:
(perhaps to be used in another calculation)
Total thermal correction                  0.02136626 Eh      13.41 kcal/mol
Non-thermal (ZPE) correction              0.33584691 Eh     210.75 kcal/mol
-----------------------------------------------------------------------
Total correction                          0.35721317 Eh     224.15 kcal/mol


--------
ENTHALPY
--------

The enthalpy is H = U + kB*T
                kB is Boltzmann's constant
Total free energy                 ...  -1142.99968554 Eh 
Thermal Enthalpy correction       ...      0.00094421 Eh       0.59 kcal/mol
-----------------------------------------------------------------------
Total Enthalpy                    ...  -1142.99874134 Eh


Note: Only C1 symmetry has been detected, increase convergence thresholds 
      if your molecule has a higher symmetry. Symmetry factor of 1.0 is   
      used for the rotational entropy correction. 
 

Note: Rotational entropy computed according to Herzberg 
Infrared and Raman Spectra, Chapter V,1, Van Nostrand Reinhold, 1945 
Point Group:  C1, Symmetry Number:   1  
Rotational constants in cm-1:     0.013060     0.007204     0.005931 

Vibrational entropy computed according to the QRRHO of S. Grimme
Chem.Eur.J. 2012 18 9955


-------
ENTROPY
-------

The entropy contributions are T*S = T*(S(el)+S(vib)+S(rot)+S(trans))
     S(el)   - electronic entropy
     S(vib)  - vibrational entropy
     S(rot)  - rotational entropy
     S(trans)- translational entropy
The entropies will be listed as multiplied by the temperature to get
units of energy

Electronic entropy                ...      0.00000000 Eh      0.00 kcal/mol
Vibrational entropy               ...      0.03317489 Eh     20.82 kcal/mol
Rotational entropy                ...      0.01630836 Eh     10.23 kcal/mol
Translational entropy             ...      0.02056362 Eh     12.90 kcal/mol
-----------------------------------------------------------------------
Final entropy term                ...      0.07004687 Eh     43.95 kcal/mol

In case the symmetry of your molecule has not been determined correctly
or in case you have a reason to use a different symmetry number we print 
out the resulting rotational entropy values for sn=1,12 :
 --------------------------------------------------------
|  sn= 1 | S(rot)=       0.01630836 Eh     10.23 kcal/mol|
|  sn= 2 | S(rot)=       0.01565391 Eh      9.82 kcal/mol|
|  sn= 3 | S(rot)=       0.01527108 Eh      9.58 kcal/mol|
|  sn= 4 | S(rot)=       0.01499945 Eh      9.41 kcal/mol|
|  sn= 5 | S(rot)=       0.01478876 Eh      9.28 kcal/mol|
|  sn= 6 | S(rot)=       0.01461662 Eh      9.17 kcal/mol|
|  sn= 7 | S(rot)=       0.01447107 Eh      9.08 kcal/mol|
|  sn= 8 | S(rot)=       0.01434499 Eh      9.00 kcal/mol|
|  sn= 9 | S(rot)=       0.01423379 Eh      8.93 kcal/mol|
|  sn=10 | S(rot)=       0.01413431 Eh      8.87 kcal/mol|
|  sn=11 | S(rot)=       0.01404432 Eh      8.81 kcal/mol|
|  sn=12 | S(rot)=       0.01396216 Eh      8.76 kcal/mol|
 --------------------------------------------------------


-------------------
GIBBS FREE ENERGY
-------------------

The Gibbs free energy is G = H - T*S

Total enthalpy                    ...  -1142.99874134 Eh 
Total entropy correction          ...     -0.07004687 Eh    -43.95 kcal/mol
-----------------------------------------------------------------------
Final Gibbs free energy         ...  -1143.06878821 Eh

For completeness - the Gibbs free energy minus the electronic energy
G-E(el)                           ...      0.28811050 Eh    180.79 kcal/mol


Timings for individual modules:

Sum of individual times         ...     5649.882 sec (=  94.165 min)
GTO integral calculation        ...       42.255 sec (=   0.704 min)   0.7 %
SCF iterations                  ...     2003.531 sec (=  33.392 min)  35.5 %
SCF Gradient evaluation         ...      540.658 sec (=   9.011 min)   9.6 %
Geometry relaxation             ...        2.718 sec (=   0.045 min)   0.0 %
Analytical frequency calculation...     3060.721 sec (=  51.012 min)  54.2 %
                             ****ORCA TERMINATED NORMALLY****
TOTAL RUN TIME: 0 days 1 hours 34 minutes 55 seconds 884 msec
