
                                 *****************
                                 * O   R   C   A *
                                 *****************

                                            #,                                       
                                            ###                                      
                                            ####                                     
                                            #####                                    
                                            ######                                   
                                           ########,                                 
                                     ,,################,,,,,                         
                               ,,#################################,,                 
                          ,,##########################################,,             
                       ,#########################################, ''#####,          
                    ,#############################################,,   '####,        
                  ,##################################################,,,,####,       
                ,###########''''           ''''###############################       
              ,#####''   ,,,,##########,,,,          '''####'''          '####       
            ,##' ,,,,###########################,,,                        '##       
           ' ,,###''''                  '''############,,,                           
         ,,##''                                '''############,,,,        ,,,,,,###''
      ,#''                                            '''#######################'''  
     '                                                          ''''####''''         
             ,#######,   #######,   ,#######,      ##                                
            ,#'     '#,  ##    ##  ,#'     '#,    #''#        ######   ,####,        
            ##       ##  ##   ,#'  ##            #'  '#       #        #'  '#        
            ##       ##  #######   ##           ,######,      #####,   #    #        
            '#,     ,#'  ##    ##  '#,     ,#' ,#      #,         ##   #,  ,#        
             '#######'   ##     ##  '#######'  #'      '#     #####' # '####'        



                  #######################################################
                  #                        -***-                        #
                  #          Department of theory and spectroscopy      #
                  #    Directorship and core code : Frank Neese         #
                  #        Max Planck Institute fuer Kohlenforschung    #
                  #                Kaiser Wilhelm Platz 1               #
                  #                 D-45470 Muelheim/Ruhr               #
                  #                      Germany                        #
                  #                                                     #
                  #                  All rights reserved                #
                  #                        -***-                        #
                  #######################################################


                         Program Version 5.0.4 -  RELEASE  -


 With contributions from (in alphabetic order):
   Daniel Aravena         : Magnetic Suceptibility
   Michael Atanasov       : Ab Initio Ligand Field Theory (pilot matlab implementation)
   Alexander A. Auer      : GIAO ZORA, VPT2 properties, NMR spectrum
   Ute Becker             : Parallelization
   Giovanni Bistoni       : ED, misc. LED, open-shell LED, HFLD
   Martin Brehm           : Molecular dynamics
   Dmytro Bykov           : SCF Hessian
   Vijay G. Chilkuri      : MRCI spin determinant printing, contributions to CSF-ICE
   Dipayan Datta          : RHF DLPNO-CCSD density
   Achintya Kumar Dutta   : EOM-CC, STEOM-CC
   Dmitry Ganyushin       : Spin-Orbit,Spin-Spin,Magnetic field MRCI
   Miquel Garcia          : C-PCM and meta-GGA Hessian, CC/C-PCM, Gaussian charge scheme
   Yang Guo               : DLPNO-NEVPT2, F12-NEVPT2, CIM, IAO-localization
   Andreas Hansen         : Spin unrestricted coupled pair/coupled cluster methods
   Benjamin Helmich-Paris : MC-RPA, TRAH-SCF, COSX integrals
   Lee Huntington         : MR-EOM, pCC
   Robert Izsak           : Overlap fitted RIJCOSX, COSX-SCS-MP3, EOM
   Marcus Kettner         : VPT2
   Christian Kollmar      : KDIIS, OOCD, Brueckner-CCSD(T), CCSD density, CASPT2, CASPT2-K
   Simone Kossmann        : Meta GGA functionals, TD-DFT gradient, OOMP2, MP2 Hessian
   Martin Krupicka        : Initial AUTO-CI
   Lucas Lang             : DCDCAS
   Marvin Lechner         : AUTO-CI (C++ implementation), FIC-MRCC
   Dagmar Lenk            : GEPOL surface, SMD
   Dimitrios Liakos       : Extrapolation schemes; Compound Job, initial MDCI parallelization
   Dimitrios Manganas     : Further ROCIS development; embedding schemes
   Dimitrios Pantazis     : SARC Basis sets
   Anastasios Papadopoulos: AUTO-CI, single reference methods and gradients
   Taras Petrenko         : DFT Hessian,TD-DFT gradient, ASA, ECA, R-Raman, ABS, FL, XAS/XES, NRVS
   Peter Pinski           : DLPNO-MP2, DLPNO-MP2 Gradient
   Christoph Reimann      : Effective Core Potentials
   Marius Retegan         : Local ZFS, SOC
   Christoph Riplinger    : Optimizer, TS searches, QM/MM, DLPNO-CCSD(T), (RO)-DLPNO pert. Triples
   Tobias Risthaus        : Range-separated hybrids, TD-DFT gradient, RPA, STAB
   Michael Roemelt        : Original ROCIS implementation
   Masaaki Saitow         : Open-shell DLPNO-CCSD energy and density
   Barbara Sandhoefer     : DKH picture change effects
   Avijit Sen             : IP-ROCIS
   Kantharuban Sivalingam : CASSCF convergence, NEVPT2, FIC-MRCI
   Bernardo de Souza      : ESD, SOC TD-DFT
   Georgi Stoychev        : AutoAux, RI-MP2 NMR, DLPNO-MP2 response
   Willem Van den Heuvel  : Paramagnetic NMR
   Boris Wezisla          : Elementary symmetry handling
   Frank Wennmohs         : Technical directorship


 We gratefully acknowledge several colleagues who have allowed us to
 interface, adapt or use parts of their codes:
   Stefan Grimme, W. Hujo, H. Kruse, P. Pracht,  : VdW corrections, initial TS optimization,
                  C. Bannwarth, S. Ehlert          DFT functionals, gCP, sTDA/sTD-DF
   Ed Valeev, F. Pavosevic, A. Kumar             : LibInt (2-el integral package), F12 methods
   Garnet Chan, S. Sharma, J. Yang, R. Olivares  : DMRG
   Ulf Ekstrom                                   : XCFun DFT Library
   Mihaly Kallay                                 : mrcc  (arbitrary order and MRCC methods)
   Jiri Pittner, Ondrej Demel                    : Mk-CCSD
   Frank Weinhold                                : gennbo (NPA and NBO analysis)
   Christopher J. Cramer and Donald G. Truhlar   : smd solvation model
   Lars Goerigk                                  : TD-DFT with DH, B97 family of functionals
   V. Asgeirsson, H. Jonsson                     : NEB implementation
   FAccTs GmbH                                   : IRC, NEB, NEB-TS, DLPNO-Multilevel, CI-OPT
                                                   MM, QMMM, 2- and 3-layer-ONIOM, Crystal-QMMM,
                                                   LR-CPCM, SF, NACMEs, symmetry and pop. for TD-DFT,
                                                   nearIR, NL-DFT gradient (VV10), updates on ESD,
                                                   ML-optimized integration grids
   S Lehtola, MJT Oliveira, MAL Marques          : LibXC Library
   Liviu Ungur et al                             : ANISO software


 Your calculation uses the libint2 library for the computation of 2-el integrals
 For citations please refer to: http://libint.valeyev.net

 Your ORCA version has been built with support for libXC version: 5.1.0
 For citations please refer to: https://tddft.org/programs/libxc/

 This ORCA versions uses:
   CBLAS   interface :  Fast vector & matrix operations
   LAPACKE interface :  Fast linear algebra routines
   SCALAPACK package :  Parallel linear algebra routines
   Shared memory     :  Shared parallel matrices
   BLAS/LAPACK       :  OpenBLAS 0.3.15  USE64BITINT DYNAMIC_ARCH NO_AFFINITY Haswell SINGLE_THREADED
        Core in use  :  Haswell
   Copyright (c) 2011-2014, The OpenBLAS Project


Your calculation utilizes the atom-pairwise dispersion correction
with the Becke-Johnson damping scheme (D3BJ)
Cite in your paper:
S.Grimme, S.Ehrlich, L.Goerigk, J Comput Chem, (2011), 32, 1456–1465 
S.Grimme, J.Antony, S.Ehrlich and H.Krieg, J.Chem.Phys., 132, (2010), 154104 
   

================================================================================

----- Orbital basis set information -----
Your calculation utilizes the basis: def2-TZVP
   F. Weigend and R. Ahlrichs, Phys. Chem. Chem. Phys. 7, 3297 (2005).

----- AuxJ basis set information -----
Your calculation utilizes the auxiliary basis: def2/J
   F. Weigend, Phys. Chem. Chem. Phys. 8, 1057 (2006).

================================================================================
                                        WARNINGS
                       Please study these warnings very carefully!
================================================================================


WARNING: Geometry Optimization
  ===> : Switching off AutoStart
         For restart on a previous wavefunction, please use MOREAD

INFO   : the flag for use of the SHARK integral package has been found!

================================================================================
                                       INPUT FILE
================================================================================
NAME = 3_Me/3_Me.inp
|  1> %pal nprocs 24 end
|  2> ! PBE0 D3BJ def2-TZVP TightSCF OPT FREQ TightOpt
|  3> ! CPCM(dmso)
|  4> %scf
|  5> MaxIter 800
|  6> end
|  7> 
|  8> %geom
|  9> MaxIter 800
| 10> MaxStep 0.15
| 11> end
| 12> 
| 13> *xyz 0 1
| 14> C       4.12876800     -0.43483600     -0.74205100
| 15> C       3.97564300     -1.34217100      0.37433000
| 16> C       2.73455600     -1.48590500      0.90464000
| 17> N       1.64485600     -0.86439300      0.37973100
| 18> C       1.68510600      0.01098000     -0.77304800
| 19> C       3.07570300      0.20898700     -1.28662600
| 20> C       0.38946600     -0.75129800      1.06504800
| 21> C      -0.51599000     -1.94050800      0.77248600
| 22> O      -0.19469400     -2.90975700      0.13199600
| 23> O      -1.66951900     -1.82125600      1.41775600
| 24> C      -2.61430900     -2.86961800      1.24493400
| 25> H       5.12699100     -0.27237100     -1.15945400
| 26> H       2.53483600     -2.10500500      1.78338100
| 27> H       1.02127100     -0.36978600     -1.57337300
| 28> H       3.19955200      0.88068400     -2.13905800
| 29> H       0.55700800     -0.79630100      2.15343300
| 30> H      -2.18196100     -3.83505900      1.54304500
| 31> H      -2.93404600     -2.92629400      0.19426900
| 32> C       0.90034200      1.27832300     -0.27072300
| 33> C      -0.14589500      0.68855400      0.71953000
| 34> C      -1.58666800      0.84432100      0.29996600
| 35> C      -2.41670300      1.69979100      1.02373400
| 36> C      -3.75903700      1.88397800      0.68476200
| 37> C      -4.28654300      1.19374400     -0.40166700
| 38> C      -3.48178800      0.33119500     -1.14894100
| 39> C      -2.14036100      0.16164000     -0.80155100
| 40> O      -1.29131000     -0.64817700     -1.46530500
| 41> C      -1.76100200     -1.44424400     -2.52860400
| 42> N       1.91420400      2.06297900      0.53353100
| 43> O       2.15319100      1.69231700      1.66420600
| 44> H      -0.05016500      1.26813800      1.64296700
| 45> H      -1.99652800      2.23165000      1.88192500
| 46> H      -4.38485700      2.55997600      1.27126300
| 47> H      -5.33554900      1.32071100     -0.68098100
| 48> H      -3.90376800     -0.20478100     -1.99954100
| 49> H      -0.90852400     -2.05017800     -2.85806700
| 50> H      -2.11452400     -0.82226400     -3.36682100
| 51> H      -2.57477000     -2.11130000     -2.20114200
| 52> O       2.51308300      2.95585500     -0.02445600
| 53> H      -3.46898600     -2.62083500      1.88344700
| 54> C       0.37711300      2.14181900     -1.39233600
| 55> H       1.20279600      2.49035300     -2.02471000
| 56> H      -0.30877800      1.54941600     -2.00896500
| 57> H      -0.16396000      3.01471000     -1.00219200
| 58> H       4.82626900     -1.87135400      0.80195800
| 59> *
| 60> 
| 61>                          ****END OF INPUT****
================================================================================

                       *****************************
                       * Geometry Optimization Run *
                       *****************************

Geometry optimization settings:
Update method            Update   .... BFGS
Choice of coordinates    CoordSys .... Z-matrix Internals
Initial Hessian          InHess   .... Almoef's Model

Convergence Tolerances:
Energy Change            TolE     ....  1.0000e-06 Eh
Max. Gradient            TolMAXG  ....  1.0000e-04 Eh/bohr
RMS Gradient             TolRMSG  ....  3.0000e-05 Eh/bohr
Max. Displacement        TolMAXD  ....  1.0000e-03 bohr
RMS Displacement         TolRMSD  ....  6.0000e-04 bohr
Strict Convergence                ....  False
------------------------------------------------------------------------------
                        ORCA OPTIMIZATION COORDINATE SETUP
------------------------------------------------------------------------------

The optimization will be done in new redundant internal coordinates
Making redundant internal coordinates   ...  (new redundants) done
Evaluating the initial hessian          ...  (Almloef) done
Evaluating the coordinates              ...  done
Calculating the B-matrix                .... done
Calculating the G-matrix                .... done
Diagonalizing the G-matrix              .... done
Small eigenvalue found = 3.856e-03
Small eigenvalue found = 6.611e-03
Small eigenvalue found = 9.120e-03
Small eigenvalue found = 1.858e-02
Small eigenvalue found = 2.199e-02
Small eigenvalue found = 2.563e-02
The first mode is                       ....  123
The number of degrees of freedom        ....  129

    -----------------------------------------------------------------
                    Redundant Internal Coordinates


    -----------------------------------------------------------------
         Definition                    Initial Value    Approx d2E/dq
    -----------------------------------------------------------------
      1. B(C   1,C   0)                  1.4467         0.507270   
      2. B(C   2,C   1)                  1.3573         0.704620   
      3. B(N   3,C   2)                  1.3599         0.625090   
      4. B(C   4,N   3)                  1.4480         0.452156   
      5. B(C   5,C   4)                  1.4956         0.423944   
      6. B(C   5,C   0)                  1.3491         0.726147   
      7. B(C   6,N   3)                  1.4347         0.474799   
      8. B(C   7,C   6)                  1.5230         0.383244   
      9. B(O   8,C   7)                  1.2054         1.102683   
     10. B(O   9,C   7)                  1.3271         0.705035   
     11. B(C  10,O   9)                  1.4218         0.497870   
     12. B(H  11,C   0)                  1.0941         0.354708   
     13. B(H  12,C   2)                  1.0933         0.355729   
     14. B(H  13,C   4)                  1.1073         0.337889   
     15. B(H  14,C   5)                  1.0923         0.357048   
     16. B(H  15,C   6)                  1.1021         0.344413   
     17. B(H  16,C  10)                  1.0990         0.348348   
     18. B(H  17,C  10)                  1.0997         0.347494   
     19. B(C  18,C   4)                  1.5730         0.318982   
     20. B(C  19,C  18)                  1.5566         0.338782   
     21. B(C  19,C   6)                  1.5745         0.317191   
     22. B(C  20,C  19)                  1.5087         0.404006   
     23. B(C  21,C  20)                  1.3945         0.614555   
     24. B(C  22,C  21)                  1.3967         0.609673   
     25. B(C  23,C  22)                  1.3910         0.622396   
     26. B(C  24,C  23)                  1.3964         0.610192   
     27. B(C  25,C  24)                  1.3960         0.611144   
     28. B(C  25,C  20)                  1.4092         0.582151   
     29. B(O  26,C  25)                  1.3481         0.652817   
     30. B(C  27,O  26)                  1.4089         0.522103   
     31. B(N  28,C  18)                  1.5134         0.355610   
     32. B(O  29,N  28)                  1.2136         0.958027   
     33. B(H  30,C  19)                  1.0944         0.354263   
     34. B(H  31,C  21)                  1.0936         0.355398   
     35. B(H  32,C  22)                  1.0921         0.357378   
     36. B(H  33,C  23)                  1.0930         0.356212   
     37. B(H  34,C  24)                  1.0903         0.359641   
     38. B(H  35,C  27)                  1.0965         0.351539   
     39. B(H  36,C  27)                  1.1020         0.344547   
     40. B(H  37,C  27)                  1.1020         0.344565   
     41. B(O  38,N  28)                  1.2113         0.966332   
     42. B(H  39,C  10)                  1.0955         0.352930   
     43. B(C  40,C  18)                  1.5091         0.403374   
     44. B(H  41,C  40)                  1.0969         0.351125   
     45. B(H  42,C  40)                  1.0962         0.352012   
     46. B(H  43,C  40)                  1.0986         0.348908   
     47. B(H  44,C   1)                  1.0892         0.361094   
     48. A(C   1,C   0,C   5)          121.8823         0.430751   
     49. A(C   1,C   0,H  11)          118.9525         0.340331   
     50. A(C   5,C   0,H  11)          119.1639         0.361587   
     51. A(C   0,C   1,H  44)          121.6670         0.341348   
     52. A(C   2,C   1,H  44)          120.6132         0.360832   
     53. A(C   0,C   1,C   2)          117.6908         0.428432   
     54. A(C   1,C   2,H  12)          122.7540         0.359913   
     55. A(N   3,C   2,H  12)          115.0026         0.350498   
     56. A(C   1,C   2,N   3)          122.2432         0.441934   
     57. A(C   2,N   3,C   4)          124.1465         0.405590   
     58. A(C   2,N   3,C   6)          123.5600         0.409111   
     59. A(C   4,N   3,C   6)          110.9122         0.386485   
     60. A(N   3,C   4,H  13)          110.5392         0.329202   
     61. A(N   3,C   4,C  18)          102.6480         0.363129   
     62. A(N   3,C   4,C   5)          112.2880         0.381360   
     63. A(C   5,C   4,H  13)          110.7779         0.327689   
     64. A(C   5,C   4,C  18)          117.8313         0.361402   
     65. A(H  13,C   4,C  18)          102.0499         0.312805   
     66. A(C   0,C   5,H  14)          121.3305         0.361993   
     67. A(C   4,C   5,H  14)          117.0535         0.330687   
     68. A(C   0,C   5,C   4)          121.6003         0.417150   
     69. A(C   7,C   6,C  19)          118.0168         0.354911   
     70. A(N   3,C   6,C  19)          105.3536         0.365825   
     71. A(C   7,C   6,H  15)          104.3703         0.323310   
     72. A(N   3,C   6,H  15)          109.6014         0.332927   
     73. A(N   3,C   6,C   7)          111.5238         0.377935   
     74. A(H  15,C   6,C  19)          107.8023         0.313489   
     75. A(C   6,C   7,O   9)          110.6822         0.404982   
     76. A(C   6,C   7,O   8)          124.8523         0.438644   
     77. A(O   8,C   7,O   9)          124.2156         0.487068   
     78. A(C   7,O   9,C  10)          116.8865         0.421503   
     79. A(H  16,C  10,H  39)          110.3842         0.288419   
     80. A(H  16,C  10,H  17)          109.1631         0.287720   
     81. A(O   9,C  10,H  17)          110.3243         0.336058   
     82. A(H  17,C  10,H  39)          109.9829         0.288309   
     83. A(O   9,C  10,H  39)          106.2682         0.336927   
     84. A(O   9,C  10,H  16)          110.6916         0.336195   
     85. A(C  19,C  18,N  28)          107.9772         0.352187   
     86. A(C   4,C  18,N  28)          104.6673         0.348624   
     87. A(C   4,C  18,C  40)          113.3679         0.358353   
     88. A(C  19,C  18,C  40)          117.1659         0.362050   
     89. A(C   4,C  18,C  19)          103.4864         0.347922   
     90. A(N  28,C  18,C  40)          109.3035         0.362791   
     91. A(C  20,C  19,H  30)          105.2779         0.327643   
     92. A(C  18,C  19,H  30)          106.1006         0.318319   
     93. A(C   6,C  19,H  30)          105.6271         0.314927   
     94. A(C  18,C  19,C  20)          115.2036         0.362146   
     95. A(C   6,C  19,C  20)          118.6951         0.358105   
     96. A(C   6,C  19,C  18)          104.9241         0.347592   
     97. A(C  21,C  20,C  25)          117.9693         0.428503   
     98. A(C  19,C  20,C  25)          122.8589         0.397753   
     99. A(C  19,C  20,C  21)          119.1717         0.401561   
    100. A(C  22,C  21,H  31)          119.7090         0.351127   
    101. A(C  20,C  21,H  31)          118.4870         0.351600   
    102. A(C  20,C  21,C  22)          121.8030         0.432071   
    103. A(C  23,C  22,H  32)          120.6163         0.352686   
    104. A(C  21,C  22,H  32)          120.1360         0.351456   
    105. A(C  21,C  22,C  23)          119.2472         0.433057   
    106. A(C  24,C  23,H  33)          119.2168         0.351313   
    107. A(C  22,C  23,H  33)          120.3924         0.352491   
    108. A(C  22,C  23,C  24)          120.3908         0.433123   
    109. A(C  25,C  24,H  34)          120.4180         0.351975   
    110. A(C  23,C  24,H  34)          119.8717         0.351882   
    111. A(C  23,C  24,C  25)          119.7103         0.431705   
    112. A(C  24,C  25,O  26)          123.7549         0.434119   
    113. A(C  20,C  25,O  26)          115.3667         0.430344   
    114. A(C  20,C  25,C  24)          120.8776         0.428075   
    115. A(C  25,O  26,C  27)          120.0704         0.419295   
    116. A(O  26,C  27,H  36)          111.2286         0.338249   
    117. A(O  26,C  27,H  35)          106.2489         0.339385   
    118. A(H  36,C  27,H  37)          109.3154         0.286848   
    119. A(H  35,C  27,H  37)          109.2005         0.287750   
    120. A(O  26,C  27,H  37)          111.3424         0.338252   
    121. A(H  35,C  27,H  36)          109.4351         0.287747   
    122. A(C  18,N  28,O  29)          117.9473         0.416490   
    123. A(O  29,N  28,O  38)          123.8438         0.496195   
    124. A(C  18,N  28,O  38)          117.9429         0.417130   
    125. A(H  42,C  40,H  43)          108.7230         0.288374   
    126. A(H  41,C  40,H  43)          108.8454         0.288261   
    127. A(C  18,C  40,H  43)          111.1894         0.326737   
    128. A(H  41,C  40,H  42)          108.5675         0.288660   
    129. A(C  18,C  40,H  42)          109.0141         0.327214   
    130. A(C  18,C  40,H  41)          110.4452         0.327078   
    131. D(C   2,C   1,C   0,C   5)     -2.8554         0.017534   
    132. D(H  44,C   1,C   0,H  11)     -0.5065         0.017534   
    133. D(H  44,C   1,C   0,C   5)    179.0896         0.017534   
    134. D(C   2,C   1,C   0,H  11)    177.5485         0.017534   
    135. D(H  12,C   2,C   1,H  44)      1.6137         0.035007   
    136. D(N   3,C   2,C   1,H  44)   -178.5304         0.035007   
    137. D(H  12,C   2,C   1,C   0)   -176.4628         0.035007   
    138. D(N   3,C   2,C   1,C   0)      3.3931         0.035007   
    139. D(C   6,N   3,C   2,C   1)   -165.8603         0.031681   
    140. D(C   6,N   3,C   2,H  12)     14.0060         0.031681   
    141. D(C   4,N   3,C   2,C   1)     -0.5085         0.031681   
    142. D(C   4,N   3,C   2,H  12)    179.3577         0.031681   
    143. D(C   5,C   4,N   3,C   6)    164.2297         0.017443   
    144. D(C   5,C   4,N   3,C   2)     -2.7327         0.017443   
    145. D(H  13,C   4,N   3,C   2)    121.5298         0.017443   
    146. D(C  18,C   4,N   3,C   6)     36.7055         0.017443   
    147. D(C  18,C   4,N   3,C   2)   -130.2569         0.017443   
    148. D(H  13,C   4,N   3,C   6)    -71.5078         0.017443   
    149. D(H  14,C   5,C   4,H  13)     57.6169         0.013283   
    150. D(C   0,C   5,C   4,C  18)    122.1119         0.013283   
    151. D(H  14,C   5,C   4,N   3)   -178.2531         0.013283   
    152. D(H  14,C   5,C   0,H  11)      0.5226         0.037377   
    153. D(C   0,C   5,C   4,N   3)      3.1656         0.013283   
    154. D(C   0,C   5,C   4,H  13)   -120.9644         0.013283   
    155. D(H  14,C   5,C   4,C  18)    -59.3068         0.013283   
    156. D(C   4,C   5,C   0,H  11)    179.0435         0.037377   
    157. D(H  14,C   5,C   0,C   1)   -179.0726         0.037377   
    158. D(C   4,C   5,C   0,C   1)     -0.5518         0.037377   
    159. D(C   7,C   6,N   3,C   2)    -89.3244         0.019271   
    160. D(C   7,C   6,N   3,C   4)    103.6225         0.019271   
    161. D(H  15,C   6,N   3,C   2)     25.7410         0.019271   
    162. D(C  19,C   6,N   3,C   4)    -25.5695         0.019271   
    163. D(C  19,C   6,N   3,C   2)    141.4837         0.019271   
    164. D(H  15,C   6,N   3,C   4)   -141.3122         0.019271   
    165. D(O   9,C   7,C   6,C  19)    -58.0616         0.010949   
    166. D(O   9,C   7,C   6,N   3)    179.7804         0.010949   
    167. D(O   9,C   7,C   6,H  15)     61.5307         0.010949   
    168. D(O   8,C   7,C   6,C  19)    127.4902         0.010949   
    169. D(O   8,C   7,C   6,H  15)   -112.9174         0.010949   
    170. D(O   8,C   7,C   6,N   3)      5.3322         0.010949   
    171. D(C  10,O   9,C   7,O   8)     -5.0662         0.037276   
    172. D(C  10,O   9,C   7,C   6)   -179.5568         0.037276   
    173. D(H  39,C  10,O   9,C   7)    177.3352         0.019591   
    174. D(H  17,C  10,O   9,C   7)    -63.4743         0.019591   
    175. D(H  16,C  10,O   9,C   7)     57.4621         0.019591   
    176. D(C  40,C  18,C   4,H  13)    -45.3360         0.008347   
    177. D(C  40,C  18,C   4,C   5)     76.1899         0.008347   
    178. D(C  40,C  18,C   4,N   3)   -159.8917         0.008347   
    179. D(N  28,C  18,C   4,C   5)    -42.8441         0.008347   
    180. D(N  28,C  18,C   4,N   3)     81.0743         0.008347   
    181. D(C  19,C  18,C   4,H  13)     82.6224         0.008347   
    182. D(N  28,C  18,C   4,H  13)   -164.3700         0.008347   
    183. D(C  19,C  18,C   4,N   3)    -31.9333         0.008347   
    184. D(C  19,C  18,C   4,C   5)   -155.8516         0.008347   
    185. D(H  30,C  19,C   6,C   7)    126.1094         0.008264   
    186. D(C  20,C  19,C   6,H  15)   -109.3862         0.008264   
    187. D(C  20,C  19,C   6,C   7)      8.3972         0.008264   
    188. D(H  30,C  19,C   6,N   3)   -108.6459         0.008264   
    189. D(C  20,C  19,C   6,N   3)    133.6419         0.008264   
    190. D(C  18,C  19,C   6,H  15)    120.2006         0.008264   
    191. D(C  18,C  19,C   6,C   7)   -122.0161         0.008264   
    192. D(H  30,C  19,C   6,H  15)      8.3261         0.008264   
    193. D(C  18,C  19,C   6,N   3)      3.2287         0.008264   
    194. D(H  30,C  19,C  18,C  40)   -105.4555         0.009299   
    195. D(H  30,C  19,C  18,C   4)    128.9865         0.009299   
    196. D(C  20,C  19,C  18,C  40)     10.5823         0.009299   
    197. D(C  20,C  19,C  18,N  28)    134.4410         0.009299   
    198. D(C  20,C  19,C  18,C   4)   -114.9757         0.009299   
    199. D(C   6,C  19,C  18,C  40)    143.0081         0.009299   
    200. D(H  30,C  19,C  18,N  28)     18.4032         0.009299   
    201. D(C   6,C  19,C  18,N  28)    -93.1333         0.009299   
    202. D(C   6,C  19,C  18,C   4)     17.4500         0.009299   
    203. D(C  25,C  20,C  19,H  30)   -175.1657         0.012103   
    204. D(C  25,C  20,C  19,C  18)     68.3283         0.012103   
    205. D(C  25,C  20,C  19,C   6)    -57.2704         0.012103   
    206. D(C  21,C  20,C  19,H  30)      4.9516         0.012103   
    207. D(C  21,C  20,C  19,C  18)   -111.5544         0.012103   
    208. D(C  21,C  20,C  19,C   6)    122.8469         0.012103   
    209. D(H  31,C  21,C  20,C  25)    179.8267         0.026107   
    210. D(H  31,C  21,C  20,C  19)     -0.2849         0.026107   
    211. D(C  22,C  21,C  20,C  25)      0.1891         0.026107   
    212. D(C  22,C  21,C  20,C  19)   -179.9225         0.026107   
    213. D(H  32,C  22,C  21,H  31)      0.3016         0.025670   
    214. D(H  32,C  22,C  21,C  20)    179.9349         0.025670   
    215. D(C  23,C  22,C  21,H  31)   -179.4451         0.025670   
    216. D(C  23,C  22,C  21,C  20)      0.1882         0.025670   
    217. D(H  33,C  23,C  22,H  32)      0.0050         0.026818   
    218. D(H  33,C  23,C  22,C  21)    179.7505         0.026818   
    219. D(C  24,C  23,C  22,H  32)    179.9563         0.026818   
    220. D(C  24,C  23,C  22,C  21)     -0.2983         0.026818   
    221. D(H  34,C  24,C  23,H  33)      0.0182         0.025716   
    222. D(H  34,C  24,C  23,C  22)   -179.9336         0.025716   
    223. D(C  25,C  24,C  23,H  33)    179.9788         0.025716   
    224. D(C  25,C  24,C  23,C  22)      0.0270         0.025716   
    225. D(O  26,C  25,C  24,H  34)     -0.0020         0.025801   
    226. D(O  26,C  25,C  24,C  23)   -179.9624         0.025801   
    227. D(C  20,C  25,C  24,H  34)   -179.6771         0.025801   
    228. D(C  20,C  25,C  24,C  23)      0.3625         0.025801   
    229. D(O  26,C  25,C  20,C  21)    179.8340         0.023292   
    230. D(O  26,C  25,C  20,C  19)     -0.0500         0.023292   
    231. D(C  24,C  25,C  20,C  21)     -0.4650         0.023292   
    232. D(C  24,C  25,C  20,C  19)    179.6510         0.023292   
    233. D(C  27,O  26,C  25,C  24)     -3.8050         0.031518   
    234. D(C  27,O  26,C  25,C  20)    175.8864         0.031518   
    235. D(H  37,C  27,O  26,C  25)    -57.7492         0.021619   
    236. D(H  36,C  27,O  26,C  25)     64.4426         0.021619   
    237. D(H  35,C  27,O  26,C  25)   -176.5432         0.021619   
    238. D(O  38,N  28,C  18,C  40)    -26.2714         0.010895   
    239. D(O  38,N  28,C  18,C  19)   -154.7519         0.010895   
    240. D(O  38,N  28,C  18,C   4)     95.4705         0.010895   
    241. D(O  29,N  28,C  18,C  40)    159.4221         0.010895   
    242. D(O  29,N  28,C  18,C  19)     30.9416         0.010895   
    243. D(O  29,N  28,C  18,C   4)    -78.8361         0.010895   
    244. D(H  43,C  40,C  18,N  28)    -63.6765         0.012902   
    245. D(H  43,C  40,C  18,C  19)     59.5068         0.012902   
    246. D(H  43,C  40,C  18,C   4)    179.9897         0.012902   
    247. D(H  42,C  40,C  18,N  28)    176.4738         0.012902   
    248. D(H  42,C  40,C  18,C  19)    -60.3430         0.012902   
    249. D(H  42,C  40,C  18,C   4)     60.1400         0.012902   
    250. D(H  41,C  40,C  18,N  28)     57.2707         0.012902   
    251. D(H  41,C  40,C  18,C  19)   -179.5460         0.012902   
    252. D(H  41,C  40,C  18,C   4)    -59.0631         0.012902   
    -----------------------------------------------------------------

Number of atoms                         .... 45
Number of degrees of freedom            .... 252

         *************************************************************
         *                GEOMETRY OPTIMIZATION CYCLE   1            *
         *************************************************************
---------------------------------
CARTESIAN COORDINATES (ANGSTROEM)
---------------------------------
  C      4.128768   -0.434836   -0.742051
  C      3.975643   -1.342171    0.374330
  C      2.734556   -1.485905    0.904640
  N      1.644856   -0.864393    0.379731
  C      1.685106    0.010980   -0.773048
  C      3.075703    0.208987   -1.286626
  C      0.389466   -0.751298    1.065048
  C     -0.515990   -1.940508    0.772486
  O     -0.194694   -2.909757    0.131996
  O     -1.669519   -1.821256    1.417756
  C     -2.614309   -2.869618    1.244934
  H      5.126991   -0.272371   -1.159454
  H      2.534836   -2.105005    1.783381
  H      1.021271   -0.369786   -1.573373
  H      3.199552    0.880684   -2.139058
  H      0.557008   -0.796301    2.153433
  H     -2.181961   -3.835059    1.543045
  H     -2.934046   -2.926294    0.194269
  C      0.900342    1.278323   -0.270723
  C     -0.145895    0.688554    0.719530
  C     -1.586668    0.844321    0.299966
  C     -2.416703    1.699791    1.023734
  C     -3.759037    1.883978    0.684762
  C     -4.286543    1.193744   -0.401667
  C     -3.481788    0.331195   -1.148941
  C     -2.140361    0.161640   -0.801551
  O     -1.291310   -0.648177   -1.465305
  C     -1.761002   -1.444244   -2.528604
  N      1.914204    2.062979    0.533531
  O      2.153191    1.692317    1.664206
  H     -0.050165    1.268138    1.642967
  H     -1.996528    2.231650    1.881925
  H     -4.384857    2.559976    1.271263
  H     -5.335549    1.320711   -0.680981
  H     -3.903768   -0.204781   -1.999541
  H     -0.908524   -2.050178   -2.858067
  H     -2.114524   -0.822264   -3.366821
  H     -2.574770   -2.111300   -2.201142
  O      2.513083    2.955855   -0.024456
  H     -3.468986   -2.620835    1.883447
  C      0.377113    2.141819   -1.392336
  H      1.202796    2.490353   -2.024710
  H     -0.308778    1.549416   -2.008965
  H     -0.163960    3.014710   -1.002192
  H      4.826269   -1.871354    0.801958

----------------------------
CARTESIAN COORDINATES (A.U.)
----------------------------
  NO LB      ZA    FRAG     MASS         X           Y           Z
   0 C     6.0000    0    12.011    7.802241   -0.821721   -1.402273
   1 C     6.0000    0    12.011    7.512876   -2.536336    0.707381
   2 C     6.0000    0    12.011    5.167562   -2.807954    1.709522
   3 N     7.0000    0    14.007    3.108327   -1.633466    0.717588
   4 C     6.0000    0    12.011    3.184389    0.020749   -1.460849
   5 C     6.0000    0    12.011    5.812236    0.394928   -2.431371
   6 C     6.0000    0    12.011    0.735984   -1.419747    2.012649
   7 C     6.0000    0    12.011   -0.975080   -3.667029    1.459787
   8 O     8.0000    0    15.999   -0.367918   -5.498644    0.249436
   9 O     8.0000    0    15.999   -3.154934   -3.441675    2.679171
  10 C     6.0000    0    12.011   -4.940328   -5.422792    2.352584
  11 H     1.0000    0     1.008    9.688609   -0.514707   -2.191051
  12 H     1.0000    0     1.008    4.790146   -3.977883    3.370102
  13 H     1.0000    0     1.008    1.929922   -0.698794   -2.973244
  14 H     1.0000    0     1.008    6.046277    1.664252   -4.042234
  15 H     1.0000    0     1.008    1.052593   -1.504791    4.069399
  16 H     1.0000    0     1.008   -4.123309   -7.247211    2.915932
  17 H     1.0000    0     1.008   -5.544543   -5.529894    0.367115
  18 C     6.0000    0    12.011    1.701400    2.415680   -0.511592
  19 C     6.0000    0    12.011   -0.275702    1.301178    1.359715
  20 C     6.0000    0    12.011   -2.998368    1.595535    0.566854
  21 C     6.0000    0    12.011   -4.566907    3.212139    1.934577
  22 C     6.0000    0    12.011   -7.103550    3.560202    1.294013
  23 C     6.0000    0    12.011   -8.100392    2.255849   -0.759041
  24 C     6.0000    0    12.011   -6.579626    0.625868   -2.171184
  25 C     6.0000    0    12.011   -4.044696    0.305455   -1.514712
  26 O     8.0000    0    15.999   -2.440222   -1.224877   -2.769025
  27 C     6.0000    0    12.011   -3.327812   -2.729226   -4.778369
  28 N     7.0000    0    14.007    3.617321    3.898465    1.008227
  29 O     8.0000    0    15.999    4.068941    3.198016    3.144894
  30 H     1.0000    0     1.008   -0.094798    2.396434    3.104758
  31 H     1.0000    0     1.008   -3.772891    4.217207    3.556323
  32 H     1.0000    0     1.008   -8.286179    4.837654    2.402339
  33 H     1.0000    0     1.008  -10.082726    2.495782   -1.286868
  34 H     1.0000    0     1.008   -7.377052   -0.386980   -3.778585
  35 H     1.0000    0     1.008   -1.716862   -3.874275   -5.400964
  36 H     1.0000    0     1.008   -3.995871   -1.553854   -6.362370
  37 H     1.0000    0     1.008   -4.865610   -3.989779   -4.159556
  38 O     8.0000    0    15.999    4.749039    5.585756   -0.046215
  39 H     1.0000    0     1.008   -6.555434   -4.952660    3.559199
  40 C     6.0000    0    12.011    0.712640    4.047451   -2.631134
  41 H     1.0000    0     1.008    2.272955    4.706085   -3.826147
  42 H     1.0000    0     1.008   -0.583506    2.927972   -3.796394
  43 H     1.0000    0     1.008   -0.309839    5.696976   -1.893868
  44 H     1.0000    0     1.008    9.120327   -3.536347    1.515481

--------------------------------
INTERNAL COORDINATES (ANGSTROEM)
--------------------------------
 C      0   0   0     0.000000000000     0.00000000     0.00000000
 C      1   0   0     1.446724094294     0.00000000     0.00000000
 C      2   1   0     1.357271196344   117.69083613     0.00000000
 N      3   2   1     1.359872315486   122.24321017     3.39308610
 C      4   3   2     1.448032242207   124.14647952   359.49145847
 C      1   2   3     1.349079641896   121.88230887   357.14455030
 C      4   3   2     1.434731306417   123.55995598   194.13972830
 C      7   4   3     1.523044160844   111.52382888   270.67564378
 O      8   7   4     1.205363921692   124.85229404     5.33223937
 O      8   7   4     1.327110984901   110.68218459   179.78035945
 C     10   8   7     1.421815202770   116.88653503   180.44323340
 H      1   2   3     1.094106621113   118.95254287   177.54847972
 H      3   2   1     1.093324578285   122.75404930   183.53723752
 H      5   4   3     1.107330013865   110.53915878   121.52979400
 H      6   1   2     1.092316689076   121.33054631   180.92736241
 H      7   4   3     1.102124085572   109.60135143    25.74096108
 H     11  10   8     1.099031976744   110.69163010    57.46212941
 H     11  10   8     1.099700350264   110.32426104   296.52569851
 C      5   4   3     1.573004520327   102.64802770   229.74311228
 C     19   5   4     1.556611813375   103.48637927   328.06672090
 C     20  19   5     1.508682917619   115.20362793   245.02428232
 C     21  20  19     1.394498884886   119.17168299   248.44564063
 C     22  21  20     1.396670124012   121.80296002   180.07750001
 C     23  22  21     1.391047636436   119.24715503     0.18821566
 C     24  23  22     1.396438261615   120.39080025   359.70169833
 C     25  24  23     1.396014006539   119.71026855     0.02703037
 O     26  25  24     1.348058064998   123.75494053   180.03763127
 C     27  26  25     1.408878279609   120.07039868   356.19502391
 N     19   5   4     1.513415240407   104.66726577    81.07430346
 O     29  19   5     1.213643712149   117.94727057   281.16394130
 H     20  19   5     1.094448600403   106.10060569   128.98649768
 H     22  21  20     1.093577989440   118.48703584   359.71514410
 H     23  22  21     1.092065653432   120.13604913   179.93490014
 H     24  23  22     1.092954947709   120.39236286   179.75048572
 H     25  24  23     1.090347537703   119.87167493   180.06643766
 H     28  27  26     1.096549415762   106.24886030   183.45683893
 H     28  27  26     1.102018449924   111.22858576    64.44262356
 H     28  27  26     1.102004276945   111.34244255   302.25083366
 O     29  19   5     1.211293977607   117.94291657    95.47049299
 H     11  10   8     1.095474603351   106.26821573   177.33516432
 C     19   5   4     1.509108892766   113.36789333   200.10828375
 H     41  19   5     1.096870658519   110.44524438   300.93692964
 H     41  19   5     1.096183881441   109.01409964    60.14000743
 H     41  19   5     1.098595025451   111.18944298   179.98973118
 H      2   1   3     1.089249716892   121.66704391   181.94501514

---------------------------
INTERNAL COORDINATES (A.U.)
---------------------------
 C      0   0   0     0.000000000000     0.00000000     0.00000000
 C      1   0   0     2.733912329561     0.00000000     0.00000000
 C      2   1   0     2.564870850550   117.69083613     0.00000000
 N      3   2   1     2.569786253370   122.24321017     3.39308610
 C      4   3   2     2.736384370858   124.14647952   359.49145847
 C      1   2   3     2.549391056033   121.88230887   357.14455030
 C      4   3   2     2.711249244892   123.55995598   194.13972830
 C      7   4   3     2.878136353862   111.52382888   270.67564378
 O      8   7   4     2.277807703707   124.85229404     5.33223937
 O      8   7   4     2.507876310781   110.68218459   179.78035945
 C     10   8   7     2.686841346281   116.88653503   180.44323340
 H      1   2   3     2.067561875213   118.95254287   177.54847972
 H      3   2   1     2.066084028443   122.75404930   183.53723752
 H      5   4   3     2.092550466076   110.53915878   121.52979400
 H      6   1   2     2.064179393865   121.33054631   180.92736241
 H      7   4   3     2.082712687330   109.60135143    25.74096108
 H     11  10   8     2.076869448468   110.69163010    57.46212941
 H     11  10   8     2.078132491376   110.32426104   296.52569851
 C      5   4   3     2.972547750839   102.64802770   229.74311228
 C     19   5   4     2.941570024106   103.48637927   328.06672090
 C     20  19   5     2.850997537224   115.20362793   245.02428232
 C     21  20  19     2.635220986494   119.17168299   248.44564063
 C     22  21  20     2.639324033813   121.80296002   180.07750001
 C     23  22  21     2.628699072102   119.24715503     0.18821566
 C     24  23  22     2.638885877381   120.39080025   359.70169833
 C     25  24  23     2.638084151477   119.71026855     0.02703037
 O     26  25  24     2.547460555470   123.75494053   180.03763127
 C     27  26  25     2.662394104491   120.07039868   356.19502391
 N     19   5   4     2.859940331272   104.66726577    81.07430346
 O     29  19   5     2.293454240117   117.94727057   281.16394130
 H     20  19   5     2.068208122416   106.10060569   128.98649768
 H     22  21  20     2.066562906125   118.48703584   359.71514410
 H     23  22  21     2.063705005247   120.13604913   179.93490014
 H     24  23  22     2.065385527884   120.39236286   179.75048572
 H     25  24  23     2.060458237055   119.87167493   180.06643766
 H     28  27  26     2.072178088102   106.24886030   183.45683893
 H     28  27  26     2.082513064885   111.22858576    64.44262356
 H     28  27  26     2.082486281835   111.34244255   302.25083366
 O     29  19   5     2.289013885345   117.94291657    95.47049299
 H     11  10   8     2.070146986999   106.26821573   177.33516432
 C     19   5   4     2.851802513593   113.36789333   200.10828375
 H     41  19   5     2.072785148936   110.44524438   300.93692964
 H     41  19   5     2.071487328342   109.01409964    60.14000743
 H     41  19   5     2.076043730191   111.18944298   179.98973118
 H      2   1   3     2.058383656377   121.66704391   181.94501514

---------------------
BASIS SET INFORMATION
---------------------
There are 4 groups of distinct atoms

 Group   1 Type C   : 11s6p2d1f contracted to 5s3p2d1f pattern {62111/411/11/1}
 Group   2 Type N   : 11s6p2d1f contracted to 5s3p2d1f pattern {62111/411/11/1}
 Group   3 Type O   : 11s6p2d1f contracted to 5s3p2d1f pattern {62111/411/11/1}
 Group   4 Type H   : 5s1p contracted to 3s1p pattern {311/1}

Atom   0C    basis set group =>   1
Atom   1C    basis set group =>   1
Atom   2C    basis set group =>   1
Atom   3N    basis set group =>   2
Atom   4C    basis set group =>   1
Atom   5C    basis set group =>   1
Atom   6C    basis set group =>   1
Atom   7C    basis set group =>   1
Atom   8O    basis set group =>   3
Atom   9O    basis set group =>   3
Atom  10C    basis set group =>   1
Atom  11H    basis set group =>   4
Atom  12H    basis set group =>   4
Atom  13H    basis set group =>   4
Atom  14H    basis set group =>   4
Atom  15H    basis set group =>   4
Atom  16H    basis set group =>   4
Atom  17H    basis set group =>   4
Atom  18C    basis set group =>   1
Atom  19C    basis set group =>   1
Atom  20C    basis set group =>   1
Atom  21C    basis set group =>   1
Atom  22C    basis set group =>   1
Atom  23C    basis set group =>   1
Atom  24C    basis set group =>   1
Atom  25C    basis set group =>   1
Atom  26O    basis set group =>   3
Atom  27C    basis set group =>   1
Atom  28N    basis set group =>   2
Atom  29O    basis set group =>   3
Atom  30H    basis set group =>   4
Atom  31H    basis set group =>   4
Atom  32H    basis set group =>   4
Atom  33H    basis set group =>   4
Atom  34H    basis set group =>   4
Atom  35H    basis set group =>   4
Atom  36H    basis set group =>   4
Atom  37H    basis set group =>   4
Atom  38O    basis set group =>   3
Atom  39H    basis set group =>   4
Atom  40C    basis set group =>   1
Atom  41H    basis set group =>   4
Atom  42H    basis set group =>   4
Atom  43H    basis set group =>   4
Atom  44H    basis set group =>   4
---------------------------------
AUXILIARY/J BASIS SET INFORMATION
---------------------------------
There are 4 groups of distinct atoms

 Group   1 Type C   : 12s5p4d2f1g contracted to 6s4p3d1f1g pattern {711111/2111/211/2/1}
 Group   2 Type N   : 12s5p4d2f1g contracted to 6s4p3d1f1g pattern {711111/2111/211/2/1}
 Group   3 Type O   : 12s5p4d2f1g contracted to 6s4p3d1f1g pattern {711111/2111/211/2/1}
 Group   4 Type H   : 5s2p1d contracted to 3s1p1d pattern {311/2/1}

Atom   0C    basis set group =>   1
Atom   1C    basis set group =>   1
Atom   2C    basis set group =>   1
Atom   3N    basis set group =>   2
Atom   4C    basis set group =>   1
Atom   5C    basis set group =>   1
Atom   6C    basis set group =>   1
Atom   7C    basis set group =>   1
Atom   8O    basis set group =>   3
Atom   9O    basis set group =>   3
Atom  10C    basis set group =>   1
Atom  11H    basis set group =>   4
Atom  12H    basis set group =>   4
Atom  13H    basis set group =>   4
Atom  14H    basis set group =>   4
Atom  15H    basis set group =>   4
Atom  16H    basis set group =>   4
Atom  17H    basis set group =>   4
Atom  18C    basis set group =>   1
Atom  19C    basis set group =>   1
Atom  20C    basis set group =>   1
Atom  21C    basis set group =>   1
Atom  22C    basis set group =>   1
Atom  23C    basis set group =>   1
Atom  24C    basis set group =>   1
Atom  25C    basis set group =>   1
Atom  26O    basis set group =>   3
Atom  27C    basis set group =>   1
Atom  28N    basis set group =>   2
Atom  29O    basis set group =>   3
Atom  30H    basis set group =>   4
Atom  31H    basis set group =>   4
Atom  32H    basis set group =>   4
Atom  33H    basis set group =>   4
Atom  34H    basis set group =>   4
Atom  35H    basis set group =>   4
Atom  36H    basis set group =>   4
Atom  37H    basis set group =>   4
Atom  38O    basis set group =>   3
Atom  39H    basis set group =>   4
Atom  40C    basis set group =>   1
Atom  41H    basis set group =>   4
Atom  42H    basis set group =>   4
Atom  43H    basis set group =>   4
Atom  44H    basis set group =>   4


           ************************************************************
           *        Program running with 24 parallel MPI-processes    *
           *              working on a common directory               *
           ************************************************************
------------------------------------------------------------------------------
                           ORCA GTO INTEGRAL CALCULATION
                           -- RI-GTO INTEGRALS CHOSEN --
------------------------------------------------------------------------------
------------------------------------------------------------------------------
                   ___                                                        
                  /   \      - P O W E R E D   B Y -                         
                 /     \                                                     
                 |  |  |   _    _      __       _____    __    __             
                 |  |  |  | |  | |    /  \     |  _  \  |  |  /  |          
                  \  \/   | |  | |   /    \    | | | |  |  | /  /          
                 / \  \   | |__| |  /  /\  \   | |_| |  |  |/  /          
                |  |  |   |  __  | /  /__\  \  |    /   |      \           
                |  |  |   | |  | | |   __   |  |    \   |  |\   \          
                \     /   | |  | | |  |  |  |  | |\  \  |  | \   \       
                 \___/    |_|  |_| |__|  |__|  |_| \__\ |__|  \__/        
                                                                              
                      - O R C A' S   B I G   F R I E N D -                    
                                      &                                       
                       - I N T E G R A L  F E E D E R -                       
                                                                              
 v1 FN, 2020, v2 2021                                                         
------------------------------------------------------------------------------


Reading SHARK input file 3_Me/3_Me.SHARKINP.tmp ... ok
----------------------
SHARK INTEGRAL PACKAGE
----------------------

Number of atoms                             ...     45
Number of basis functions                   ...    895
Number of shells                            ...    355
Maximum angular momentum                    ...      3
Integral batch strategy                     ... SHARK/LIBINT Hybrid
RI-J (if used) integral strategy            ... SPLIT-RIJ (Revised 2003 algorithm where possible)
Printlevel                                  ...      1
Contraction scheme used                     ... SEGMENTED contraction
Coulomb Range Separation                    ... NOT USED
Exchange Range Separation                   ... NOT USED
Finite Nucleus Model                        ... NOT USED
Auxiliary Coulomb fitting basis             ... AVAILABLE
   # of basis functions in Aux-J            ...   1445
   # of shells in Aux-J                     ...    475
   Maximum angular momentum in Aux-J        ...      4
Auxiliary J/K fitting basis                 ... NOT available
Auxiliary Correlation fitting basis         ... NOT available
Auxiliary 'external' fitting basis          ... NOT available
Integral threshold                          ...     2.500000e-11
Primitive cut-off                           ...     2.500000e-12
Primitive pair pre-selection threshold      ...     2.500000e-12

Calculating pre-screening integrals         ... done (  0.1 sec) Dimension = 355
Organizing shell pair data                  ... done (  0.6 sec)
Shell pair information
Total number of shell pairs                 ...     63190
Shell pairs after pre-screening             ...     47534
Total number of primitive shell pairs       ...    193120
Primitive shell pairs kept                  ...     95756
          la=0 lb=0:  12392 shell pairs
          la=1 lb=0:  13673 shell pairs
          la=1 lb=1:   3783 shell pairs
          la=2 lb=0:   6781 shell pairs
          la=2 lb=1:   3792 shell pairs
          la=2 lb=2:    979 shell pairs
          la=3 lb=0:   3168 shell pairs
          la=3 lb=1:   1823 shell pairs
          la=3 lb=2:    910 shell pairs
          la=3 lb=3:    233 shell pairs

Calculating one electron integrals          ... done (  0.1 sec)
Calculating RI/J V-Matrix + Cholesky decomp.... done (  0.2 sec)
Calculating Nuclear repulsion               ... done (  0.0 sec) ENN=   2453.111514029514 Eh

SHARK setup successfully completed in   1.8 seconds

Maximum memory used throughout the entire GTOINT-calculation: 70.7 MB


           ************************************************************
           *        Program running with 24 parallel MPI-processes    *
           *              working on a common directory               *
           ************************************************************
-------------------------------------------------------------------------------
                                 ORCA SCF
-------------------------------------------------------------------------------

------------
SCF SETTINGS
------------
Hamiltonian:
 Density Functional     Method          .... DFT(GTOs)
 Exchange Functional    Exchange        .... PBE
   PBE kappa parameter   XKappa         ....  0.804000
   PBE mue parameter    XMuePBE         ....  0.219520
 Correlation Functional Correlation     .... PBE
   PBE beta parameter  CBetaPBE         ....  0.066725
 LDA part of GGA corr.  LDAOpt          .... PW91-LDA
 Gradients option       PostSCFGGA      .... off
 Hybrid DFT is turned on
   Fraction HF Exchange ScalHFX         ....  0.250000
   Scaling of DF-GGA-X  ScalDFX         ....  0.750000
   Scaling of DF-GGA-C  ScalDFC         ....  1.000000
   Scaling of DF-LDA-C  ScalLDAC        ....  1.000000
   Perturbative correction              ....  0.000000
   Density functional embedding theory  .... OFF
   NL short-range parameter             ....  6.900000
 RI-approximation to the Coulomb term is turned on
   Number of AuxJ basis functions       .... 1445
   RIJ-COSX (HFX calculated with COS-X)).... on


General Settings:
 Integral files         IntName         .... 3_Me/3_Me
 Hartree-Fock type      HFTyp           .... RHF
 Total Charge           Charge          ....    0
 Multiplicity           Mult            ....    1
 Number of Electrons    NEL             ....  182
 Basis Dimension        Dim             ....  895
 Nuclear Repulsion      ENuc            ....   2453.1115140295 Eh

Convergence Acceleration:
 DIIS                   CNVDIIS         .... on
   Start iteration      DIISMaxIt       ....    12
   Startup error        DIISStart       ....  0.200000
   # of expansion vecs  DIISMaxEq       ....     5
   Bias factor          DIISBfac        ....   1.050
   Max. coefficient     DIISMaxC        ....  10.000
 Trust-Rad. Augm. Hess. CNVTRAH         .... auto
   Auto Start mean grad. ratio tolernc. ....  1.125000
   Auto Start start iteration           ....    20
   Auto Start num. interpolation iter.  ....    10
   Max. Number of Micro iterations      ....    16
   Max. Number of Macro iterations      .... Maxiter - #DIIS iter
   Number of Davidson start vectors     ....     2
   Converg. threshold I  (grad. norm)   ....   1.000e-05
   Converg. threshold II (energy diff.) ....   1.000e-08
   Grad. Scal. Fac. for Micro threshold ....   0.100
   Minimum threshold for Micro iter.    ....   0.010
   NR start threshold (gradient norm)   ....   0.001
   Initial trust radius                 ....   0.400
   Minimum AH scaling param. (alpha)    ....   1.000
   Maximum AH scaling param. (alpha)    .... 1000.000
   Orbital update algorithm             .... Taylor
   White noise on init. David. guess    .... on
   Maximum white noise                  ....   0.010
   Quad. conv. algorithm                .... NR
 SOSCF                  CNVSOSCF        .... on
   Start iteration      SOSCFMaxIt      ....   150
   Startup grad/error   SOSCFStart      ....  0.003300
 Level Shifting         CNVShift        .... on
   Level shift para.    LevelShift      ....    0.2500
   Turn off err/grad.   ShiftErr        ....    0.0010
 Zerner damping         CNVZerner       .... off
 Static damping         CNVDamp         .... on
   Fraction old density DampFac         ....    0.7000
   Max. Damping (<1)    DampMax         ....    0.9800
   Min. Damping (>=0)   DampMin         ....    0.0000
   Turn off err/grad.   DampErr         ....    0.1000
 Fernandez-Rico         CNVRico         .... off

SCF Procedure:
 Maximum # iterations   MaxIter         ....   800
 SCF integral mode      SCFMode         .... Direct
   Integral package                     .... SHARK and LIBINT hybrid scheme
 Reset frequency        DirectResetFreq ....    20
 Integral Threshold     Thresh          ....  2.500e-11 Eh
 Primitive CutOff       TCut            ....  2.500e-12 Eh

Convergence Tolerance:
 Convergence Check Mode ConvCheckMode   .... Total+1el-Energy
 Convergence forced     ConvForced      .... 0
 Energy Change          TolE            ....  1.000e-08 Eh
 1-El. energy change                    ....  1.000e-05 Eh
 Orbital Gradient       TolG            ....  1.000e-05
 Orbital Rotation angle TolX            ....  1.000e-05
 DIIS Error             TolErr          ....  5.000e-07


Diagonalization of the overlap matrix:
Smallest eigenvalue                        ... 5.706e-06
Time for diagonalization                   ...    0.257 sec
Threshold for overlap eigenvalues          ... 1.000e-08
Number of eigenvalues below threshold      ... 0
Time for construction of square roots      ...    0.137 sec
Total time needed                          ...    0.400 sec

Time for model grid setup =    0.408 sec

------------------------------
INITIAL GUESS: MODEL POTENTIAL
------------------------------
Loading Hartree-Fock densities                     ... done
Calculating cut-offs                               ... done
Initializing the effective Hamiltonian             ... done
Setting up the integral package (SHARK)            ... done
Starting the Coulomb interaction                   ... done (   0.5 sec)
Reading the grid                                   ... done
Mapping shells                                     ... done
Starting the XC term evaluation                    ... done (   0.3 sec)
  promolecular density results
     # of electrons  =    181.983734710
     EX              =   -151.900458425
     EC              =     -6.176445141
     EX+EC           =   -158.076903566
Transforming the Hamiltonian                       ... done (   0.1 sec)
Diagonalizing the Hamiltonian                      ... done (   0.3 sec)
Back transforming the eigenvectors                 ... done (   0.0 sec)
Now organizing SCF variables                       ... done
                      ------------------
                      INITIAL GUESS DONE (   1.8 sec)
                      ------------------
-------------------
DFT GRID GENERATION
-------------------

General Integration Accuracy     IntAcc      ... 4.388
Radial Grid Type                 RadialGrid  ... OptM3 with GC (2021)
Angular Grid (max. ang.)         AngularGrid ... 4 (Lebedev-302)
Angular grid pruning method      GridPruning ... 4 (adaptive)
Weight generation scheme         WeightScheme... Becke
Basis function cutoff            BFCut       ... 1.0000e-11
Integration weight cutoff        WCut        ... 1.0000e-14
Angular grids for H and He will be reduced by one unit
Partially contracted basis set               ... off
Rotationally invariant grid construction     ... off

Total number of grid points                  ...   211946
Total number of batches                      ...     3335
Average number of points per batch           ...       63
Average number of grid points per atom       ...     4710
Time for grid setup =    1.466 sec

--------------------
COSX GRID GENERATION
--------------------

GRIDX 1
-------
General Integration Accuracy     IntAcc      ... 3.816
Radial Grid Type                 RadialGrid  ... OptM3 with GC (2021)
Angular Grid (max. ang.)         AngularGrid ... 1 (Lebedev-50)
Angular grid pruning method      GridPruning ... 4 (adaptive)
Weight generation scheme         WeightScheme... Becke
Basis function cutoff            BFCut       ... 1.0000e-11
Integration weight cutoff        WCut        ... 1.0000e-14
Angular grids for H and He will be reduced by one unit
Partially contracted basis set               ... on
Rotationally invariant grid construction     ... off

Total number of grid points                  ...    26854
Total number of batches                      ...      444
Average number of points per batch           ...       60
Average number of grid points per atom       ...      597
UseSFitting                                  ... on

GRIDX 2
-------
General Integration Accuracy     IntAcc      ... 4.020
Radial Grid Type                 RadialGrid  ... OptM3 with GC (2021)
Angular Grid (max. ang.)         AngularGrid ... 2 (Lebedev-110)
Angular grid pruning method      GridPruning ... 4 (adaptive)
Weight generation scheme         WeightScheme... Becke
Basis function cutoff            BFCut       ... 1.0000e-11
Integration weight cutoff        WCut        ... 1.0000e-14
Angular grids for H and He will be reduced by one unit
Partially contracted basis set               ... on
Rotationally invariant grid construction     ... off

Total number of grid points                  ...    57873
Total number of batches                      ...      931
Average number of points per batch           ...       62
Average number of grid points per atom       ...     1286
UseSFitting                                  ... on

GRIDX 3
-------
General Integration Accuracy     IntAcc      ... 4.338
Radial Grid Type                 RadialGrid  ... OptM3 with GC (2021)
Angular Grid (max. ang.)         AngularGrid ... 3 (Lebedev-194)
Angular grid pruning method      GridPruning ... 4 (adaptive)
Weight generation scheme         WeightScheme... Becke
Basis function cutoff            BFCut       ... 1.0000e-11
Integration weight cutoff        WCut        ... 1.0000e-14
Angular grids for H and He will be reduced by one unit
Partially contracted basis set               ... on
Rotationally invariant grid construction     ... off

Total number of grid points                  ...   126185
Total number of batches                      ...     1993
Average number of points per batch           ...       63
Average number of grid points per atom       ...     2804
UseSFitting                                  ... on

Time for X-Grid setup             =    2.740 sec


--------------------
CPCM SOLVATION MODEL
--------------------
CPCM parameters:
  Epsilon                                         ...      47.2000
  Refrac                                          ...       1.4790
  Rsolv                                           ...       1.3000
  Surface type                                    ... GAUSSIAN VDW
  Epsilon function type                           ...         CPCM
Radii:
 Radius for C  used is    3.8550 Bohr (=   2.0400 Ang.)
 Radius for N  used is    3.5149 Bohr (=   1.8600 Ang.)
 Radius for O  used is    3.4469 Bohr (=   1.8240 Ang.)
 Radius for H  used is    2.4944 Bohr (=   1.3200 Ang.)
Calculating surface                               ...        done! (  0.0s)
GEPOL surface points                              ...         2231
GEPOL Volume                                      ...    2621.5767
GEPOL Surface-area                                ...    1263.4340
Calculating surface distance matrix               ...        done! (  0.1s)
Performing Cholesky decomposition & store         ...        done! (  0.4s)
Overall time for CPCM initialization              ...                 0.5s
--------------
SCF ITERATIONS
--------------
ITER       Energy         Delta-E        Max-DP      RMS-DP      [F,P]     Damp
               ***  Starting incremental Fock matrix formation  ***
  0  -1182.0078197777   0.000000000000 0.14719689  0.00071296  0.2654308 0.7000
  1  -1182.2672277593  -0.259407981572 0.12297213  0.00056904  0.1074315 0.7000
                               ***Turning on DIIS***
  2  -1182.3714072897  -0.104179530396 0.15165689  0.00100537  0.0353156 0.0000
  3  -1182.5414948145  -0.170087524845 0.11615768  0.00043601  0.0533263 0.0000
  4  -1182.5732555282  -0.031760713674 0.02311928  0.00015375  0.0148621 0.0000
  5  -1182.5753017254  -0.002046197225 0.00741420  0.00005292  0.0064197 0.0000
                      *** Initiating the SOSCF procedure ***
                           *** Shutting down DIIS ***
                      *** Re-Reading the Fockian *** 
                      *** Removing any level shift *** 
ITER      Energy       Delta-E        Grad      Rot      Max-DP    RMS-DP
  6  -1182.57548029  -0.0001785630  0.000228  0.000228  0.002784  0.000030
               *** Restarting incremental Fock matrix formation ***
  7  -1182.57548747  -0.0000071831  0.000233  0.000915  0.002536  0.000023
  8  -1182.57547987   0.0000075996  0.000418  0.000619  0.000656  0.000007
  9  -1182.57549269  -0.0000128191  0.000086  0.000290  0.000305  0.000003
 10  -1182.57549225   0.0000004425  0.000188  0.000217  0.000206  0.000002
 11  -1182.57549284  -0.0000005950  0.000017  0.000047  0.001092  0.000004
 12  -1182.57549281   0.0000000339  0.000023  0.000031  0.000064  0.000001
                  ***Gradient check signals convergence***
              ***Rediagonalizing the Fockian in SOSCF/NRSCF***

               *****************************************************
               *                     SUCCESS                       *
               *           SCF CONVERGED AFTER  13 CYCLES          *
               *****************************************************

Old exchange energy                            =    -38.700164892 Eh
New exchange energy                            =    -38.700197758 Eh
Exchange energy change after final integration =     -0.000032866 Eh
Total energy after final integration           =  -1182.575525730 Eh
Final COS-X integration done in                =    19.321 sec

----------------
TOTAL SCF ENERGY
----------------

Total Energy       :        -1182.57552573 Eh          -32179.51603 eV

Components:
Nuclear Repulsion  :         2453.11151403 Eh           66752.55793 eV
Electronic Energy  :        -3635.68703976 Eh          -98932.07396 eV
One Electron Energy:        -6490.73510531 Eh         -176621.88150 eV
Two Electron Energy:         2855.04806555 Eh           77689.80754 eV
Max COSX asymmetry :            0.00000177 Eh               0.00005 eV
CPCM Dielectric    :           -0.02971430 Eh              -0.80857 eV

Virial components:
Potential Energy   :        -2359.52791097 Eh          -64206.01863 eV
Kinetic Energy     :         1176.95238524 Eh           32026.50260 eV
Virial Ratio       :            2.00477771


DFT components:
N(Alpha)           :       91.000059046908 electrons
N(Beta)            :       91.000059046908 electrons
N(Total)           :      182.000118093816 electrons
E(X)               :     -115.883929226242 Eh       
E(C)               :       -6.163656633360 Eh       
E(XC)              :     -122.047585859602 Eh       
DFET-embed. en.    :        0.000000000000 Eh       
CPCM Solvation Model Properties:
Surface-charge          :           -0.03206840
Charge-correction       :           -0.00011599 Eh              -0.00316 eV
Free-energy (cav+disp)  :  This term is not implemented in the current solvation scheme

---------------
SCF CONVERGENCE
---------------

  Last Energy change         ...   -5.4492e-08  Tolerance :   1.0000e-08
  Last MAX-Density change    ...    1.4433e-15  Tolerance :   1.0000e-07
  Last RMS-Density change    ...    1.2545e-17  Tolerance :   5.0000e-09
  Last Orbital Gradient      ...    1.4883e-06  Tolerance :   1.0000e-05
  Last Orbital Rotation      ...    4.9568e-06  Tolerance :   1.0000e-05

             **** THE GBW FILE WAS UPDATED (3_Me/3_Me.gbw) ****
             **** DENSITY 3_Me/3_Me.scfp WAS UPDATED ****
             **** ENERGY FILE WAS UPDATED (3_Me/3_Me.en.tmp) ****
             **** THE GBW FILE WAS UPDATED (3_Me/3_Me.gbw) ****
             **** DENSITY 3_Me/3_Me.scfp WAS UPDATED ****
----------------
ORBITAL ENERGIES
----------------

  NO   OCC          E(Eh)            E(eV) 
   0   2.0000     -19.261687      -524.1372 
   1   2.0000     -19.249992      -523.8189 
   2   2.0000     -19.246202      -523.7158 
   3   2.0000     -19.246086      -523.7126 
   4   2.0000     -19.200063      -522.4603 
   5   2.0000     -14.617425      -397.7603 
   6   2.0000     -14.421176      -392.4201 
   7   2.0000     -10.357094      -281.8309 
   8   2.0000     -10.300374      -280.2874 
   9   2.0000     -10.293632      -280.1040 
  10   2.0000     -10.286351      -279.9058 
  11   2.0000     -10.283333      -279.8237 
  12   2.0000     -10.271995      -279.5152 
  13   2.0000     -10.270748      -279.4813 
  14   2.0000     -10.265635      -279.3421 
  15   2.0000     -10.262485      -279.2564 
  16   2.0000     -10.242997      -278.7261 
  17   2.0000     -10.233428      -278.4657 
  18   2.0000     -10.233101      -278.4568 
  19   2.0000     -10.231232      -278.4060 
  20   2.0000     -10.229588      -278.3612 
  21   2.0000     -10.224881      -278.2332 
  22   2.0000     -10.224152      -278.2133 
  23   2.0000     -10.221891      -278.1518 
  24   2.0000     -10.207743      -277.7668 
  25   2.0000      -1.278567       -34.7916 
  26   2.0000      -1.152388       -31.3581 
  27   2.0000      -1.114800       -30.3352 
  28   2.0000      -1.099109       -29.9083 
  29   2.0000      -1.059271       -28.8242 
  30   2.0000      -1.014197       -27.5977 
  31   2.0000      -0.899041       -24.4642 
  32   2.0000      -0.877993       -23.8914 
  33   2.0000      -0.850346       -23.1391 
  34   2.0000      -0.808005       -21.9869 
  35   2.0000      -0.786710       -21.4075 
  36   2.0000      -0.781575       -21.2677 
  37   2.0000      -0.776343       -21.1254 
  38   2.0000      -0.745829       -20.2950 
  39   2.0000      -0.725503       -19.7419 
  40   2.0000      -0.720252       -19.5990 
  41   2.0000      -0.699253       -19.0276 
  42   2.0000      -0.663448       -18.0533 
  43   2.0000      -0.644539       -17.5388 
  44   2.0000      -0.629665       -17.1340 
  45   2.0000      -0.614723       -16.7275 
  46   2.0000      -0.596946       -16.2437 
  47   2.0000      -0.591908       -16.1066 
  48   2.0000      -0.570148       -15.5145 
  49   2.0000      -0.567312       -15.4374 
  50   2.0000      -0.554536       -15.0897 
  51   2.0000      -0.546038       -14.8585 
  52   2.0000      -0.542507       -14.7624 
  53   2.0000      -0.532938       -14.5020 
  54   2.0000      -0.516918       -14.0661 
  55   2.0000      -0.513406       -13.9705 
  56   2.0000      -0.502044       -13.6613 
  57   2.0000      -0.501072       -13.6349 
  58   2.0000      -0.490478       -13.3466 
  59   2.0000      -0.484147       -13.1743 
  60   2.0000      -0.482146       -13.1199 
  61   2.0000      -0.465815       -12.6755 
  62   2.0000      -0.461589       -12.5605 
  63   2.0000      -0.455746       -12.4015 
  64   2.0000      -0.442928       -12.0527 
  65   2.0000      -0.439212       -11.9516 
  66   2.0000      -0.436469       -11.8769 
  67   2.0000      -0.426821       -11.6144 
  68   2.0000      -0.422200       -11.4886 
  69   2.0000      -0.413463       -11.2509 
  70   2.0000      -0.408738       -11.1223 
  71   2.0000      -0.398026       -10.8308 
  72   2.0000      -0.395121       -10.7518 
  73   2.0000      -0.383636       -10.4393 
  74   2.0000      -0.377143       -10.2626 
  75   2.0000      -0.372972       -10.1491 
  76   2.0000      -0.370554       -10.0833 
  77   2.0000      -0.363604        -9.8942 
  78   2.0000      -0.357487        -9.7277 
  79   2.0000      -0.354021        -9.6334 
  80   2.0000      -0.343622        -9.3504 
  81   2.0000      -0.340657        -9.2697 
  82   2.0000      -0.338853        -9.2206 
  83   2.0000      -0.327687        -8.9168 
  84   2.0000      -0.326732        -8.8908 
  85   2.0000      -0.318620        -8.6701 
  86   2.0000      -0.306530        -8.3411 
  87   2.0000      -0.294203        -8.0057 
  88   2.0000      -0.270486        -7.3603 
  89   2.0000      -0.240640        -6.5481 
  90   2.0000      -0.195449        -5.3184 
  91   0.0000      -0.067396        -1.8339 
  92   0.0000      -0.026535        -0.7220 
  93   0.0000      -0.016259        -0.4424 
  94   0.0000      -0.002267        -0.0617 
  95   0.0000       0.007113         0.1936 
  96   0.0000       0.044142         1.2012 
  97   0.0000       0.052573         1.4306 
  98   0.0000       0.062858         1.7104 
  99   0.0000       0.066130         1.7995 
 100   0.0000       0.074217         2.0195 
 101   0.0000       0.081853         2.2273 
 102   0.0000       0.086203         2.3457 
 103   0.0000       0.089671         2.4401 
 104   0.0000       0.094654         2.5757 
 105   0.0000       0.096240         2.6188 
 106   0.0000       0.104245         2.8367 
 107   0.0000       0.108222         2.9449 
 108   0.0000       0.114405         3.1131 
 109   0.0000       0.117058         3.1853 
 110   0.0000       0.119480         3.2512 
 111   0.0000       0.127401         3.4667 
 112   0.0000       0.129685         3.5289 
 113   0.0000       0.134811         3.6684 
 114   0.0000       0.138144         3.7591 
 115   0.0000       0.140406         3.8206 
 116   0.0000       0.144986         3.9453 
 117   0.0000       0.147479         4.0131 
 118   0.0000       0.150666         4.0998 
 119   0.0000       0.156461         4.2575 
 120   0.0000       0.160704         4.3730 
 121   0.0000       0.169562         4.6140 
 122   0.0000       0.172927         4.7056 
 123   0.0000       0.177325         4.8253 
 124   0.0000       0.185396         5.0449 
 125   0.0000       0.187074         5.0905 
 126   0.0000       0.197169         5.3652 
 127   0.0000       0.202880         5.5206 
 128   0.0000       0.206143         5.6094 
 129   0.0000       0.211521         5.7558 
 130   0.0000       0.213482         5.8091 
 131   0.0000       0.220019         5.9870 
 132   0.0000       0.224159         6.0997 
 133   0.0000       0.228737         6.2242 
 134   0.0000       0.234881         6.3914 
 135   0.0000       0.236089         6.4243 
 136   0.0000       0.238166         6.4808 
 137   0.0000       0.242381         6.5955 
 138   0.0000       0.248032         6.7493 
 139   0.0000       0.249867         6.7992 
 140   0.0000       0.254242         6.9183 
 141   0.0000       0.263299         7.1647 
 142   0.0000       0.264593         7.1999 
 143   0.0000       0.269635         7.3371 
 144   0.0000       0.276870         7.5340 
 145   0.0000       0.281255         7.6533 
 146   0.0000       0.285862         7.7787 
 147   0.0000       0.290232         7.8976 
 148   0.0000       0.297029         8.0826 
 149   0.0000       0.297743         8.1020 
 150   0.0000       0.305203         8.3050 
 151   0.0000       0.309248         8.4151 
 152   0.0000       0.313196         8.5225 
 153   0.0000       0.318241         8.6598 
 154   0.0000       0.322205         8.7676 
 155   0.0000       0.326165         8.8754 
 156   0.0000       0.327594         8.9143 
 157   0.0000       0.331144         9.0109 
 158   0.0000       0.339777         9.2458 
 159   0.0000       0.341274         9.2866 
 160   0.0000       0.344563         9.3760 
 161   0.0000       0.348023         9.4702 
 162   0.0000       0.351973         9.5777 
 163   0.0000       0.357098         9.7171 
 164   0.0000       0.359853         9.7921 
 165   0.0000       0.364395         9.9157 
 166   0.0000       0.367580        10.0024 
 167   0.0000       0.372331        10.1316 
 168   0.0000       0.377249        10.2655 
 169   0.0000       0.382144        10.3987 
 170   0.0000       0.385634        10.4936 
 171   0.0000       0.387508        10.5446 
 172   0.0000       0.391074        10.6417 
 173   0.0000       0.399457        10.8698 
 174   0.0000       0.405043        11.0218 
 175   0.0000       0.407259        11.0821 
 176   0.0000       0.410230        11.1629 
 177   0.0000       0.413574        11.2539 
 178   0.0000       0.415652        11.3105 
 179   0.0000       0.417360        11.3569 
 180   0.0000       0.421477        11.4690 
 181   0.0000       0.428913        11.6713 
 182   0.0000       0.433161        11.7869 
 183   0.0000       0.434884        11.8338 
 184   0.0000       0.440201        11.9785 
 185   0.0000       0.441275        12.0077 
 186   0.0000       0.445943        12.1347 
 187   0.0000       0.447224        12.1696 
 188   0.0000       0.454737        12.3740 
 189   0.0000       0.459771        12.5110 
 190   0.0000       0.461953        12.5704 
 191   0.0000       0.464894        12.6504 
 192   0.0000       0.470659        12.8073 
 193   0.0000       0.471450        12.8288 
 194   0.0000       0.477072        12.9818 
 195   0.0000       0.478657        13.0249 
 196   0.0000       0.482506        13.1297 
 197   0.0000       0.489615        13.3231 
 198   0.0000       0.493160        13.4196 
 199   0.0000       0.493664        13.4333 
 200   0.0000       0.499205        13.5840 
 201   0.0000       0.502980        13.6868 
 202   0.0000       0.507816        13.8184 
 203   0.0000       0.513908        13.9841 
 204   0.0000       0.520051        14.1513 
 205   0.0000       0.521530        14.1915 
 206   0.0000       0.522400        14.2152 
 207   0.0000       0.529463        14.4074 
 208   0.0000       0.530048        14.4233 
 209   0.0000       0.534734        14.5509 
 210   0.0000       0.542775        14.7697 
 211   0.0000       0.544352        14.8126 
 212   0.0000       0.546846        14.8804 
 213   0.0000       0.556078        15.1316 
 214   0.0000       0.556819        15.1518 
 215   0.0000       0.562482        15.3059 
 216   0.0000       0.566579        15.4174 
 217   0.0000       0.570271        15.5179 
 218   0.0000       0.574410        15.6305 
 219   0.0000       0.585376        15.9289 
 220   0.0000       0.591464        16.0946 
 221   0.0000       0.594459        16.1761 
 222   0.0000       0.601470        16.3668 
 223   0.0000       0.607263        16.5245 
 224   0.0000       0.622092        16.9280 
 225   0.0000       0.624945        17.0056 
 226   0.0000       0.632362        17.2074 
 227   0.0000       0.638627        17.3779 
 228   0.0000       0.644051        17.5255 
 229   0.0000       0.653882        17.7930 
 230   0.0000       0.657316        17.8865 
 231   0.0000       0.660919        17.9845 
 232   0.0000       0.665232        18.1019 
 233   0.0000       0.670760        18.2523 
 234   0.0000       0.679961        18.5027 
 235   0.0000       0.690679        18.7943 
 236   0.0000       0.695116        18.9151 
 237   0.0000       0.700064        19.0497 
 238   0.0000       0.703943        19.1553 
 239   0.0000       0.706138        19.2150 
 240   0.0000       0.713596        19.4179 
 241   0.0000       0.718158        19.5421 
 242   0.0000       0.725816        19.7505 
 243   0.0000       0.732332        19.9278 
 244   0.0000       0.742790        20.2123 
 245   0.0000       0.744600        20.2616 
 246   0.0000       0.751656        20.4536 
 247   0.0000       0.754376        20.5276 
 248   0.0000       0.758516        20.6403 
 249   0.0000       0.770221        20.9588 
 250   0.0000       0.776223        21.1221 
 251   0.0000       0.780233        21.2312 
 252   0.0000       0.785165        21.3654 
 253   0.0000       0.791527        21.5385 
 254   0.0000       0.799826        21.7644 
 255   0.0000       0.805234        21.9115 
 256   0.0000       0.811807        22.0904 
 257   0.0000       0.822185        22.3728 
 258   0.0000       0.825722        22.4690 
 259   0.0000       0.836234        22.7551 
 260   0.0000       0.842573        22.9276 
 261   0.0000       0.847866        23.0716 
[...]
 28:    325.26   0.000051    0.26  0.000049  ( 0.005969  0.000098  0.003607)
 29:    348.14   0.000071    0.36  0.000063  ( 0.007652 -0.001682  0.001403)
 30:    370.39   0.003173   16.04  0.002673  (-0.043903 -0.026681  0.005844)
 31:    385.13   0.002467   12.47  0.001999  ( 0.003760  0.033593  0.029262)
 32:    421.58   0.008940   45.18  0.006618  ( 0.006773 -0.076794 -0.025978)
 33:    447.68   0.001714    8.66  0.001194  (-0.023858 -0.001227 -0.024975)
 34:    486.59   0.000077    0.39  0.000049  ( 0.003464  0.006063  0.000754)
 35:    491.62   0.001219    6.16  0.000774  (-0.002365 -0.023882  0.014069)
 36:    543.98   0.000869    4.39  0.000499  (-0.013895  0.007614  0.015737)
 37:    548.12   0.005837   29.50  0.003323  (-0.023017  0.028290 -0.044644)
 38:    559.76   0.003063   15.48  0.001708  (-0.038637  0.002252 -0.014485)
 39:    576.63   0.004377   22.12  0.002369  ( 0.034577 -0.005610 -0.033791)
 40:    584.91   0.002427   12.27  0.001295  (-0.001060 -0.004887 -0.035637)
 41:    609.07   0.001345    6.80  0.000689  (-0.024237 -0.000264  0.010094)
 42:    641.24   0.002476   12.51  0.001205  ( 0.021195  0.027308  0.003179)
 43:    644.28   0.001552    7.84  0.000752  (-0.002547 -0.026543  0.006366)
 44:    660.07   0.006662   33.67  0.003150  (-0.017624 -0.052402 -0.009656)
 45:    703.91   0.016984   85.83  0.007530  (-0.001299  0.064748  0.057753)
 46:    711.15   0.001754    8.86  0.000769  ( 0.005745  0.021733 -0.016254)
 47:    749.80   0.000893    4.52  0.000372  (-0.011649 -0.000447  0.015360)
 48:    751.88   0.001168    5.90  0.000485  ( 0.000851  0.006974  0.020865)
 49:    766.84   0.020070  101.43  0.008167  ( 0.022002  0.063755 -0.060155)
 50:    779.12   0.005046   25.50  0.002021  (-0.009088 -0.040348  0.017624)
 51:    797.17   0.000983    4.97  0.000385  ( 0.018839  0.004997  0.002212)
 52:    830.05   0.002828   14.29  0.001063  (-0.022625 -0.008573  0.021863)
 53:    847.87   0.026220  132.51  0.009650  ( 0.041506 -0.085685 -0.024205)
 54:    855.98   0.000842    4.25  0.000307  ( 0.002321 -0.012501 -0.012048)
 55:    874.63   0.000540    2.73  0.000193  ( 0.009102  0.009527 -0.004371)
 56:    881.24   0.002170   10.96  0.000768  ( 0.017254  0.015237  0.015443)
 57:    910.78   0.014946   75.53  0.005121  ( 0.034771  0.057551  0.024492)
 58:    925.76   0.003199   16.17  0.001078  (-0.017212 -0.018881  0.020629)
 59:    943.63   0.001698    8.58  0.000562  (-0.021744  0.005893  0.007359)
 60:    950.74   0.004039   20.41  0.001326  (-0.023651 -0.023139 -0.015199)
 61:    961.56   0.001259    6.36  0.000409  (-0.014783  0.001810 -0.013666)
 62:    989.54   0.000008    0.04  0.000002  ( 0.001402 -0.000545 -0.000422)
 63:    995.05   0.000766    3.87  0.000240  (-0.010479  0.008925 -0.007131)
 64:   1006.71   0.004824   24.38  0.001495  (-0.017232  0.028357 -0.019857)
 65:   1018.90   0.002938   14.85  0.000900  ( 0.020992  0.021425  0.000082)
 66:   1027.79   0.001413    7.14  0.000429  ( 0.001084 -0.020426 -0.003271)
 67:   1040.07   0.014850   75.05  0.004456  (-0.048400 -0.040810  0.021161)
 68:   1069.45   0.009950   50.28  0.002903  (-0.032233 -0.019116 -0.038716)
 69:   1074.32   0.003387   17.11  0.000984  (-0.008009 -0.020698 -0.022162)
 70:   1086.93   0.004725   23.88  0.001357  ( 0.010021 -0.023919 -0.026156)
 71:   1100.85   0.006829   34.51  0.001936  (-0.001004 -0.036229 -0.024947)
 72:   1146.49   0.010086   50.97  0.002745  (-0.004203 -0.022440 -0.047160)
 73:   1153.97   0.007210   36.44  0.001950  ( 0.019725  0.038918 -0.006793)
 74:   1162.79   0.001865    9.42  0.000500  ( 0.010895  0.015634  0.011720)
 75:   1170.64   0.000325    1.64  0.000087  ( 0.002500  0.005961 -0.006703)
 76:   1171.42   0.000099    0.50  0.000026  (-0.001781  0.001330 -0.004632)
 77:   1173.65   0.000742    3.75  0.000197  (-0.004622 -0.007705 -0.010796)
 78:   1195.26   0.005192   26.24  0.001356  (-0.036813  0.000611  0.000010)
 79:   1205.47   0.001726    8.72  0.000447  (-0.001455  0.009371  0.018892)
 80:   1207.11   0.005052   25.53  0.001306  (-0.030226 -0.019047  0.005454)
 81:   1239.34   0.042692  215.75  0.010750  ( 0.088216  0.035755 -0.041099)
 82:   1243.08   0.007026   35.51  0.001764  ( 0.011629  0.039043 -0.010212)
 83:   1245.27   0.019779   99.96  0.004957  ( 0.045986  0.052019 -0.011661)
 84:   1255.25   0.018396   92.97  0.004573  (-0.066025 -0.004687  0.013864)
 85:   1265.37   0.054190  273.85  0.013364  ( 0.103727  0.037333 -0.034801)
 86:   1277.71   0.008177   41.32  0.001997  ( 0.043664  0.002417  0.009203)
 87:   1306.19   0.070139  354.45  0.016757  ( 0.060787 -0.081718 -0.079900)
 88:   1317.48   0.008032   40.59  0.001902  (-0.025735 -0.001536  0.035182)
 89:   1330.49   0.009861   49.83  0.002313  (-0.039440  0.025385  0.010626)
 90:   1349.09   0.020100  101.58  0.004649  ( 0.066302  0.015253 -0.004555)
 91:   1356.42   0.012478   63.06  0.002871  (-0.019585 -0.046096 -0.019031)
 92:   1370.17   0.013646   68.96  0.003108  ( 0.052712 -0.002727 -0.017944)
 93:   1390.64   0.005206   26.31  0.001168  (-0.020607  0.003683 -0.027018)
 94:   1396.01   0.004172   21.08  0.000933  (-0.021839 -0.010842  0.018388)
 95:   1402.14   0.006789   34.31  0.001511  (-0.009017 -0.037804 -0.000719)
 96:   1432.45   0.012580   63.57  0.002741  ( 0.016994 -0.041367 -0.027214)
 97:   1442.47   0.033691  170.26  0.007289  (-0.058691 -0.045843 -0.041742)
 98:   1464.43   0.002823   14.26  0.000601  ( 0.002831 -0.022954 -0.008158)
 99:   1464.92   0.003610   18.24  0.000769  (-0.002286 -0.018055  0.020923)
100:   1466.97   0.002536   12.81  0.000539  (-0.019402 -0.005294  0.011618)
101:   1468.60   0.009267   46.83  0.001969  (-0.042556 -0.012517  0.001203)
102:   1472.00   0.003156   15.95  0.000669  (-0.009512 -0.015368  0.018504)
103:   1473.62   0.007581   38.31  0.001605  (-0.006318  0.028982  0.026936)
104:   1474.26   0.004550   23.00  0.000963  ( 0.006995  0.013480  0.027066)
105:   1481.95   0.004310   21.78  0.000907  ( 0.020951 -0.016260 -0.014288)
106:   1498.51   0.009784   49.45  0.002038  ( 0.015386 -0.032368 -0.027444)
107:   1501.13   0.031525  159.31  0.006554  ( 0.072524 -0.030475  0.019108)
108:   1541.91   0.031616  159.77  0.006399  ( 0.041796 -0.055840 -0.039163)
109:   1618.85   0.019793  100.03  0.003816  (-0.043431  0.032649 -0.029382)
110:   1629.66   0.141468  714.92  0.027090  ( 0.066237  0.096208 -0.115959)
111:   1651.50   0.010283   51.97  0.001943  (-0.008985  0.017578  0.039413)
112:   1664.47   0.010893   55.05  0.002042  (-0.033759  0.026273  0.014570)
113:   1707.01   0.034476  174.23  0.006303  (-0.076649  0.020679  0.000191)
114:   1791.18   0.106141  536.39  0.018492  (-0.066277  0.098336  0.066554)
115:   2995.08   0.007795   39.39  0.000812  ( 0.016838 -0.003899  0.022659)
116:   3040.35   0.011832   59.80  0.001214  (-0.011045 -0.018846 -0.027154)
117:   3070.48   0.008394   42.42  0.000853  ( 0.022730  0.015820 -0.009283)
118:   3071.81   0.002123   10.73  0.000216  ( 0.006772  0.011579  0.005980)
119:   3083.32   0.002451   12.39  0.000248  (-0.004853  0.011269 -0.009877)
120:   3113.16   0.007027   35.51  0.000704  ( 0.006524  0.019249 -0.017067)
121:   3145.76   0.000279    1.41  0.000028  ( 0.004138 -0.002879 -0.001509)
122:   3154.56   0.004147   20.96  0.000410  ( 0.007205 -0.009334  0.016469)
123:   3163.56   0.002378   12.02  0.000235  ( 0.010806 -0.005419 -0.009402)
124:   3168.24   0.003397   17.17  0.000335  (-0.014762  0.009561  0.005030)
125:   3179.64   0.000685    3.46  0.000067  ( 0.006996  0.003818  0.001935)
126:   3184.32   0.003090   15.62  0.000303  (-0.015155 -0.003440  0.007830)
127:   3185.58   0.001139    5.76  0.000112  (-0.006075 -0.003935 -0.007695)
128:   3188.31   0.002306   11.65  0.000226  ( 0.010890 -0.005529 -0.008749)
129:   3196.63   0.001743    8.81  0.000170  (-0.010734 -0.001723 -0.007209)
130:   3207.27   0.000247    1.25  0.000024  ( 0.002458 -0.003872  0.001725)
131:   3210.58   0.001269    6.41  0.000123  (-0.006580 -0.003137  0.008380)
132:   3214.46   0.003228   16.31  0.000313  (-0.011743  0.010422  0.008175)
133:   3231.64   0.000351    1.78  0.000034  ( 0.003151  0.002512  0.004204)
134:   3245.48   0.000854    4.31  0.000082  (-0.002930  0.006235 -0.005884)

* The epsilon (eps) is given for a Dirac delta lineshape.
** The dipole moment derivative (T) already includes vibrational overlap.

The first frequency considered to be a vibration is 6
The total number of vibrations considered is 129


--------------------------
THERMOCHEMISTRY AT 298.15K
--------------------------

Temperature         ... 298.15 K
Pressure            ... 1.00 atm
Total Mass          ... 344.37 AMU

Throughout the following assumptions are being made:
  (1) The electronic state is orbitally nondegenerate
  (2) There are no thermally accessible electronically excited states
  (3) Hindered rotations indicated by low frequency modes are not
      treated as such but are treated as vibrations and this may
      cause some error
  (4) All equations used are the standard statistical mechanics
      equations for an ideal gas
  (5) All vibrations are strictly harmonic

freq.      19.71  E(vib)   ...       0.56 
freq.      45.37  E(vib)   ...       0.53 
freq.      57.14  E(vib)   ...       0.51 
freq.      65.81  E(vib)   ...       0.50 
freq.      74.55  E(vib)   ...       0.49 
freq.      80.18  E(vib)   ...       0.49 
freq.      99.81  E(vib)   ...       0.46 
freq.     101.63  E(vib)   ...       0.46 
freq.     115.85  E(vib)   ...       0.44 
freq.     119.64  E(vib)   ...       0.44 
freq.     145.12  E(vib)   ...       0.41 
freq.     154.39  E(vib)   ...       0.40 
freq.     183.52  E(vib)   ...       0.37 
freq.     193.85  E(vib)   ...       0.36 
freq.     205.71  E(vib)   ...       0.35 
freq.     222.19  E(vib)   ...       0.33 
freq.     234.10  E(vib)   ...       0.32 
freq.     246.87  E(vib)   ...       0.31 
freq.     252.88  E(vib)   ...       0.30 
freq.     285.84  E(vib)   ...       0.27 
freq.     289.25  E(vib)   ...       0.27 
freq.     301.94  E(vib)   ...       0.26 
freq.     325.26  E(vib)   ...       0.24 
freq.     348.14  E(vib)   ...       0.23 
freq.     370.39  E(vib)   ...       0.21 
freq.     385.13  E(vib)   ...       0.20 
freq.     421.58  E(vib)   ...       0.18 
freq.     447.68  E(vib)   ...       0.17 
freq.     486.59  E(vib)   ...       0.15 
freq.     491.62  E(vib)   ...       0.14 
freq.     543.98  E(vib)   ...       0.12 
freq.     548.12  E(vib)   ...       0.12 
freq.     559.76  E(vib)   ...       0.12 
freq.     576.63  E(vib)   ...       0.11 
freq.     584.91  E(vib)   ...       0.11 
freq.     609.07  E(vib)   ...       0.10 
freq.     641.24  E(vib)   ...       0.09 
freq.     644.28  E(vib)   ...       0.09 
freq.     660.07  E(vib)   ...       0.08 
freq.     703.91  E(vib)   ...       0.07 
freq.     711.15  E(vib)   ...       0.07 
freq.     749.80  E(vib)   ...       0.06 
freq.     751.88  E(vib)   ...       0.06 
freq.     766.84  E(vib)   ...       0.06 
freq.     779.12  E(vib)   ...       0.05 
freq.     797.17  E(vib)   ...       0.05 
freq.     830.05  E(vib)   ...       0.04 
freq.     847.87  E(vib)   ...       0.04 
freq.     855.98  E(vib)   ...       0.04 
freq.     874.63  E(vib)   ...       0.04 
freq.     881.24  E(vib)   ...       0.04 
freq.     910.78  E(vib)   ...       0.03 
freq.     925.76  E(vib)   ...       0.03 
freq.     943.63  E(vib)   ...       0.03 
freq.     950.74  E(vib)   ...       0.03 
freq.     961.56  E(vib)   ...       0.03 
freq.     989.54  E(vib)   ...       0.02 
freq.     995.05  E(vib)   ...       0.02 
freq.    1006.71  E(vib)   ...       0.02 
freq.    1018.90  E(vib)   ...       0.02 
freq.    1027.79  E(vib)   ...       0.02 
freq.    1040.07  E(vib)   ...       0.02 
freq.    1069.45  E(vib)   ...       0.02 
freq.    1074.32  E(vib)   ...       0.02 
freq.    1086.93  E(vib)   ...       0.02 
freq.    1100.85  E(vib)   ...       0.02 
freq.    1146.49  E(vib)   ...       0.01 
freq.    1153.97  E(vib)   ...       0.01 
freq.    1162.79  E(vib)   ...       0.01 
freq.    1170.64  E(vib)   ...       0.01 
freq.    1171.42  E(vib)   ...       0.01 
freq.    1173.65  E(vib)   ...       0.01 
freq.    1195.26  E(vib)   ...       0.01 
freq.    1205.47  E(vib)   ...       0.01 
freq.    1207.11  E(vib)   ...       0.01 
freq.    1239.34  E(vib)   ...       0.01 
freq.    1243.08  E(vib)   ...       0.01 
freq.    1245.27  E(vib)   ...       0.01 
freq.    1255.25  E(vib)   ...       0.01 
freq.    1265.37  E(vib)   ...       0.01 
freq.    1277.71  E(vib)   ...       0.01 
freq.    1306.19  E(vib)   ...       0.01 
freq.    1317.48  E(vib)   ...       0.01 
freq.    1330.49  E(vib)   ...       0.01 
freq.    1349.09  E(vib)   ...       0.01 
freq.    1356.42  E(vib)   ...       0.01 
freq.    1370.17  E(vib)   ...       0.01 
freq.    1390.64  E(vib)   ...       0.00 
freq.    1396.01  E(vib)   ...       0.00 
freq.    1402.14  E(vib)   ...       0.00 
freq.    1432.45  E(vib)   ...       0.00 
freq.    1442.47  E(vib)   ...       0.00 
freq.    1464.43  E(vib)   ...       0.00 
freq.    1464.92  E(vib)   ...       0.00 
freq.    1466.97  E(vib)   ...       0.00 
freq.    1468.60  E(vib)   ...       0.00 
freq.    1472.00  E(vib)   ...       0.00 
freq.    1473.62  E(vib)   ...       0.00 
freq.    1474.26  E(vib)   ...       0.00 
freq.    1481.95  E(vib)   ...       0.00 
freq.    1498.51  E(vib)   ...       0.00 
freq.    1501.13  E(vib)   ...       0.00 
freq.    1541.91  E(vib)   ...       0.00 
freq.    1618.85  E(vib)   ...       0.00 
freq.    1629.66  E(vib)   ...       0.00 
freq.    1651.50  E(vib)   ...       0.00 
freq.    1664.47  E(vib)   ...       0.00 
freq.    1707.01  E(vib)   ...       0.00 
freq.    1791.18  E(vib)   ...       0.00 
freq.    2995.08  E(vib)   ...       0.00 
freq.    3040.35  E(vib)   ...       0.00 
freq.    3070.48  E(vib)   ...       0.00 
freq.    3071.81  E(vib)   ...       0.00 
freq.    3083.32  E(vib)   ...       0.00 
freq.    3113.16  E(vib)   ...       0.00 
freq.    3145.76  E(vib)   ...       0.00 
freq.    3154.56  E(vib)   ...       0.00 
freq.    3163.56  E(vib)   ...       0.00 
freq.    3168.24  E(vib)   ...       0.00 
freq.    3179.64  E(vib)   ...       0.00 
freq.    3184.32  E(vib)   ...       0.00 
freq.    3185.58  E(vib)   ...       0.00 
freq.    3188.31  E(vib)   ...       0.00 
freq.    3196.63  E(vib)   ...       0.00 
freq.    3207.27  E(vib)   ...       0.00 
freq.    3210.58  E(vib)   ...       0.00 
freq.    3214.46  E(vib)   ...       0.00 
freq.    3231.64  E(vib)   ...       0.00 
freq.    3245.48  E(vib)   ...       0.00 

------------
INNER ENERGY
------------

The inner energy is: U= E(el) + E(ZPE) + E(vib) + E(rot) + E(trans)
    E(el)   - is the total energy from the electronic structure calculation
              = E(kin-el) + E(nuc-el) + E(el-el) + E(nuc-nuc)
    E(ZPE)  - the the zero temperature vibrational energy from the frequency calculation
    E(vib)  - the the finite temperature correction to E(ZPE) due to population
              of excited vibrational states
    E(rot)  - is the rotational thermal energy
    E(trans)- is the translational thermal energy

Summary of contributions to the inner energy U:
Electronic energy                ...  -1182.63764261 Eh
Zero point energy                ...      0.36318343 Eh     227.90 kcal/mol
Thermal vibrational correction   ...      0.01993692 Eh      12.51 kcal/mol
Thermal rotational correction    ...      0.00141627 Eh       0.89 kcal/mol
Thermal translational correction ...      0.00141627 Eh       0.89 kcal/mol
-----------------------------------------------------------------------
Total thermal energy                  -1182.25168972 Eh


Summary of corrections to the electronic energy:
(perhaps to be used in another calculation)
Total thermal correction                  0.02276947 Eh      14.29 kcal/mol
Non-thermal (ZPE) correction              0.36318343 Eh     227.90 kcal/mol
-----------------------------------------------------------------------
Total correction                          0.38595290 Eh     242.19 kcal/mol


--------
ENTHALPY
--------

The enthalpy is H = U + kB*T
                kB is Boltzmann's constant
Total free energy                 ...  -1182.25168972 Eh 
Thermal Enthalpy correction       ...      0.00094421 Eh       0.59 kcal/mol
-----------------------------------------------------------------------
Total Enthalpy                    ...  -1182.25074551 Eh


Note: Only C1 symmetry has been detected, increase convergence thresholds 
      if your molecule has a higher symmetry. Symmetry factor of 1.0 is   
      used for the rotational entropy correction. 
 

Note: Rotational entropy computed according to Herzberg 
Infrared and Raman Spectra, Chapter V,1, Van Nostrand Reinhold, 1945 
Point Group:  C1, Symmetry Number:   1  
Rotational constants in cm-1:     0.012262     0.007065     0.005765 

Vibrational entropy computed according to the QRRHO of S. Grimme
Chem.Eur.J. 2012 18 9955


-------
ENTROPY
-------

The entropy contributions are T*S = T*(S(el)+S(vib)+S(rot)+S(trans))
     S(el)   - electronic entropy
     S(vib)  - vibrational entropy
     S(rot)  - rotational entropy
     S(trans)- translational entropy
The entropies will be listed as multiplied by the temperature to get
units of energy

Electronic entropy                ...      0.00000000 Eh      0.00 kcal/mol
Vibrational entropy               ...      0.03533329 Eh     22.17 kcal/mol
Rotational entropy                ...      0.01636076 Eh     10.27 kcal/mol
Translational entropy             ...      0.02062252 Eh     12.94 kcal/mol
-----------------------------------------------------------------------
Final entropy term                ...      0.07231656 Eh     45.38 kcal/mol

In case the symmetry of your molecule has not been determined correctly
or in case you have a reason to use a different symmetry number we print 
out the resulting rotational entropy values for sn=1,12 :
 --------------------------------------------------------
|  sn= 1 | S(rot)=       0.01636076 Eh     10.27 kcal/mol|
|  sn= 2 | S(rot)=       0.01570631 Eh      9.86 kcal/mol|
|  sn= 3 | S(rot)=       0.01532347 Eh      9.62 kcal/mol|
|  sn= 4 | S(rot)=       0.01505185 Eh      9.45 kcal/mol|
|  sn= 5 | S(rot)=       0.01484116 Eh      9.31 kcal/mol|
|  sn= 6 | S(rot)=       0.01466902 Eh      9.20 kcal/mol|
|  sn= 7 | S(rot)=       0.01452347 Eh      9.11 kcal/mol|
|  sn= 8 | S(rot)=       0.01439739 Eh      9.03 kcal/mol|
|  sn= 9 | S(rot)=       0.01428619 Eh      8.96 kcal/mol|
|  sn=10 | S(rot)=       0.01418671 Eh      8.90 kcal/mol|
|  sn=11 | S(rot)=       0.01409672 Eh      8.85 kcal/mol|
|  sn=12 | S(rot)=       0.01401456 Eh      8.79 kcal/mol|
 --------------------------------------------------------


-------------------
GIBBS FREE ENERGY
-------------------

The Gibbs free energy is G = H - T*S

Total enthalpy                    ...  -1182.25074551 Eh 
Total entropy correction          ...     -0.07231656 Eh    -45.38 kcal/mol
-----------------------------------------------------------------------
Final Gibbs free energy         ...  -1182.32306207 Eh

For completeness - the Gibbs free energy minus the electronic energy
G-E(el)                           ...      0.31458054 Eh    197.40 kcal/mol


Timings for individual modules:

Sum of individual times         ...     5871.916 sec (=  97.865 min)
GTO integral calculation        ...       30.610 sec (=   0.510 min)   0.5 %
SCF iterations                  ...     1721.274 sec (=  28.688 min)  29.3 %
SCF Gradient evaluation         ...      417.561 sec (=   6.959 min)   7.1 %
Geometry relaxation             ...        2.043 sec (=   0.034 min)   0.0 %
Analytical frequency calculation...     3700.428 sec (=  61.674 min)  63.0 %
                             ****ORCA TERMINATED NORMALLY****
TOTAL RUN TIME: 0 days 1 hours 38 minutes 25 seconds 881 msec
