
                                 *****************
                                 * O   R   C   A *
                                 *****************

                                            #,                                       
                                            ###                                      
                                            ####                                     
                                            #####                                    
                                            ######                                   
                                           ########,                                 
                                     ,,################,,,,,                         
                               ,,#################################,,                 
                          ,,##########################################,,             
                       ,#########################################, ''#####,          
                    ,#############################################,,   '####,        
                  ,##################################################,,,,####,       
                ,###########''''           ''''###############################       
              ,#####''   ,,,,##########,,,,          '''####'''          '####       
            ,##' ,,,,###########################,,,                        '##       
           ' ,,###''''                  '''############,,,                           
         ,,##''                                '''############,,,,        ,,,,,,###''
      ,#''                                            '''#######################'''  
     '                                                          ''''####''''         
             ,#######,   #######,   ,#######,      ##                                
            ,#'     '#,  ##    ##  ,#'     '#,    #''#        ######   ,####,        
            ##       ##  ##   ,#'  ##            #'  '#       #        #'  '#        
            ##       ##  #######   ##           ,######,      #####,   #    #        
            '#,     ,#'  ##    ##  '#,     ,#' ,#      #,         ##   #,  ,#        
             '#######'   ##     ##  '#######'  #'      '#     #####' # '####'        



                  #######################################################
                  #                        -***-                        #
                  #          Department of theory and spectroscopy      #
                  #    Directorship and core code : Frank Neese         #
                  #        Max Planck Institute fuer Kohlenforschung    #
                  #                Kaiser Wilhelm Platz 1               #
                  #                 D-45470 Muelheim/Ruhr               #
                  #                      Germany                        #
                  #                                                     #
                  #                  All rights reserved                #
                  #                        -***-                        #
                  #######################################################


                         Program Version 5.0.4 -  RELEASE  -


 With contributions from (in alphabetic order):
   Daniel Aravena         : Magnetic Suceptibility
   Michael Atanasov       : Ab Initio Ligand Field Theory (pilot matlab implementation)
   Alexander A. Auer      : GIAO ZORA, VPT2 properties, NMR spectrum
   Ute Becker             : Parallelization
   Giovanni Bistoni       : ED, misc. LED, open-shell LED, HFLD
   Martin Brehm           : Molecular dynamics
   Dmytro Bykov           : SCF Hessian
   Vijay G. Chilkuri      : MRCI spin determinant printing, contributions to CSF-ICE
   Dipayan Datta          : RHF DLPNO-CCSD density
   Achintya Kumar Dutta   : EOM-CC, STEOM-CC
   Dmitry Ganyushin       : Spin-Orbit,Spin-Spin,Magnetic field MRCI
   Miquel Garcia          : C-PCM and meta-GGA Hessian, CC/C-PCM, Gaussian charge scheme
   Yang Guo               : DLPNO-NEVPT2, F12-NEVPT2, CIM, IAO-localization
   Andreas Hansen         : Spin unrestricted coupled pair/coupled cluster methods
   Benjamin Helmich-Paris : MC-RPA, TRAH-SCF, COSX integrals
   Lee Huntington         : MR-EOM, pCC
   Robert Izsak           : Overlap fitted RIJCOSX, COSX-SCS-MP3, EOM
   Marcus Kettner         : VPT2
   Christian Kollmar      : KDIIS, OOCD, Brueckner-CCSD(T), CCSD density, CASPT2, CASPT2-K
   Simone Kossmann        : Meta GGA functionals, TD-DFT gradient, OOMP2, MP2 Hessian
   Martin Krupicka        : Initial AUTO-CI
   Lucas Lang             : DCDCAS
   Marvin Lechner         : AUTO-CI (C++ implementation), FIC-MRCC
   Dagmar Lenk            : GEPOL surface, SMD
   Dimitrios Liakos       : Extrapolation schemes; Compound Job, initial MDCI parallelization
   Dimitrios Manganas     : Further ROCIS development; embedding schemes
   Dimitrios Pantazis     : SARC Basis sets
   Anastasios Papadopoulos: AUTO-CI, single reference methods and gradients
   Taras Petrenko         : DFT Hessian,TD-DFT gradient, ASA, ECA, R-Raman, ABS, FL, XAS/XES, NRVS
   Peter Pinski           : DLPNO-MP2, DLPNO-MP2 Gradient
   Christoph Reimann      : Effective Core Potentials
   Marius Retegan         : Local ZFS, SOC
   Christoph Riplinger    : Optimizer, TS searches, QM/MM, DLPNO-CCSD(T), (RO)-DLPNO pert. Triples
   Tobias Risthaus        : Range-separated hybrids, TD-DFT gradient, RPA, STAB
   Michael Roemelt        : Original ROCIS implementation
   Masaaki Saitow         : Open-shell DLPNO-CCSD energy and density
   Barbara Sandhoefer     : DKH picture change effects
   Avijit Sen             : IP-ROCIS
   Kantharuban Sivalingam : CASSCF convergence, NEVPT2, FIC-MRCI
   Bernardo de Souza      : ESD, SOC TD-DFT
   Georgi Stoychev        : AutoAux, RI-MP2 NMR, DLPNO-MP2 response
   Willem Van den Heuvel  : Paramagnetic NMR
   Boris Wezisla          : Elementary symmetry handling
   Frank Wennmohs         : Technical directorship


 We gratefully acknowledge several colleagues who have allowed us to
 interface, adapt or use parts of their codes:
   Stefan Grimme, W. Hujo, H. Kruse, P. Pracht,  : VdW corrections, initial TS optimization,
                  C. Bannwarth, S. Ehlert          DFT functionals, gCP, sTDA/sTD-DF
   Ed Valeev, F. Pavosevic, A. Kumar             : LibInt (2-el integral package), F12 methods
   Garnet Chan, S. Sharma, J. Yang, R. Olivares  : DMRG
   Ulf Ekstrom                                   : XCFun DFT Library
   Mihaly Kallay                                 : mrcc  (arbitrary order and MRCC methods)
   Jiri Pittner, Ondrej Demel                    : Mk-CCSD
   Frank Weinhold                                : gennbo (NPA and NBO analysis)
   Christopher J. Cramer and Donald G. Truhlar   : smd solvation model
   Lars Goerigk                                  : TD-DFT with DH, B97 family of functionals
   V. Asgeirsson, H. Jonsson                     : NEB implementation
   FAccTs GmbH                                   : IRC, NEB, NEB-TS, DLPNO-Multilevel, CI-OPT
                                                   MM, QMMM, 2- and 3-layer-ONIOM, Crystal-QMMM,
                                                   LR-CPCM, SF, NACMEs, symmetry and pop. for TD-DFT,
                                                   nearIR, NL-DFT gradient (VV10), updates on ESD,
                                                   ML-optimized integration grids
   S Lehtola, MJT Oliveira, MAL Marques          : LibXC Library
   Liviu Ungur et al                             : ANISO software


 Your calculation uses the libint2 library for the computation of 2-el integrals
 For citations please refer to: http://libint.valeyev.net

 Your ORCA version has been built with support for libXC version: 5.1.0
 For citations please refer to: https://tddft.org/programs/libxc/

 This ORCA versions uses:
   CBLAS   interface :  Fast vector & matrix operations
   LAPACKE interface :  Fast linear algebra routines
   SCALAPACK package :  Parallel linear algebra routines
   Shared memory     :  Shared parallel matrices
   BLAS/LAPACK       :  OpenBLAS 0.3.15  USE64BITINT DYNAMIC_ARCH NO_AFFINITY Haswell SINGLE_THREADED
        Core in use  :  Haswell
   Copyright (c) 2011-2014, The OpenBLAS Project


Your calculation utilizes the atom-pairwise dispersion correction
with the Becke-Johnson damping scheme (D3BJ)
Cite in your paper:
S.Grimme, S.Ehrlich, L.Goerigk, J Comput Chem, (2011), 32, 1456–1465 
S.Grimme, J.Antony, S.Ehrlich and H.Krieg, J.Chem.Phys., 132, (2010), 154104 
   

================================================================================

----- Orbital basis set information -----
Your calculation utilizes the basis: def2-TZVP
   F. Weigend and R. Ahlrichs, Phys. Chem. Chem. Phys. 7, 3297 (2005).

----- AuxJ basis set information -----
Your calculation utilizes the auxiliary basis: def2/J
   F. Weigend, Phys. Chem. Chem. Phys. 8, 1057 (2006).

================================================================================
                                        WARNINGS
                       Please study these warnings very carefully!
================================================================================


WARNING: Geometry Optimization
  ===> : Switching off AutoStart
         For restart on a previous wavefunction, please use MOREAD

INFO   : the flag for use of the SHARK integral package has been found!

================================================================================
                                       INPUT FILE
================================================================================
NAME = 3_NO2/3_NO2.inp
|  1> %pal nprocs 24 end
|  2> ! PBE0 D3BJ def2-TZVP TightSCF OPT FREQ TightOpt
|  3> ! CPCM(dmso)
|  4> %scf
|  5> MaxIter 800
|  6> end
|  7> 
|  8> %geom
|  9> MaxIter 800
| 10> MaxStep 0.15
| 11> end
| 12> 
| 13> *xyz 0 1
| 14> C       4.16531600      0.78354200      0.42881800
| 15> C       3.92647700      1.75557700     -0.61295700
| 16> C       2.64182700      2.00562200     -0.96603400
| 17> N       1.59120400      1.40299800     -0.33755000
| 18> C       1.73877800      0.34952200      0.63512000
| 19> C       3.15679900      0.12352000      1.03753800
| 20> C       0.25160700      1.38160200     -0.83982800
| 21> C      -0.67120700      2.21469600      0.04511800
| 22> O      -0.33593700      2.76077200      1.06522000
| 23> O      -1.86879900      2.32421600     -0.50903400
| 24> C      -2.84831000      3.06276900      0.21200700
| 25> H       5.19379200      0.59330400      0.74895700
| 26> H       2.36332300      2.71324400     -1.75081600
| 27> H       1.09738500      0.55068100      1.51251400
| 28> H       3.33629500     -0.59040800      1.84239000
| 29> H       0.20526000      1.83666200     -1.83957600
| 30> H      -3.02480400      2.60554800      1.19590200
| 31> H      -3.76246000      3.02563600     -0.39008800
| 32> C       0.96308900     -0.83999200     -0.06305000
| 33> C      -0.08229000     -0.15570100     -0.97756700
| 34> C      -1.52269900     -0.56485900     -0.86412200
| 35> C      -2.22684100     -0.99416600     -1.98567300
| 36> C      -3.57615000     -1.34415800     -1.89680300
| 37> C      -4.22366000     -1.26700200     -0.66697400
| 38> C      -3.53963900     -0.84060200      0.47445200
| 39> C      -2.19672700     -0.48476400      0.36774800
| 40> O      -1.43392100     -0.04386700      1.38783400
| 41> C      -1.94416200     -0.03903800      2.70301300
| 42> N       1.97398900     -1.61444100     -0.86738900
| 43> O       2.27263400     -1.17165300     -1.94947100
| 44> H       0.23822700     -0.41219100     -1.99356800
| 45> H      -1.70578200     -1.05491200     -2.94497900
| 46> H      -4.11421300     -1.67920000     -2.78594400
| 47> H      -5.27802000     -1.54210500     -0.58313300
| 48> H      -4.05584600     -0.78311700      1.43323800
| 49> H      -2.21891600     -1.05796600      3.01990600
| 50> H      -2.82058000      0.62218200      2.78919000
| 51> H      -1.13933800      0.33991700      3.34375400
| 52> O       2.51010800     -2.54658000     -0.31592300
| 53> H      -2.52255300      4.10330400      0.34983000
| 54> H       4.74626900      2.27769900     -1.10437500
| 55> N       0.45093500     -1.84437200      0.93528500
| 56> O      -0.25683100     -2.71680400      0.49573700
| 57> O       0.81912500     -1.74342800      2.07989300
| 58> *
| 59> 
| 60>                          ****END OF INPUT****
================================================================================

                       *****************************
                       * Geometry Optimization Run *
                       *****************************

Geometry optimization settings:
Update method            Update   .... BFGS
Choice of coordinates    CoordSys .... Z-matrix Internals
Initial Hessian          InHess   .... Almoef's Model

Convergence Tolerances:
Energy Change            TolE     ....  1.0000e-06 Eh
Max. Gradient            TolMAXG  ....  1.0000e-04 Eh/bohr
RMS Gradient             TolRMSG  ....  3.0000e-05 Eh/bohr
Max. Displacement        TolMAXD  ....  1.0000e-03 bohr
RMS Displacement         TolRMSD  ....  6.0000e-04 bohr
Strict Convergence                ....  False
------------------------------------------------------------------------------
                        ORCA OPTIMIZATION COORDINATE SETUP
------------------------------------------------------------------------------

The optimization will be done in new redundant internal coordinates
Making redundant internal coordinates   ...  (new redundants) done
Evaluating the initial hessian          ...  (Almloef) done
Evaluating the coordinates              ...  done
Calculating the B-matrix                .... done
Calculating the G-matrix                .... done
Diagonalizing the G-matrix              .... done
Small eigenvalue found = 4.003e-03
Small eigenvalue found = 6.200e-03
Small eigenvalue found = 9.550e-03
Small eigenvalue found = 2.038e-02
Small eigenvalue found = 2.248e-02
Small eigenvalue found = 2.618e-02
The first mode is                       ....  119
The number of degrees of freedom        ....  126

    -----------------------------------------------------------------
                    Redundant Internal Coordinates


    -----------------------------------------------------------------
         Definition                    Initial Value    Approx d2E/dq
    -----------------------------------------------------------------
      1. B(C   1,C   0)                  1.4447         0.511034   
      2. B(C   2,C   1)                  1.3555         0.709094   
      3. B(N   3,C   2)                  1.3645         0.614473   
      4. B(C   4,N   3)                  1.4414         0.463283   
      5. B(C   5,C   4)                  1.4912         0.430739   
      6. B(C   5,C   0)                  1.3503         0.722932   
      7. B(C   6,N   3)                  1.4308         0.481661   
      8. B(C   7,C   6)                  1.5260         0.379066   
      9. B(O   8,C   7)                  1.2047         1.105525   
     10. B(O   9,C   7)                  1.3241         0.712813   
     11. B(C  10,O   9)                  1.4230         0.495789   
     12. B(H  11,C   0)                  1.0938         0.355082   
     13. B(H  12,C   2)                  1.0928         0.356436   
     14. B(H  13,C   4)                  1.1053         0.340428   
     15. B(H  14,C   5)                  1.0907         0.359131   
     16. B(H  15,C   6)                  1.0994         0.347852   
     17. B(H  16,C  10)                  1.0992         0.348127   
     18. B(H  17,C  10)                  1.0952         0.353224   
     19. B(C  18,C   4)                  1.5824         0.308129   
     20. B(C  19,C  18)                  1.5484         0.349211   
     21. B(C  19,C   6)                  1.5792         0.311845   
     22. B(C  20,C  19)                  1.5017         0.414526   
     23. B(C  21,C  20)                  1.3921         0.619950   
     24. B(C  22,C  21)                  1.3968         0.609401   
     25. B(C  23,C  22)                  1.3920         0.620192   
     26. B(C  24,C  23)                  1.3973         0.608178   
     27. B(C  25,C  24)                  1.3933         0.617159   
     28. B(C  25,C  20)                  1.4065         0.588057   
     29. B(O  26,C  25)                  1.3479         0.653192   
     30. B(C  27,O  26)                  1.4107         0.518627   
     31. B(N  28,C  18)                  1.5062         0.365156   
     32. B(O  29,N  28)                  1.2067         0.982739   
     33. B(H  30,C  19)                  1.0958         0.352509   
     34. B(H  31,C  21)                  1.0934         0.355668   
     35. B(H  32,C  22)                  1.0919         0.357541   
     36. B(H  33,C  23)                  1.0929         0.356311   
     37. B(H  34,C  24)                  1.0904         0.359527   
     38. B(H  35,C  27)                  1.1019         0.344731   
     39. B(H  36,C  27)                  1.1012         0.345524   
     40. B(H  37,C  27)                  1.0963         0.351848   
     41. B(O  38,N  28)                  1.2085         0.976377   
     42. B(H  39,C  10)                  1.0990         0.348374   
     43. B(H  40,C   1)                  1.0891         0.361278   
     44. B(N  41,C  18)                  1.5059         0.365556   
     45. B(O  42,N  41)                  1.2063         0.984055   
     46. B(O  43,N  41)                  1.2066         0.983144   
     47. A(C   1,C   0,C   5)          122.0377         0.430980   
     48. A(C   1,C   0,H  11)          118.9150         0.340811   
     49. A(C   5,C   0,H  11)          119.0332         0.361378   
     50. A(C   2,C   1,H  40)          120.4902         0.361254   
     51. A(C   0,C   1,C   2)          117.9437         0.429488   
     52. A(C   0,C   1,H  40)          121.5660         0.341799   
     53. A(N   3,C   2,H  12)          114.8672         0.349604   
     54. A(C   1,C   2,N   3)          121.8871         0.441072   
     55. A(C   1,C   2,H  12)          123.2319         0.360423   
     56. A(C   4,N   3,C   6)          108.7723         0.389100   
     57. A(C   2,N   3,C   6)          124.4563         0.408910   
     58. A(C   2,N   3,C   4)          123.6934         0.406105   
     59. A(H  13,C   4,C  18)          101.6882         0.311435   
     60. A(C   5,C   4,C  18)          118.1160         0.360251   
     61. A(N   3,C   4,C  18)          101.6235         0.362491   
     62. A(N   3,C   4,H  13)          110.0744         0.330937   
     63. A(C   5,C   4,H  13)          111.4180         0.328955   
     64. A(N   3,C   4,C   5)          112.9680         0.384033   
     65. A(C   0,C   5,H  14)          121.9838         0.362078   
     66. A(C   4,C   5,H  14)          117.0525         0.331878   
     67. A(C   0,C   5,C   4)          120.9631         0.418002   
     68. A(C   7,C   6,C  19)          117.0116         0.353234   
     69. A(N   3,C   6,C  19)          104.0716         0.365659   
     70. A(C   7,C   6,H  15)          106.0141         0.323255   
     71. A(N   3,C   6,H  15)          110.6400         0.334271   
     72. A(N   3,C   6,C   7)          110.7584         0.378156   
     73. A(H  15,C   6,C  19)          108.3432         0.313131   
     74. A(C   6,C   7,O   9)          110.4502         0.404983   
     75. A(C   6,C   7,O   8)          124.7660         0.437981   
     76. A(O   8,C   7,O   9)          124.6533         0.488290   
     77. A(C   7,O   9,C  10)          116.9652         0.422013   
     78. A(H  16,C  10,H  39)          109.2182         0.287805   
     79. A(H  16,C  10,H  17)          110.1175         0.288428   
     80. A(O   9,C  10,H  17)          106.1638         0.336739   
     81. A(H  17,C  10,H  39)          110.3918         0.288461   
     82. A(O   9,C  10,H  39)          110.5436         0.335965   
     83. A(O   9,C  10,H  16)          110.3772         0.335925   
     84. A(C  19,C  18,N  28)          111.4052         0.355593   
     85. A(C   4,C  18,N  28)          107.0448         0.348147   
     86. A(C  19,C  18,N  41)          117.1746         0.355659   
     87. A(C   4,C  18,N  41)          112.0598         0.348211   
     88. A(C   4,C  18,C  19)          105.0304         0.347670   
     89. A(N  28,C  18,N  41)          103.8482         0.356151   
     90. A(C  20,C  19,H  30)          106.6682         0.328766   
     91. A(C  18,C  19,H  30)          104.2824         0.319639   
     92. A(C   6,C  19,H  30)          104.2934         0.313807   
     93. A(C  18,C  19,C  20)          118.8533         0.365632   
     94. A(C   6,C  19,C  20)          117.4817         0.358636   
     95. A(C   6,C  19,C  18)          103.6482         0.348373   
     96. A(C  21,C  20,C  25)          118.7366         0.429953   
     97. A(C  19,C  20,C  25)          120.6851         0.400265   
     98. A(C  19,C  20,C  21)          120.5525         0.404008   
     99. A(C  22,C  21,H  31)          120.1499         0.351145   
    100. A(C  20,C  21,H  31)          118.8778         0.352165   
    101. A(C  20,C  21,C  22)          120.9723         0.432716   
    102. A(C  23,C  22,H  32)          120.4774         0.352502   
    103. A(C  21,C  22,H  32)          120.0716         0.351457   
    104. A(C  21,C  22,C  23)          119.4505         0.432746   
    105. A(C  24,C  23,H  33)          119.1050         0.351133   
    106. A(C  22,C  23,H  33)          120.1715         0.352296   
    107. A(C  22,C  23,C  24)          120.7234         0.432590   
    108. A(C  25,C  24,H  34)          120.6727         0.352540   
    109. A(C  23,C  24,H  34)          120.1715         0.351667   
    110. A(C  23,C  24,C  25)          119.1549         0.432209   
    111. A(C  24,C  25,O  26)          124.8211         0.434930   
    112. A(C  20,C  25,O  26)          114.2210         0.431169   
    113. A(C  20,C  25,C  24)          120.9579         0.429605   
    114. A(C  25,O  26,C  27)          120.1313         0.418839   
    115. A(O  26,C  27,H  36)          111.2761         0.338032   
    116. A(O  26,C  27,H  35)          110.8024         0.337902   
    117. A(H  36,C  27,H  37)          109.3271         0.287914   
    118. A(H  35,C  27,H  37)          109.5490         0.287811   
    119. A(O  26,C  27,H  37)          106.2921         0.339056   
    120. A(H  35,C  27,H  36)          109.5288         0.286996   
    121. A(C  18,N  28,O  29)          117.1484         0.420364   
    122. A(O  29,N  28,O  38)          125.6223         0.499509   
    123. A(C  18,N  28,O  38)          116.7858         0.419877   
    124. A(O  42,N  41,O  43)          125.8155         0.500275   
    125. A(C  18,N  41,O  43)          117.9895         0.420477   
    126. A(C  18,N  41,O  42)          116.1249         0.420546   
    127. D(C   2,C   1,C   0,H  11)   -178.0272         0.017799   
    128. D(H  40,C   1,C   0,C   5)   -179.5015         0.017799   
    129. D(C   2,C   1,C   0,C   5)      0.5923         0.017799   
    130. D(H  40,C   1,C   0,H  11)      1.8789         0.017799   
    131. D(N   3,C   2,C   1,H  40)   -177.6632         0.035492   
    132. D(H  12,C   2,C   1,H  40)      0.9161         0.035492   
    133. D(N   3,C   2,C   1,C   0)      2.2441         0.035492   
    134. D(H  12,C   2,C   1,C   0)   -179.1766         0.035492   
    135. D(C   6,N   3,C   2,C   1)   -165.2586         0.030532   
    136. D(C   6,N   3,C   2,H  12)     16.0512         0.030532   
    137. D(C   4,N   3,C   2,C   1)     -7.3520         0.030532   
    138. D(C   4,N   3,C   2,H  12)    173.9578         0.030532   
    139. D(H  13,C   4,N   3,C   2)    133.8748         0.018327   
    140. D(C   5,C   4,N   3,C   6)    169.5044         0.018327   
    141. D(C   5,C   4,N   3,C   2)      8.6248         0.018327   
    142. D(C  18,C   4,N   3,C   6)     41.9344         0.018327   
    143. D(C  18,C   4,N   3,C   2)   -118.9451         0.018327   
    144. D(H  13,C   4,N   3,C   6)    -65.2456         0.018327   
    145. D(H  14,C   5,C   4,H  13)     49.6120         0.013702   
    146. D(C   0,C   5,C   4,C  18)    112.7273         0.013702   
    147. D(H  14,C   5,C   4,N   3)    174.1320         0.013702   
    148. D(H  14,C   5,C   0,H  11)      0.2956         0.037017   
    149. D(C   0,C   5,C   4,N   3)     -5.6031         0.013702   
    150. D(C   0,C   5,C   4,H  13)   -130.1231         0.013702   
    151. D(H  14,C   5,C   4,C  18)    -67.5376         0.013702   
    152. D(C   4,C   5,C   0,H  11)   -179.9826         0.037017   
    153. D(H  14,C   5,C   0,C   1)   -178.3224         0.037017   
    154. D(C   4,C   5,C   0,C   1)      1.3994         0.037017   
    155. D(C   7,C   6,N   3,C   4)     87.1209         0.019848   
    156. D(C   7,C   6,N   3,C   2)   -112.1794         0.019848   
    157. D(H  15,C   6,N   3,C   2)      5.0808         0.019848   
    158. D(C  19,C   6,N   3,C   4)    -39.4441         0.019848   
    159. D(C  19,C   6,N   3,C   2)    121.2557         0.019848   
    160. D(H  15,C   6,N   3,C   4)   -155.6189         0.019848   
    161. D(O   9,C   7,C   6,C  19)    -68.5029         0.010726   
    162. D(O   9,C   7,C   6,N   3)    172.4798         0.010726   
    163. D(O   9,C   7,C   6,H  15)     52.4154         0.010726   
    164. D(O   8,C   7,C   6,C  19)    115.4939         0.010726   
    165. D(O   8,C   7,C   6,H  15)   -123.5877         0.010726   
    166. D(O   8,C   7,C   6,N   3)     -3.5234         0.010726   
    167. D(C  10,O   9,C   7,O   8)     -4.7848         0.038185   
    168. D(C  10,O   9,C   7,C   6)    179.2066         0.038185   
    169. D(H  39,C  10,O   9,C   7)     61.2541         0.019423   
    170. D(H  17,C  10,O   9,C   7)   -179.0078         0.019423   
    171. D(H  16,C  10,O   9,C   7)    -59.6890         0.019423   
    172. D(N  41,C  18,C   4,H  13)    -41.6353         0.007854   
    173. D(N  41,C  18,C   4,C   5)     80.5953         0.007854   
    174. D(N  41,C  18,C   4,N   3)   -155.2385         0.007854   
    175. D(N  28,C  18,C   4,C   5)    -32.6310         0.007854   
    176. D(N  28,C  18,C   4,N   3)     91.5352         0.007854   
    177. D(C  19,C  18,C   4,H  13)     86.6114         0.007854   
    178. D(N  28,C  18,C   4,H  13)   -154.8615         0.007854   
    179. D(C  19,C  18,C   4,N   3)    -26.9918         0.007854   
    180. D(C  19,C  18,C   4,C   5)   -151.1580         0.007854   
    181. D(H  30,C  19,C   6,C   7)    147.7569         0.008021   
    182. D(H  30,C  19,C   6,N   3)    -89.7016         0.008021   
    183. D(C  20,C  19,C   6,H  15)    -89.7149         0.008021   
    184. D(C  20,C  19,C   6,C   7)     29.9713         0.008021   
    185. D(C  20,C  19,C   6,N   3)    152.5128         0.008021   
    186. D(C  18,C  19,C   6,H  15)    136.9662         0.008021   
    187. D(C  18,C  19,C   6,C   7)   -103.3476         0.008021   
    188. D(H  30,C  19,C   6,H  15)     28.0707         0.008021   
    189. D(C  18,C  19,C   6,N   3)     19.1939         0.008021   
    190. D(H  30,C  19,C  18,N  41)   -121.1038         0.009829   
    191. D(H  30,C  19,C  18,C   4)    113.7981         0.009829   
    192. D(C  20,C  19,C  18,N  41)     -2.5367         0.009829   
    193. D(C  20,C  19,C  18,N  28)    116.8185         0.009829   
    194. D(C  20,C  19,C  18,C   4)   -127.6348         0.009829   
    195. D(C   6,C  19,C  18,N  41)    129.9925         0.009829   
    196. D(H  30,C  19,C  18,N  28)     -1.7486         0.009829   
    197. D(C   6,C  19,C  18,N  28)   -110.6523         0.009829   
    198. D(C   6,C  19,C  18,C   4)      4.8944         0.009829   
    199. D(C  25,C  20,C  19,H  30)    173.9021         0.012717   
    200. D(C  25,C  20,C  19,C  18)     56.5803         0.012717   
    201. D(C  25,C  20,C  19,C   6)    -69.5954         0.012717   
    202. D(C  21,C  20,C  19,H  30)     -7.9683         0.012717   
    203. D(C  21,C  20,C  19,C  18)   -125.2900         0.012717   
    204. D(C  21,C  20,C  19,C   6)    108.5343         0.012717   
    205. D(H  31,C  21,C  20,C  25)    179.8493         0.026595   
    206. D(H  31,C  21,C  20,C  19)      1.6836         0.026595   
    207. D(C  22,C  21,C  20,C  25)     -0.1817         0.026595   
    208. D(C  22,C  21,C  20,C  19)   -178.3473         0.026595   
    209. D(H  32,C  22,C  21,H  31)     -0.0194         0.025646   
    210. D(H  32,C  22,C  21,C  20)   -179.9881         0.025646   
    211. D(C  23,C  22,C  21,H  31)    179.7177         0.025646   
    212. D(C  23,C  22,C  21,C  20)     -0.2510         0.025646   
    213. D(H  33,C  23,C  22,H  32)     -0.0007         0.026617   
    214. D(H  33,C  23,C  22,C  21)   -179.7367         0.026617   
    215. D(C  24,C  23,C  22,H  32)    179.9169         0.026617   
    216. D(C  24,C  23,C  22,C  21)      0.1809         0.026617   
    217. D(H  34,C  24,C  23,H  33)     -0.1092         0.025537   
    218. D(H  34,C  24,C  23,C  22)    179.9723         0.025537   
    219. D(C  25,C  24,C  23,H  33)   -179.7584         0.025537   
    220. D(C  25,C  24,C  23,C  22)      0.3231         0.025537   
    221. D(O  26,C  25,C  24,H  34)     -0.4893         0.026342   
    222. D(O  26,C  25,C  24,C  23)    179.1582         0.026342   
    223. D(C  20,C  25,C  24,H  34)    179.5843         0.026342   
    224. D(C  20,C  25,C  24,C  23)     -0.7683         0.026342   
    225. D(O  26,C  25,C  20,C  21)   -179.2359         0.023790   
    226. D(O  26,C  25,C  20,C  19)     -1.0728         0.023790   
    227. D(C  24,C  25,C  20,C  21)      0.6979         0.023790   
    228. D(C  24,C  25,C  20,C  19)    178.8610         0.023790   
    229. D(C  27,O  26,C  25,C  24)      6.2714         0.031558   
    230. D(C  27,O  26,C  25,C  20)   -173.7978         0.031558   
    231. D(H  37,C  27,O  26,C  25)    178.9470         0.021320   
    232. D(H  36,C  27,O  26,C  25)    -62.1166         0.021320   
    233. D(H  35,C  27,O  26,C  25)     60.0027         0.021320   
    234. D(O  38,N  28,C  18,N  41)    -26.7546         0.011456   
    235. D(O  38,N  28,C  18,C  19)   -153.7577         0.011456   
    236. D(O  38,N  28,C  18,C   4)     91.9417         0.011456   
    237. D(O  29,N  28,C  18,N  41)    160.4519         0.011456   
    238. D(O  29,N  28,C  18,C  19)     33.4487         0.011456   
    239. D(O  29,N  28,C  18,C   4)    -80.8518         0.011456   
    240. D(O  43,N  41,C  18,N  28)    105.7321         0.011480   
    241. D(O  43,N  41,C  18,C  19)   -130.9641         0.011480   
    242. D(O  43,N  41,C  18,C   4)     -9.4591         0.011480   
    243. D(O  42,N  41,C  18,N  28)    -71.3999         0.011480   
    244. D(O  42,N  41,C  18,C  19)     51.9039         0.011480   
    245. D(O  42,N  41,C  18,C   4)    173.4089         0.011480   
    -----------------------------------------------------------------

Number of atoms                         .... 44
Number of degrees of freedom            .... 245

         *************************************************************
         *                GEOMETRY OPTIMIZATION CYCLE   1            *
         *************************************************************
---------------------------------
CARTESIAN COORDINATES (ANGSTROEM)
---------------------------------
  C      4.165316    0.783542    0.428818
  C      3.926477    1.755577   -0.612957
  C      2.641827    2.005622   -0.966034
  N      1.591204    1.402998   -0.337550
  C      1.738778    0.349522    0.635120
  C      3.156799    0.123520    1.037538
  C      0.251607    1.381602   -0.839828
  C     -0.671207    2.214696    0.045118
  O     -0.335937    2.760772    1.065220
  O     -1.868799    2.324216   -0.509034
  C     -2.848310    3.062769    0.212007
  H      5.193792    0.593304    0.748957
  H      2.363323    2.713244   -1.750816
  H      1.097385    0.550681    1.512514
  H      3.336295   -0.590408    1.842390
  H      0.205260    1.836662   -1.839576
  H     -3.024804    2.605548    1.195902
  H     -3.762460    3.025636   -0.390088
  C      0.963089   -0.839992   -0.063050
  C     -0.082290   -0.155701   -0.977567
  C     -1.522699   -0.564859   -0.864122
  C     -2.226841   -0.994166   -1.985673
  C     -3.576150   -1.344158   -1.896803
  C     -4.223660   -1.267002   -0.666974
  C     -3.539639   -0.840602    0.474452
  C     -2.196727   -0.484764    0.367748
  O     -1.433921   -0.043867    1.387834
  C     -1.944162   -0.039038    2.703013
  N      1.973989   -1.614441   -0.867389
  O      2.272634   -1.171653   -1.949471
  H      0.238227   -0.412191   -1.993568
  H     -1.705782   -1.054912   -2.944979
  H     -4.114213   -1.679200   -2.785944
  H     -5.278020   -1.542105   -0.583133
  H     -4.055846   -0.783117    1.433238
  H     -2.218916   -1.057966    3.019906
  H     -2.820580    0.622182    2.789190
  H     -1.139338    0.339917    3.343754
  O      2.510108   -2.546580   -0.315923
  H     -2.522553    4.103304    0.349830
  H      4.746269    2.277699   -1.104375
  N      0.450935   -1.844372    0.935285
  O     -0.256831   -2.716804    0.495737
  O      0.819125   -1.743428    2.079893

----------------------------
CARTESIAN COORDINATES (A.U.)
----------------------------
  NO LB      ZA    FRAG     MASS         X           Y           Z
   0 C     6.0000    0    12.011    7.871307    1.480680    0.810349
   1 C     6.0000    0    12.011    7.419966    3.317560   -1.158321
   2 C     6.0000    0    12.011    4.992330    3.790076   -1.825540
   3 N     7.0000    0    14.007    3.006940    2.651282   -0.637877
   4 C     6.0000    0    12.011    3.285814    0.660501    1.200203
   5 C     6.0000    0    12.011    5.965486    0.233419    1.960663
   6 C     6.0000    0    12.011    0.475468    2.610849   -1.587045
   7 C     6.0000    0    12.011   -1.268397    4.185169    0.085261
   8 O     8.0000    0    15.999   -0.634829    5.217103    2.012974
   9 O     8.0000    0    15.999   -3.531518    4.392132   -0.961935
  10 C     6.0000    0    12.011   -5.382526    5.787795    0.400635
  11 H     1.0000    0     1.008    9.814844    1.121182    1.415324
  12 H     1.0000    0     1.008    4.466033    5.127288   -3.308563
  13 H     1.0000    0     1.008    2.073757    1.040636    2.858237
  14 H     1.0000    0     1.008    6.304684   -1.115709    3.481613
  15 H     1.0000    0     1.008    0.387885    3.470788   -3.476295
  16 H     1.0000    0     1.008   -5.716051    4.923772    2.259927
  17 H     1.0000    0     1.008   -7.110019    5.717623   -0.737159
  18 C     6.0000    0    12.011    1.819974   -1.587355   -0.119147
  19 C     6.0000    0    12.011   -0.155506   -0.294232   -1.847334
  20 C     6.0000    0    12.011   -2.877484   -1.067429   -1.632954
  21 C     6.0000    0    12.011   -4.208120   -1.878701   -3.752378
  22 C     6.0000    0    12.011   -6.757944   -2.540091   -3.584438
  23 C     6.0000    0    12.011   -7.981561   -2.394287   -1.260398
  24 C     6.0000    0    12.011   -6.688948   -1.588508    0.896584
  25 C     6.0000    0    12.011   -4.151212   -0.916071    0.694943
  26 O     8.0000    0    15.999   -2.709718   -0.082897    2.622626
  27 C     6.0000    0    12.011   -3.673934   -0.073771    5.107954
  28 N     7.0000    0    14.007    3.730299   -3.050851   -1.639128
  29 O     8.0000    0    15.999    4.294656   -2.214103   -3.683966
  30 H     1.0000    0     1.008    0.450184   -0.778928   -3.767298
  31 H     1.0000    0     1.008   -3.223461   -1.993495   -5.565204
  32 H     1.0000    0     1.008   -7.774736   -3.173228   -5.264671
  33 H     1.0000    0     1.008   -9.974012   -2.914156   -1.101962
  34 H     1.0000    0     1.008   -7.664438   -1.479877    2.708427
  35 H     1.0000    0     1.008   -4.193144   -1.999266    5.706795
  36 H     1.0000    0     1.008   -5.330124    1.175754    5.270805
  37 H     1.0000    0     1.008   -2.153037    0.642350    6.318779
  38 O     8.0000    0    15.999    4.743417   -4.812339   -0.597008
  39 H     1.0000    0     1.008   -4.766934    7.754121    0.661083
  40 H     1.0000    0     1.008    8.969149    4.304227   -2.086966
  41 N     7.0000    0    14.007    0.852144   -3.485358    1.767433
  42 O     8.0000    0    15.999   -0.485340   -5.134016    0.936807
  43 O     8.0000    0    15.999    1.547922   -3.294601    3.930428

--------------------------------
INTERNAL COORDINATES (ANGSTROEM)
--------------------------------
 C      0   0   0     0.000000000000     0.00000000     0.00000000
 C      1   0   0     1.444711479767     0.00000000     0.00000000
 C      2   1   0     1.355548410221   117.94374420     0.00000000
 N      3   2   1     1.364535273183   121.88713792     2.24405833
 C      4   3   2     1.441414824730   123.69337350   352.64799152
 C      1   2   3     1.350287235433   122.03765662     0.59232460
 C      4   3   2     1.430825321452   124.45633211   194.74138435
 C      7   4   3     1.526027756742   110.75836186   247.82062299
 O      8   7   4     1.204663048773   124.76604135   356.47662584
 O      8   7   4     1.324124491114   110.45017171   172.47976062
 C     10   8   7     1.422955535711   116.96516480   179.20664801
 H      1   2   3     1.093820075945   118.91498741   181.97276992
 H      3   2   1     1.092783675035   123.23185360   180.82335499
 H      5   4   3     1.105291886773   110.07444168   133.87482128
 H      6   1   2     1.090733122768   121.98377336   181.67758552
 H      7   4   3     1.099419715811   110.63996885     5.08081314
 H     11  10   8     1.099204505951   110.37718915   300.31103839
 H     11  10   8     1.095247675740   106.16384860   180.99220163
 C      5   4   3     1.582427985665   101.62354678   241.05487372
 C     19   5   4     1.548358088302   105.03036532   333.00818702
 C     20  19   5     1.501685094908   118.85330247   232.36523576
 C     21  20  19     1.392119643570   120.55252143   234.70995636
 C     22  21  20     1.396791700450   120.97232418   181.65268752
 C     23  22  21     1.392013512031   119.45047241   359.74901499
 C     24  23  22     1.397338542343   120.72341542     0.18090539
 C     25  24  23     1.393348149460   119.15490534     0.32309405
 O     26  25  24     1.347901556361   124.82106913   179.15817601
 C     27  26  25     1.410696636192   120.13125155     6.27138899
 N     19   5   4     1.506204265869   107.04482711    91.53523037
 O     29  19   5     1.206711027418   117.14842168   279.14820218
 H     20  19   5     1.095799388296   104.28236470   113.79812868
 H     22  21  20     1.093371190234   118.87781358     1.68364957
 H     23  22  21     1.091941688743   120.07158785   180.01191730
 H     24  23  22     1.092879674754   120.17154839   180.26330376
 H     25  24  23     1.090433301890   120.17149319   179.97233150
 H     28  27  26     1.101873496890   110.80235909    60.00269975
 H     28  27  26     1.101247871486   111.27605830   297.88336446
 H     28  27  26     1.096310901196   106.29214085   178.94697485
 O     29  19   5     1.208478980636   116.78577482    91.94172638
 H     11  10   8     1.099011323237   110.54357687    61.25413223
 H      2   1   3     1.089110626554   121.56595721   179.90616075
 N     19   5   4     1.505906264128   112.05980260   204.76148308
 O     42  19   5     1.206346861265   116.12489845   173.40888693
 O     42  19   5     1.206598956116   117.98945017   350.54089819

---------------------------
INTERNAL COORDINATES (A.U.)
---------------------------
 C      0   0   0     0.000000000000     0.00000000     0.00000000
 C      1   0   0     2.730109039292     0.00000000     0.00000000
 C      2   1   0     2.561615256591   117.94374420     0.00000000
 N      3   2   1     2.578597966392   121.88713792     2.24405833
 C      4   3   2     2.723879264114   123.69337350   352.64799152
 C      1   2   3     2.551673077098   122.03765662     0.59232460
 C      4   3   2     2.703868003025   124.45633211   194.74138435
 C      7   4   3     2.883774533005   110.75836186   247.82062299
 O      8   7   4     2.276483245836   124.76604135   356.47662584
 O      8   7   4     2.502232655423   110.45017171   172.47976062
 C     10   8   7     2.688996263241   116.96516480   179.20664801
 H      1   2   3     2.067020383322   118.91498741   181.97276992
 H      3   2   1     2.065061869437   123.23185360   180.82335499
 H      5   4   3     2.088698964046   110.07444168   133.87482128
 H      6   1   2     2.061186887229   121.98377336   181.67758552
 H      7   4   3     2.077602169116   110.63996885     5.08081314
 H     11  10   8     2.077195481419   110.37718915   300.31103839
 H     11  10   8     2.069718155962   106.16384860   180.99220163
 C      5   4   3     2.990355519560   101.62354678   241.05487372
 C     19   5   4     2.925972744133   105.03036532   333.00818702
 C     20  19   5     2.837773568768   118.85330247   232.36523576
 C     21  20  19     2.630724872000   120.55252143   234.70995636
 C     22  21  20     2.639553779984   120.97232418   181.65268752
 C     23  22  21     2.630524312457   119.45047241   359.74901499
 C     24  23  22     2.640587161401   120.72341542     0.18090539
 C     25  24  23     2.633046411686   119.15490534     0.32309405
 O     26  25  24     2.547164797009   124.82106913   179.15817601
 C     27  26  25     2.665830300447   120.13125155     6.27138899
 N     19   5   4     2.846313564236   107.04482711    91.53523037
 O     29  19   5     2.280353364603   117.14842168   279.14820218
 H     20  19   5     2.070760741598   104.28236470   113.79812868
 H     22  21  20     2.066172112261   118.87781358     1.68364957
 H     23  22  21     2.063470745935   120.07158785   180.01191730
 H     24  23  22     2.065243282614   120.17154839   180.26330376
 H     25  24  23     2.060620307879   120.17149319   179.97233150
 H     28  27  26     2.082239143349   110.80235909    60.00269975
 H     28  27  26     2.081056882673   111.27605830   297.88336446
 H     28  27  26     2.071727360894   106.29214085   178.94697485
 O     29  19   5     2.283694312002   116.78577482    91.94172638
 H     11  10   8     2.076830418996   110.54357687    61.25413223
 H      2   1   3     2.058120813730   121.56595721   179.90616075
 N     19   5   4     2.845750422559   112.05980260   204.76148308
 O     42  19   5     2.279665190306   116.12489845   173.40888693
 O     42  19   5     2.280141580534   117.98945017   350.54089819

---------------------
BASIS SET INFORMATION
---------------------
There are 4 groups of distinct atoms

 Group   1 Type C   : 11s6p2d1f contracted to 5s3p2d1f pattern {62111/411/11/1}
 Group   2 Type N   : 11s6p2d1f contracted to 5s3p2d1f pattern {62111/411/11/1}
 Group   3 Type O   : 11s6p2d1f contracted to 5s3p2d1f pattern {62111/411/11/1}
 Group   4 Type H   : 5s1p contracted to 3s1p pattern {311/1}

Atom   0C    basis set group =>   1
Atom   1C    basis set group =>   1
Atom   2C    basis set group =>   1
Atom   3N    basis set group =>   2
Atom   4C    basis set group =>   1
Atom   5C    basis set group =>   1
Atom   6C    basis set group =>   1
Atom   7C    basis set group =>   1
Atom   8O    basis set group =>   3
Atom   9O    basis set group =>   3
Atom  10C    basis set group =>   1
Atom  11H    basis set group =>   4
Atom  12H    basis set group =>   4
Atom  13H    basis set group =>   4
Atom  14H    basis set group =>   4
Atom  15H    basis set group =>   4
Atom  16H    basis set group =>   4
Atom  17H    basis set group =>   4
Atom  18C    basis set group =>   1
Atom  19C    basis set group =>   1
Atom  20C    basis set group =>   1
Atom  21C    basis set group =>   1
Atom  22C    basis set group =>   1
Atom  23C    basis set group =>   1
Atom  24C    basis set group =>   1
Atom  25C    basis set group =>   1
Atom  26O    basis set group =>   3
Atom  27C    basis set group =>   1
Atom  28N    basis set group =>   2
Atom  29O    basis set group =>   3
Atom  30H    basis set group =>   4
Atom  31H    basis set group =>   4
Atom  32H    basis set group =>   4
Atom  33H    basis set group =>   4
Atom  34H    basis set group =>   4
Atom  35H    basis set group =>   4
Atom  36H    basis set group =>   4
Atom  37H    basis set group =>   4
Atom  38O    basis set group =>   3
Atom  39H    basis set group =>   4
Atom  40H    basis set group =>   4
Atom  41N    basis set group =>   2
Atom  42O    basis set group =>   3
Atom  43O    basis set group =>   3
---------------------------------
AUXILIARY/J BASIS SET INFORMATION
---------------------------------
There are 4 groups of distinct atoms

 Group   1 Type C   : 12s5p4d2f1g contracted to 6s4p3d1f1g pattern {711111/2111/211/2/1}
 Group   2 Type N   : 12s5p4d2f1g contracted to 6s4p3d1f1g pattern {711111/2111/211/2/1}
 Group   3 Type O   : 12s5p4d2f1g contracted to 6s4p3d1f1g pattern {711111/2111/211/2/1}
 Group   4 Type H   : 5s2p1d contracted to 3s1p1d pattern {311/2/1}

Atom   0C    basis set group =>   1
Atom   1C    basis set group =>   1
Atom   2C    basis set group =>   1
Atom   3N    basis set group =>   2
Atom   4C    basis set group =>   1
Atom   5C    basis set group =>   1
Atom   6C    basis set group =>   1
Atom   7C    basis set group =>   1
Atom   8O    basis set group =>   3
Atom   9O    basis set group =>   3
Atom  10C    basis set group =>   1
Atom  11H    basis set group =>   4
Atom  12H    basis set group =>   4
Atom  13H    basis set group =>   4
Atom  14H    basis set group =>   4
Atom  15H    basis set group =>   4
Atom  16H    basis set group =>   4
Atom  17H    basis set group =>   4
Atom  18C    basis set group =>   1
Atom  19C    basis set group =>   1
Atom  20C    basis set group =>   1
Atom  21C    basis set group =>   1
Atom  22C    basis set group =>   1
Atom  23C    basis set group =>   1
Atom  24C    basis set group =>   1
Atom  25C    basis set group =>   1
Atom  26O    basis set group =>   3
Atom  27C    basis set group =>   1
Atom  28N    basis set group =>   2
Atom  29O    basis set group =>   3
Atom  30H    basis set group =>   4
Atom  31H    basis set group =>   4
Atom  32H    basis set group =>   4
Atom  33H    basis set group =>   4
Atom  34H    basis set group =>   4
Atom  35H    basis set group =>   4
Atom  36H    basis set group =>   4
Atom  37H    basis set group =>   4
Atom  38O    basis set group =>   3
Atom  39H    basis set group =>   4
Atom  40H    basis set group =>   4
Atom  41N    basis set group =>   2
Atom  42O    basis set group =>   3
Atom  43O    basis set group =>   3


           ************************************************************
           *        Program running with 24 parallel MPI-processes    *
           *              working on a common directory               *
           ************************************************************
------------------------------------------------------------------------------
                           ORCA GTO INTEGRAL CALCULATION
                           -- RI-GTO INTEGRALS CHOSEN --
------------------------------------------------------------------------------
------------------------------------------------------------------------------
                   ___                                                        
                  /   \      - P O W E R E D   B Y -                         
                 /     \                                                     
                 |  |  |   _    _      __       _____    __    __             
                 |  |  |  | |  | |    /  \     |  _  \  |  |  /  |          
                  \  \/   | |  | |   /    \    | | | |  |  | /  /          
                 / \  \   | |__| |  /  /\  \   | |_| |  |  |/  /          
                |  |  |   |  __  | /  /__\  \  |    /   |      \           
                |  |  |   | |  | | |   __   |  |    \   |  |\   \          
                \     /   | |  | | |  |  |  |  | |\  \  |  | \   \       
                 \___/    |_|  |_| |__|  |__|  |_| \__\ |__|  \__/        
                                                                              
                      - O R C A' S   B I G   F R I E N D -                    
                                      &                                       
                       - I N T E G R A L  F E E D E R -                       
                                                                              
 v1 FN, 2020, v2 2021                                                         
------------------------------------------------------------------------------


Reading SHARK input file 3_NO2/3_NO2.SHARKINP.tmp ... ok
----------------------
SHARK INTEGRAL PACKAGE
----------------------

Number of atoms                             ...     44
Number of basis functions                   ...    939
Number of shells                            ...    365
Maximum angular momentum                    ...      3
Integral batch strategy                     ... SHARK/LIBINT Hybrid
RI-J (if used) integral strategy            ... SPLIT-RIJ (Revised 2003 algorithm where possible)
Printlevel                                  ...      1
Contraction scheme used                     ... SEGMENTED contraction
Coulomb Range Separation                    ... NOT USED
Exchange Range Separation                   ... NOT USED
Finite Nucleus Model                        ... NOT USED
Auxiliary Coulomb fitting basis             ... AVAILABLE
   # of basis functions in Aux-J            ...   1510
   # of shells in Aux-J                     ...    490
   Maximum angular momentum in Aux-J        ...      4
Auxiliary J/K fitting basis                 ... NOT available
Auxiliary Correlation fitting basis         ... NOT available
Auxiliary 'external' fitting basis          ... NOT available
Integral threshold                          ...     2.500000e-11
Primitive cut-off                           ...     2.500000e-12
Primitive pair pre-selection threshold      ...     2.500000e-12

Calculating pre-screening integrals         ... done (  0.1 sec) Dimension = 365
Organizing shell pair data                  ... done (  0.7 sec)
Shell pair information
Total number of shell pairs                 ...     66795
Shell pairs after pre-screening             ...     49403
Total number of primitive shell pairs       ...    207048
Primitive shell pairs kept                  ...     99752
          la=0 lb=0:  12200 shell pairs
          la=1 lb=0:  14056 shell pairs
          la=1 lb=1:   4037 shell pairs
          la=2 lb=0:   7161 shell pairs
          la=2 lb=1:   4202 shell pairs
          la=2 lb=2:   1109 shell pairs
          la=3 lb=0:   3333 shell pairs
          la=3 lb=1:   2011 shell pairs
          la=3 lb=2:   1036 shell pairs
          la=3 lb=3:    258 shell pairs

Calculating one electron integrals          ... done (  0.1 sec)
Calculating RI/J V-Matrix + Cholesky decomp.... done (  0.2 sec)
Calculating Nuclear repulsion               ... done (  0.0 sec) ENN=   2837.591231319367 Eh

SHARK setup successfully completed in   1.9 seconds

Maximum memory used throughout the entire GTOINT-calculation: 74.4 MB


           ************************************************************
           *        Program running with 24 parallel MPI-processes    *
           *              working on a common directory               *
           ************************************************************
-------------------------------------------------------------------------------
                                 ORCA SCF
-------------------------------------------------------------------------------

------------
SCF SETTINGS
------------
Hamiltonian:
 Density Functional     Method          .... DFT(GTOs)
 Exchange Functional    Exchange        .... PBE
   PBE kappa parameter   XKappa         ....  0.804000
   PBE mue parameter    XMuePBE         ....  0.219520
 Correlation Functional Correlation     .... PBE
   PBE beta parameter  CBetaPBE         ....  0.066725
 LDA part of GGA corr.  LDAOpt          .... PW91-LDA
 Gradients option       PostSCFGGA      .... off
 Hybrid DFT is turned on
   Fraction HF Exchange ScalHFX         ....  0.250000
   Scaling of DF-GGA-X  ScalDFX         ....  0.750000
   Scaling of DF-GGA-C  ScalDFC         ....  1.000000
   Scaling of DF-LDA-C  ScalLDAC        ....  1.000000
   Perturbative correction              ....  0.000000
   Density functional embedding theory  .... OFF
   NL short-range parameter             ....  6.900000
 RI-approximation to the Coulomb term is turned on
   Number of AuxJ basis functions       .... 1510
   RIJ-COSX (HFX calculated with COS-X)).... on


General Settings:
 Integral files         IntName         .... 3_NO2/3_NO2
 Hartree-Fock type      HFTyp           .... RHF
 Total Charge           Charge          ....    0
 Multiplicity           Mult            ....    1
 Number of Electrons    NEL             ....  196
 Basis Dimension        Dim             ....  939
 Nuclear Repulsion      ENuc            ....   2837.5912313194 Eh

Convergence Acceleration:
 DIIS                   CNVDIIS         .... on
   Start iteration      DIISMaxIt       ....    12
   Startup error        DIISStart       ....  0.200000
   # of expansion vecs  DIISMaxEq       ....     5
   Bias factor          DIISBfac        ....   1.050
   Max. coefficient     DIISMaxC        ....  10.000
 Trust-Rad. Augm. Hess. CNVTRAH         .... auto
   Auto Start mean grad. ratio tolernc. ....  1.125000
   Auto Start start iteration           ....    20
   Auto Start num. interpolation iter.  ....    10
   Max. Number of Micro iterations      ....    16
   Max. Number of Macro iterations      .... Maxiter - #DIIS iter
   Number of Davidson start vectors     ....     2
   Converg. threshold I  (grad. norm)   ....   1.000e-05
   Converg. threshold II (energy diff.) ....   1.000e-08
   Grad. Scal. Fac. for Micro threshold ....   0.100
   Minimum threshold for Micro iter.    ....   0.010
   NR start threshold (gradient norm)   ....   0.001
   Initial trust radius                 ....   0.400
   Minimum AH scaling param. (alpha)    ....   1.000
   Maximum AH scaling param. (alpha)    .... 1000.000
   Orbital update algorithm             .... Taylor
   White noise on init. David. guess    .... on
   Maximum white noise                  ....   0.010
   Quad. conv. algorithm                .... NR
 SOSCF                  CNVSOSCF        .... on
   Start iteration      SOSCFMaxIt      ....   150
   Startup grad/error   SOSCFStart      ....  0.003300
 Level Shifting         CNVShift        .... on
   Level shift para.    LevelShift      ....    0.2500
   Turn off err/grad.   ShiftErr        ....    0.0010
 Zerner damping         CNVZerner       .... off
 Static damping         CNVDamp         .... on
   Fraction old density DampFac         ....    0.7000
   Max. Damping (<1)    DampMax         ....    0.9800
   Min. Damping (>=0)   DampMin         ....    0.0000
   Turn off err/grad.   DampErr         ....    0.1000
 Fernandez-Rico         CNVRico         .... off

SCF Procedure:
 Maximum # iterations   MaxIter         ....   800
 SCF integral mode      SCFMode         .... Direct
   Integral package                     .... SHARK and LIBINT hybrid scheme
 Reset frequency        DirectResetFreq ....    20
 Integral Threshold     Thresh          ....  2.500e-11 Eh
 Primitive CutOff       TCut            ....  2.500e-12 Eh

Convergence Tolerance:
 Convergence Check Mode ConvCheckMode   .... Total+1el-Energy
 Convergence forced     ConvForced      .... 0
 Energy Change          TolE            ....  1.000e-08 Eh
 1-El. energy change                    ....  1.000e-05 Eh
 Orbital Gradient       TolG            ....  1.000e-05
 Orbital Rotation angle TolX            ....  1.000e-05
 DIIS Error             TolErr          ....  5.000e-07


Diagonalization of the overlap matrix:
Smallest eigenvalue                        ... 5.514e-06
Time for diagonalization                   ...    0.278 sec
Threshold for overlap eigenvalues          ... 1.000e-08
Number of eigenvalues below threshold      ... 0
Time for construction of square roots      ...    0.167 sec
Total time needed                          ...    0.452 sec

Time for model grid setup =    0.353 sec

------------------------------
INITIAL GUESS: MODEL POTENTIAL
------------------------------
Loading Hartree-Fock densities                     ... done
Calculating cut-offs                               ... done
Initializing the effective Hamiltonian             ... done
Setting up the integral package (SHARK)            ... done
Starting the Coulomb interaction                   ... done (   0.6 sec)
Reading the grid                                   ... done
Mapping shells                                     ... done
Starting the XC term evaluation                    ... done (   0.3 sec)
  promolecular density results
     # of electrons  =    195.992311297
     EX              =   -168.763544012
     EC              =     -6.696029508
     EX+EC           =   -175.459573520
Transforming the Hamiltonian                       ... done (   0.2 sec)
Diagonalizing the Hamiltonian                      ... done (   0.3 sec)
Back transforming the eigenvectors                 ... done (   0.1 sec)
Now organizing SCF variables                       ... done
                      ------------------
                      INITIAL GUESS DONE (   2.1 sec)
                      ------------------
-------------------
DFT GRID GENERATION
-------------------

General Integration Accuracy     IntAcc      ... 4.388
Radial Grid Type                 RadialGrid  ... OptM3 with GC (2021)
Angular Grid (max. ang.)         AngularGrid ... 4 (Lebedev-302)
Angular grid pruning method      GridPruning ... 4 (adaptive)
Weight generation scheme         WeightScheme... Becke
Basis function cutoff            BFCut       ... 1.0000e-11
Integration weight cutoff        WCut        ... 1.0000e-14
Angular grids for H and He will be reduced by one unit
Partially contracted basis set               ... off
Rotationally invariant grid construction     ... off

Total number of grid points                  ...   214542
Total number of batches                      ...     3374
Average number of points per batch           ...       63
Average number of grid points per atom       ...     4876
Time for grid setup =    1.588 sec

--------------------
COSX GRID GENERATION
--------------------

GRIDX 1
-------
General Integration Accuracy     IntAcc      ... 3.816
Radial Grid Type                 RadialGrid  ... OptM3 with GC (2021)
Angular Grid (max. ang.)         AngularGrid ... 1 (Lebedev-50)
Angular grid pruning method      GridPruning ... 4 (adaptive)
Weight generation scheme         WeightScheme... Becke
Basis function cutoff            BFCut       ... 1.0000e-11
Integration weight cutoff        WCut        ... 1.0000e-14
Angular grids for H and He will be reduced by one unit
Partially contracted basis set               ... on
Rotationally invariant grid construction     ... off

Total number of grid points                  ...    27191
Total number of batches                      ...      446
Average number of points per batch           ...       60
Average number of grid points per atom       ...      618
UseSFitting                                  ... on

GRIDX 2
-------
General Integration Accuracy     IntAcc      ... 4.020
Radial Grid Type                 RadialGrid  ... OptM3 with GC (2021)
Angular Grid (max. ang.)         AngularGrid ... 2 (Lebedev-110)
Angular grid pruning method      GridPruning ... 4 (adaptive)
Weight generation scheme         WeightScheme... Becke
Basis function cutoff            BFCut       ... 1.0000e-11
Integration weight cutoff        WCut        ... 1.0000e-14
Angular grids for H and He will be reduced by one unit
Partially contracted basis set               ... on
Rotationally invariant grid construction     ... off

Total number of grid points                  ...    59262
Total number of batches                      ...      947
Average number of points per batch           ...       62
Average number of grid points per atom       ...     1347
UseSFitting                                  ... on

GRIDX 3
-------
General Integration Accuracy     IntAcc      ... 4.338
Radial Grid Type                 RadialGrid  ... OptM3 with GC (2021)
Angular Grid (max. ang.)         AngularGrid ... 3 (Lebedev-194)
Angular grid pruning method      GridPruning ... 4 (adaptive)
Weight generation scheme         WeightScheme... Becke
Basis function cutoff            BFCut       ... 1.0000e-11
Integration weight cutoff        WCut        ... 1.0000e-14
Angular grids for H and He will be reduced by one unit
Partially contracted basis set               ... on
Rotationally invariant grid construction     ... off

Total number of grid points                  ...   129472
Total number of batches                      ...     2046
Average number of points per batch           ...       63
Average number of grid points per atom       ...     2943
UseSFitting                                  ... on

Time for X-Grid setup             =    2.921 sec


--------------------
CPCM SOLVATION MODEL
--------------------
CPCM parameters:
  Epsilon                                         ...      47.2000
  Refrac                                          ...       1.4790
  Rsolv                                           ...       1.3000
  Surface type                                    ... GAUSSIAN VDW
  Epsilon function type                           ...         CPCM
Radii:
 Radius for C  used is    3.8550 Bohr (=   2.0400 Ang.)
 Radius for N  used is    3.5149 Bohr (=   1.8600 Ang.)
 Radius for O  used is    3.4469 Bohr (=   1.8240 Ang.)
 Radius for H  used is    2.4944 Bohr (=   1.3200 Ang.)
Calculating surface                               ...        done! (  0.0s)
GEPOL surface points                              ...         2171
GEPOL Volume                                      ...    2698.9320
GEPOL Surface-area                                ...    1284.0237
Calculating surface distance matrix               ...        done! (  0.1s)
Performing Cholesky decomposition & store         ...        done! (  0.3s)
Overall time for CPCM initialization              ...                 0.4s
--------------
SCF ITERATIONS
--------------
ITER       Energy         Delta-E        Max-DP      RMS-DP      [F,P]     Damp
               ***  Starting incremental Fock matrix formation  ***
  0  -1347.0103118746   0.000000000000 0.24066886  0.00080119  0.2657964 0.7000
  1  -1347.3183328833  -0.308021008754 0.14590912  0.00056231  0.1057404 0.7000
                               ***Turning on DIIS***
  2  -1347.4294734319  -0.111140548583 0.11094174  0.00095168  0.0343976 0.0000
  3  -1347.6312928971  -0.201819465212 0.13910907  0.00045772  0.0523631 0.0000
  4  -1347.6607555856  -0.029462688493 0.02339182  0.00018538  0.0199248 0.0000
                      *** Initiating the SOSCF procedure ***
                           *** Shutting down DIIS ***
                      *** Re-Reading the Fockian *** 
                      *** Removing any level shift *** 
ITER      Energy       Delta-E        Grad      Rot      Max-DP    RMS-DP
  5  -1347.66401378  -0.0032581969  0.000440  0.000440  0.010259  0.000053
               *** Restarting incremental Fock matrix formation ***
  6  -1347.66411506  -0.0001012777  0.000285  0.001017  0.005070  0.000042
  7  -1347.66410859   0.0000064684  0.000515  0.000766  0.001758  0.000012
  8  -1347.66413228  -0.0000236890  0.000177  0.000542  0.000995  0.000008
  9  -1347.66413050   0.0000017804  0.000324  0.000392  0.000765  0.000004
 10  -1347.66413319  -0.0000026939  0.000042  0.000101  0.000317  0.000002
 11  -1347.66413309   0.0000001009  0.000051  0.000066  0.000154  0.000001
 12  -1347.66413326  -0.0000001687  0.000007  0.000026  0.000674  0.000003
 13  -1347.66413324   0.0000000208  0.000012  0.000019  0.000169  0.000001
                  ***Gradient check signals convergence***
              ***Rediagonalizing the Fockian in SOSCF/NRSCF***

               *****************************************************
               *                     SUCCESS                       *
               *           SCF CONVERGED AFTER  14 CYCLES          *
               *****************************************************

Old exchange energy                            =    -42.875742913 Eh
New exchange energy                            =    -42.875748606 Eh
Exchange energy change after final integration =     -0.000005692 Eh
Total energy after final integration           =  -1347.664138970 Eh
Final COS-X integration done in                =    21.317 sec

----------------
TOTAL SCF ENERGY
----------------

Total Energy       :        -1347.66413897 Eh          -36671.80558 eV

Components:
Nuclear Repulsion  :         2837.59123132 Eh           77214.78293 eV
Electronic Energy  :        -4185.25537029 Eh         -113886.58851 eV
One Electron Energy:        -7485.03140135 Eh         -203678.05922 eV
Two Electron Energy:         3299.77603106 Eh           89791.47072 eV
Max COSX asymmetry :            0.00000239 Eh               0.00007 eV
CPCM Dielectric    :           -0.03088264 Eh              -0.84036 eV

Virial components:
Potential Energy   :        -2689.29845015 Eh          -73179.53120 eV
Kinetic Energy     :         1341.63431118 Eh           36507.72562 eV
Virial Ratio       :            2.00449439


DFT components:
N(Alpha)           :       98.000037534564 electrons
N(Beta)            :       98.000037534564 electrons
N(Total)           :      196.000075069129 electrons
E(X)               :     -128.510784222834 Eh       
E(C)               :       -6.682974563973 Eh       
E(XC)              :     -135.193758786807 Eh       
DFET-embed. en.    :        0.000000000000 Eh       
CPCM Solvation Model Properties:
Surface-charge          :           -0.02909180
Charge-correction       :            0.00001853 Eh               0.00050 eV
Free-energy (cav+disp)  :  This term is not implemented in the current solvation scheme

---------------
SCF CONVERGENCE
---------------

  Last Energy change         ...   -3.6701e-08  Tolerance :   1.0000e-08
  Last MAX-Density change    ...    2.4425e-15  Tolerance :   1.0000e-07
  Last RMS-Density change    ...    1.4173e-17  Tolerance :   5.0000e-09
  Last Orbital Gradient      ...    1.3026e-06  Tolerance :   1.0000e-05
  Last Orbital Rotation      ...    3.8901e-06  Tolerance :   1.0000e-05

             **** THE GBW FILE WAS UPDATED (3_NO2/3_NO2.gbw) ****
             **** DENSITY 3_NO2/3_NO2.scfp WAS UPDATED ****
             **** ENERGY FILE WAS UPDATED (3_NO2/3_NO2.en.tmp) ****
             **** THE GBW FILE WAS UPDATED (3_NO2/3_NO2.gbw) ****
             **** DENSITY 3_NO2/3_NO2.scfp WAS UPDATED ****
----------------
ORBITAL ENERGIES
----------------

  NO   OCC          E(Eh)            E(eV) 
   0   2.0000     -19.269452      -524.3484 
   1   2.0000     -19.267930      -524.3070 
   2   2.0000     -19.267168      -524.2863 
   3   2.0000     -19.266823      -524.2769 
   4   2.0000     -19.266468      -524.2672 
   5   2.0000     -19.256538      -523.9970 
   6   2.0000     -19.205703      -522.6138 
   7   2.0000     -14.647336      -398.5743 
   8   2.0000     -14.645753      -398.5312 
   9   2.0000     -14.435344      -392.8057 
  10   2.0000     -10.363328      -282.0005 
  11   2.0000     -10.359316      -281.8913 
  12   2.0000     -10.302534      -280.3462 
  13   2.0000     -10.298176      -280.2276 
  14   2.0000     -10.297654      -280.2134 
  15   2.0000     -10.282554      -279.8025 
  16   2.0000     -10.274108      -279.5727 
  17   2.0000     -10.273953      -279.5685 
  18   2.0000     -10.273536      -279.5571 
  19   2.0000     -10.249362      -278.8993 
  20   2.0000     -10.239207      -278.6230 
  21   2.0000     -10.237631      -278.5801 
  22   2.0000     -10.236771      -278.5567 
  23   2.0000     -10.232920      -278.4519 
  24   2.0000     -10.231531      -278.4141 
  25   2.0000     -10.228057      -278.3196 
  26   2.0000     -10.214949      -277.9629 
  27   2.0000      -1.312550       -35.7163 
  28   2.0000      -1.296583       -35.2818 
  29   2.0000      -1.157782       -31.5049 
  30   2.0000      -1.127448       -30.6794 
  31   2.0000      -1.125596       -30.6290 
  32   2.0000      -1.121010       -30.5042 
  33   2.0000      -1.065698       -28.9991 
  34   2.0000      -1.031545       -28.0698 
  35   2.0000      -0.922746       -25.1092 
  36   2.0000      -0.892923       -24.2977 
  37   2.0000      -0.862314       -23.4648 
  38   2.0000      -0.818307       -22.2673 
  39   2.0000      -0.804530       -21.8924 
  40   2.0000      -0.787774       -21.4364 
  41   2.0000      -0.783024       -21.3072 
  42   2.0000      -0.755445       -20.5567 
  43   2.0000      -0.746609       -20.3163 
  44   2.0000      -0.724838       -19.7238 
  45   2.0000      -0.712274       -19.3820 
  46   2.0000      -0.676939       -18.4204 
  47   2.0000      -0.654385       -17.8067 
  48   2.0000      -0.640032       -17.4162 
  49   2.0000      -0.625952       -17.0330 
  50   2.0000      -0.616980       -16.7889 
  51   2.0000      -0.615644       -16.7525 
  52   2.0000      -0.604110       -16.4387 
  53   2.0000      -0.594331       -16.1726 
  54   2.0000      -0.579396       -15.7662 
  55   2.0000      -0.566698       -15.4206 
  56   2.0000      -0.561909       -15.2903 
  57   2.0000      -0.561210       -15.2713 
  58   2.0000      -0.553523       -15.0621 
  59   2.0000      -0.546357       -14.8671 
  60   2.0000      -0.527840       -14.3633 
  61   2.0000      -0.527155       -14.3446 
  62   2.0000      -0.520296       -14.1580 
  63   2.0000      -0.507286       -13.8040 
  64   2.0000      -0.505629       -13.7589 
  65   2.0000      -0.490925       -13.3587 
  66   2.0000      -0.487736       -13.2720 
  67   2.0000      -0.484821       -13.1926 
  68   2.0000      -0.469522       -12.7763 
  69   2.0000      -0.465209       -12.6590 
  70   2.0000      -0.458437       -12.4747 
  71   2.0000      -0.446275       -12.1438 
  72   2.0000      -0.444505       -12.0956 
  73   2.0000      -0.439300       -11.9540 
  74   2.0000      -0.428704       -11.6656 
  75   2.0000      -0.413287       -11.2461 
  76   2.0000      -0.408328       -11.1112 
  77   2.0000      -0.402204       -10.9445 
  78   2.0000      -0.390094       -10.6150 
  79   2.0000      -0.386901       -10.5281 
  80   2.0000      -0.382839       -10.4176 
  81   2.0000      -0.376614       -10.2482 
  82   2.0000      -0.374301       -10.1853 
  83   2.0000      -0.367497       -10.0001 
  84   2.0000      -0.360593        -9.8122 
  85   2.0000      -0.358266        -9.7489 
  86   2.0000      -0.352516        -9.5924 
  87   2.0000      -0.349873        -9.5205 
  88   2.0000      -0.347695        -9.4613 
  89   2.0000      -0.343630        -9.3506 
  90   2.0000      -0.341814        -9.3012 
  91   2.0000      -0.338845        -9.2204 
  92   2.0000      -0.331019        -9.0075 
  93   2.0000      -0.315579        -8.5873 
  94   2.0000      -0.303038        -8.2461 
  95   2.0000      -0.274574        -7.4716 
  96   2.0000      -0.244631        -6.6568 
  97   2.0000      -0.207387        -5.6433 
  98   0.0000      -0.091142        -2.4801 
  99   0.0000      -0.087990        -2.3943 
 100   0.0000      -0.034406        -0.9362 
 101   0.0000      -0.022616        -0.6154 
 102   0.0000      -0.004695        -0.1278 
 103   0.0000      -0.000216        -0.0059 
 104   0.0000       0.043891         1.1943 
 105   0.0000       0.051033         1.3887 
 106   0.0000       0.058669         1.5965 
 107   0.0000       0.071269         1.9393 
 108   0.0000       0.072912         1.9840 
 109   0.0000       0.080561         2.1922 
 110   0.0000       0.087501         2.3810 
 111   0.0000       0.088450         2.4069 
 112   0.0000       0.091380         2.4866 
 113   0.0000       0.102471         2.7884 
 114   0.0000       0.104133         2.8336 
 115   0.0000       0.109414         2.9773 
 116   0.0000       0.113605         3.0914 
 117   0.0000       0.116357         3.1662 
 118   0.0000       0.121074         3.2946 
 119   0.0000       0.124288         3.3820 
 120   0.0000       0.127128         3.4593 
 121   0.0000       0.135902         3.6981 
 122   0.0000       0.139891         3.8066 
 123   0.0000       0.140317         3.8182 
 124   0.0000       0.143634         3.9085 
 125   0.0000       0.152121         4.1394 
 126   0.0000       0.159954         4.3526 
 127   0.0000       0.163016         4.4359 
 128   0.0000       0.167270         4.5517 
 129   0.0000       0.172961         4.7065 
 130   0.0000       0.179007         4.8710 
 131   0.0000       0.187567         5.1040 
 132   0.0000       0.192498         5.2381 
 133   0.0000       0.195039         5.3073 
 134   0.0000       0.200750         5.4627 
 135   0.0000       0.209383         5.6976 
 136   0.0000       0.210875         5.7382 
 137   0.0000       0.213029         5.7968 
 138   0.0000       0.217451         5.9171 
 139   0.0000       0.221086         6.0161 
 140   0.0000       0.224213         6.1011 
 141   0.0000       0.227519         6.1911 
 142   0.0000       0.234911         6.3922 
 143   0.0000       0.238564         6.4917 
 144   0.0000       0.243673         6.6307 
 145   0.0000       0.248501         6.7621 
 146   0.0000       0.256077         6.9682 
 147   0.0000       0.257494         7.0068 
 148   0.0000       0.262130         7.1329 
 149   0.0000       0.263422         7.1681 
 150   0.0000       0.269703         7.3390 
 151   0.0000       0.274540         7.4706 
 152   0.0000       0.281292         7.6544 
 153   0.0000       0.284899         7.7525 
 154   0.0000       0.287386         7.8202 
 155   0.0000       0.292013         7.9461 
 156   0.0000       0.299574         8.1518 
 157   0.0000       0.302426         8.2294 
 158   0.0000       0.306206         8.3323 
 159   0.0000       0.312454         8.5023 
 160   0.0000       0.313989         8.5441 
 161   0.0000       0.316904         8.6234 
 162   0.0000       0.322491         8.7754 
 163   0.0000       0.325025         8.8444 
 164   0.0000       0.329616         8.9693 
 165   0.0000       0.334241         9.0952 
 166   0.0000       0.337472         9.1831 
 167   0.0000       0.338147         9.2014 
 168   0.0000       0.345303         9.3962 
 169   0.0000       0.347871         9.4661 
 170   0.0000       0.355630         9.6772 
 171   0.0000       0.357913         9.7393 
 172   0.0000       0.360829         9.8187 
 173   0.0000       0.361864         9.8468 
 174   0.0000       0.368913        10.0386 
 175   0.0000       0.373253        10.1567 
 176   0.0000       0.378854        10.3092 
 177   0.0000       0.381727        10.3873 
 178   0.0000       0.385134        10.4800 
 179   0.0000       0.392846        10.6899 
 180   0.0000       0.394181        10.7262 
 181   0.0000       0.398614        10.8468 
 182   0.0000       0.401628        10.9289 
 183   0.0000       0.404831        11.0160 
 184   0.0000       0.405692        11.0394 
 185   0.0000       0.411285        11.1916 
 186   0.0000       0.416558        11.3351 
 187   0.0000       0.425067        11.5667 
 188   0.0000       0.426085        11.5944 
 189   0.0000       0.432094        11.7579 
 190   0.0000       0.435384        11.8474 
 191   0.0000       0.435850        11.8601 
 192   0.0000       0.438084        11.9209 
 193   0.0000       0.443682        12.0732 
 194   0.0000       0.445747        12.1294 
 195   0.0000       0.448496        12.2042 
 196   0.0000       0.454096        12.3566 
 197   0.0000       0.459592        12.5061 
 198   0.0000       0.463104        12.6017 
 199   0.0000       0.464971        12.6525 
 200   0.0000       0.466150        12.6846 
 201   0.0000       0.471659        12.8345 
 202   0.0000       0.476603        12.9690 
 203   0.0000       0.482319        13.1246 
 204   0.0000       0.485424        13.2091 
 205   0.0000       0.490061        13.3352 
 206   0.0000       0.494536        13.4570 
 207   0.0000       0.496648        13.5145 
 208   0.0000       0.502657        13.6780 
 209   0.0000       0.506712        13.7883 
 210   0.0000       0.507237        13.8026 
 211   0.0000       0.513132        13.9630 
 212   0.0000       0.515384        14.0243 
 213   0.0000       0.519678        14.1412 
 214   0.0000       0.522567        14.2198 
 215   0.0000       0.525019        14.2865 
 216   0.0000       0.528180        14.3725 
 217   0.0000       0.531473        14.4621 
 218   0.0000       0.534599        14.5472 
 219   0.0000       0.542798        14.7703 
 220   0.0000       0.542945        14.7743 
 221   0.0000       0.550720        14.9859 
 222   0.0000       0.558161        15.1883 
 223   0.0000       0.563823        15.3424 
 224   0.0000       0.566999        15.4288 
 225   0.0000       0.574873        15.6431 
 226   0.0000       0.584821        15.9138 
 227   0.0000       0.590396        16.0655 
 228   0.0000       0.593705        16.1555 
 229   0.0000       0.598327        16.2813 
 230   0.0000       0.601728        16.3739 
 231   0.0000       0.616710        16.7815 
 232   0.0000       0.621471        16.9111 
 233   0.0000       0.628998        17.1159 
 234   0.0000       0.634367        17.2620 
 235   0.0000       0.640131        17.4189 
 236   0.0000       0.647148        17.6098 
 237   0.0000       0.649899        17.6846 
 238   0.0000       0.655106        17.8263 
 239   0.0000       0.657811        17.8999 
 240   0.0000       0.666206        18.1284 
 241   0.0000       0.670259        18.2387 
 242   0.0000       0.674219        18.3464 
 243   0.0000       0.678069        18.4512 
 244   0.0000       0.688220        18.7274 
 245   0.0000       0.693202        18.8630 
 246   0.0000       0.699209        19.0264 
 247   0.0000       0.705803        19.2059 
 248   0.0000       0.713139        19.4055 
 249   0.0000       0.720010        19.5925 
 250   0.0000       0.723745        19.6941 
 251   0.0000       0.731943        19.9172 
 252   0.0000       0.738945        20.1077 
 253   0.0000       0.742202        20.1963 
 254   0.0000       0.744451        20.2575 
 255   0.0000       0.750538        20.4232 
 256   0.0000       0.755649        20.5622 
 257   0.0000       0.757413        20.6102 
 258   0.0000       0.760579        20.6964 
 259   0.0000       0.768102        20.9011 
 260   0.0000       0.776243        21.1226 
 261   0.0000       0.789108        21.4727 
 262   0.0000       0.793279        21.5862 
 263   0.0000       0.795336        21.6422 
 264   0.0000       0.798200        21.7201 
 265   0.0000       0.815496        22.1908 
 266   0.0000       0.816704        22.2236 
 267   0.0000       0.831909        22.6374 
 268   0.0000       0.833929        22.6924 
 269   0.0000       0.835142        22.7254 
 270   0.0000       0.842634        22.9292 
 271   0.0000       0.850840        23.1525 
 272   0.0000       0.851138        23.1607 
 273   0.0000       0.867884        23.6163 
 274   0.0000       0.871244        23.7077 
 275   0.0000       0.875313        23.8185 
 276   0.0000       0.878927        23.9168 
 277   0.0000       0.884626        24.0719 
 278   0.0000       0.897939        24.4342 
[...]
 24:    242.04   0.000435    2.20  0.000560  (-0.018755  0.012029 -0.007997)
 25:    247.29   0.001932    9.76  0.002438  (-0.006345  0.048340 -0.007804)
 26:    275.34   0.003464   17.51  0.003926  ( 0.058551 -0.012013  0.018800)
 27:    282.78   0.000198    1.00  0.000219  (-0.008592  0.003082 -0.011645)
 28:    301.43   0.000552    2.79  0.000571  (-0.021612 -0.010185  0.000555)
 29:    316.42   0.000762    3.85  0.000751  (-0.022595 -0.014260 -0.006123)
 30:    338.56   0.001012    5.11  0.000933  ( 0.030530  0.000563 -0.000454)
 31:    358.15   0.004848   24.50  0.004224  ( 0.033838  0.055405  0.003097)
 32:    377.84   0.003065   15.49  0.002531  ( 0.022677 -0.043776 -0.010023)
 33:    418.57   0.003712   18.76  0.002767  (-0.003514  0.040708  0.033134)
 34:    446.27   0.000214    1.08  0.000149  ( 0.000186 -0.008009 -0.009226)
 35:    477.09   0.002470   12.48  0.001615  (-0.025555  0.015176  0.027054)
 36:    482.77   0.000122    0.62  0.000079  ( 0.004860  0.003606  0.006520)
 37:    503.70   0.001514    7.65  0.000938  ( 0.004188 -0.029727 -0.006065)
 38:    547.24   0.003787   19.14  0.002160  ( 0.015014 -0.043683  0.005092)
 39:    568.02   0.006043   30.54  0.003320  (-0.054857 -0.007357 -0.016013)
 40:    583.99   0.001103    5.57  0.000589  ( 0.017846 -0.016459  0.000104)
 41:    592.26   0.002732   13.80  0.001439  ( 0.017824  0.000029 -0.033490)
 42:    607.02   0.006373   32.21  0.003276  ( 0.040191 -0.031397  0.025989)
 43:    620.25   0.003823   19.32  0.001924  ( 0.027078  0.025427 -0.023322)
 44:    646.15   0.001919    9.70  0.000927  ( 0.009420  0.028243  0.006370)
 45:    656.02   0.006566   33.18  0.003124  (-0.035770  0.026945  0.033437)
 46:    675.75   0.001538    7.77  0.000710  ( 0.002202 -0.022568 -0.013999)
 47:    696.47   0.001313    6.64  0.000588  (-0.008651  0.022655 -0.000452)
 48:    714.06   0.016157   81.65  0.007061  (-0.008821 -0.054941 -0.062965)
 49:    758.62   0.007976   40.31  0.003281  (-0.009196  0.056495 -0.002148)
 50:    766.77   0.002980   15.06  0.001213  ( 0.010245 -0.033244  0.001611)
 51:    774.30   0.014837   74.98  0.005980  (-0.021162  0.070497 -0.023706)
 52:    798.83   0.005555   28.07  0.002170  (-0.018615  0.033034  0.027063)
 53:    803.86   0.009879   49.93  0.003835  ( 0.003607  0.047795  0.039215)
 54:    829.11   0.009725   49.15  0.003660  ( 0.037840  0.046985 -0.004588)
 55:    834.82   0.030333  153.29  0.011339  ( 0.029125  0.100206  0.021192)
 56:    853.86   0.008765   44.30  0.003203  ( 0.006147  0.001933 -0.056231)
 57:    873.60   0.003251   16.43  0.001161  ( 0.016574 -0.026272  0.014011)
 58:    876.52   0.005235   26.45  0.001864  ( 0.021412 -0.036592  0.008135)
 59:    898.25   0.000852    4.31  0.000296  ( 0.009744 -0.010689 -0.009315)
 60:    924.61   0.002199   11.11  0.000742  ( 0.011194 -0.024834 -0.000414)
 61:    950.82   0.001304    6.59  0.000428  (-0.020165  0.004170  0.001997)
 62:    958.95   0.000293    1.48  0.000095  ( 0.003340 -0.008704  0.002907)
 63:    978.51   0.017597   88.93  0.005612  (-0.026140  0.067394  0.019670)
 64:    987.21   0.002186   11.05  0.000691  ( 0.015203  0.020987 -0.004395)
 65:    992.81   0.000165    0.83  0.000052  ( 0.001339  0.006954  0.001318)
 66:   1004.48   0.001103    5.58  0.000343  ( 0.013276 -0.007581 -0.010446)
 67:   1009.84   0.006109   30.87  0.001888  ( 0.025239 -0.019749 -0.029340)
 68:   1016.90   0.002468   12.47  0.000757  (-0.021276 -0.011886  0.012784)
 69:   1042.89   0.008988   45.42  0.002689  (-0.036911  0.034638 -0.011278)
 70:   1057.78   0.002448   12.37  0.000722  ( 0.017055  0.007836 -0.019233)
 71:   1068.16   0.012457   62.95  0.003639  (-0.029649  0.007765  0.051962)
 72:   1072.32   0.002322   11.74  0.000676  ( 0.018223  0.018399 -0.002280)
 73:   1083.56   0.010904   55.11  0.003140  ( 0.003001  0.005943  0.055642)
 74:   1134.73   0.000327    1.65  0.000090  ( 0.009079 -0.002103  0.001754)
 75:   1147.90   0.013723   69.35  0.003731  (-0.017071  0.008034  0.058092)
 76:   1157.30   0.003713   18.76  0.001001  ( 0.011442 -0.028999  0.005408)
 77:   1171.20   0.000302    1.53  0.000080  (-0.003640 -0.007167  0.003976)
 78:   1173.61   0.000166    0.84  0.000044  ( 0.003314  0.002336 -0.005275)
 79:   1174.01   0.000820    4.14  0.000218  ( 0.007049 -0.004054 -0.012322)
 80:   1196.79   0.004986   25.20  0.001300  ( 0.034218 -0.007966 -0.008109)
 81:   1206.06   0.002734   13.81  0.000707  ( 0.020366 -0.012712  0.011442)
 82:   1206.44   0.003653   18.46  0.000945  ( 0.023372 -0.009528 -0.017548)
 83:   1228.38   0.003112   15.73  0.000791  ( 0.021013  0.018682  0.000027)
 84:   1242.70   0.017521   88.55  0.004400  (-0.060705 -0.012301 -0.023738)
 85:   1252.13   0.036045  182.16  0.008983  ( 0.077116 -0.054454  0.008449)
 86:   1260.13   0.075923  383.68  0.018802  (-0.121130  0.062387 -0.015398)
 87:   1274.71   0.013124   66.32  0.003213  (-0.049246 -0.005474  0.027525)
 88:   1308.55   0.051357  259.54  0.012248  ( 0.046587  0.037510  0.093115)
 89:   1319.36   0.007860   39.72  0.001859  ( 0.003956  0.025474  0.034560)
 90:   1326.16   0.011897   60.12  0.002799  ( 0.047548  0.022380  0.006153)
 91:   1350.40   0.001728    8.73  0.000399  (-0.016904  0.003590 -0.010032)
 92:   1365.18   0.009870   49.88  0.002256  ( 0.028395 -0.024620 -0.029049)
 93:   1371.28   0.035348  178.64  0.008044  (-0.087915  0.017755  0.000050)
 94:   1391.23   0.001931    9.76  0.000433  ( 0.003157  0.001781 -0.020495)
 95:   1402.18   0.002970   15.01  0.000661  ( 0.015322 -0.000102 -0.020644)
 96:   1409.74   0.042709  215.83  0.009454  (-0.045245  0.037708  0.077363)
 97:   1441.09   0.018758   94.79  0.004062  (-0.054258 -0.026531  0.020349)
 98:   1462.00   0.044339  224.07  0.009464  (-0.013694  0.091176 -0.031039)
 99:   1464.84   0.002805   14.18  0.000598  ( 0.006854  0.022744 -0.005774)
100:   1466.35   0.005372   27.15  0.001143  ( 0.001814 -0.027882 -0.019040)
101:   1469.50   0.006342   32.05  0.001347  (-0.036453 -0.000403  0.004213)
102:   1471.06   0.005066   25.60  0.001075  ( 0.017797 -0.020253  0.018651)
103:   1476.40   0.003302   16.69  0.000698  (-0.001939 -0.011377 -0.023766)
104:   1484.05   0.003045   15.39  0.000640  (-0.015628 -0.007191 -0.018555)
105:   1501.72   0.008532   43.12  0.001773  (-0.002347 -0.017096 -0.038410)
106:   1503.01   0.028481  143.93  0.005913  ( 0.073044  0.021759 -0.010223)
107:   1542.33   0.024951  126.09  0.005048  ( 0.026649  0.022828  0.061783)
108:   1618.18   0.028639  144.73  0.005523  (-0.060976  0.038984 -0.016888)
109:   1653.56   0.012355   62.43  0.002332  ( 0.027627 -0.028188  0.027816)
110:   1661.24   0.149764  756.85  0.028133  (-0.057187  0.045167 -0.151072)
111:   1667.14   0.018179   91.87  0.003403  ( 0.039855  0.015771  0.039569)
112:   1672.75   0.097009  490.25  0.018098  (-0.072911 -0.100105 -0.052542)
113:   1707.69   0.036736  185.65  0.006713  ( 0.079549  0.018564 -0.006365)
114:   1796.92   0.106620  538.81  0.018516  (-0.073724 -0.055612 -0.099941)
115:   3032.09   0.002184   11.04  0.000225  ( 0.011045  0.008665 -0.005264)
116:   3046.21   0.010189   51.49  0.001044  (-0.011323  0.000747  0.030250)
117:   3075.31   0.006153   31.10  0.000624  ( 0.017831 -0.014290 -0.010111)
118:   3110.62   0.001087    5.49  0.000109  (-0.009914  0.003171 -0.000852)
119:   3121.48   0.006228   31.47  0.000623  (-0.008491  0.023291 -0.002844)
120:   3136.70   0.001323    6.68  0.000132  ( 0.007409 -0.002965 -0.008241)
121:   3159.51   0.003724   18.82  0.000368  (-0.006167 -0.015070  0.010132)
122:   3172.27   0.002699   13.64  0.000266  (-0.012717 -0.005712 -0.008436)
123:   3189.24   0.000526    2.66  0.000051  (-0.004684 -0.000431  0.005418)
124:   3191.61   0.002850   14.40  0.000279  ( 0.012653  0.000338  0.010885)
125:   3191.65   0.002011   10.16  0.000197  (-0.012079  0.004712 -0.005339)
126:   3198.47   0.001505    7.60  0.000147  (-0.010854 -0.002012  0.004993)
127:   3216.12   0.002668   13.48  0.000259  ( 0.009574  0.005122  0.011874)
128:   3218.81   0.000169    0.85  0.000016  ( 0.003554  0.001873  0.000507)
129:   3226.84   0.000217    1.10  0.000021  (-0.004161 -0.000575 -0.001833)
130:   3230.27   0.000199    1.01  0.000019  (-0.002978 -0.000030  0.003225)
131:   3249.10   0.000425    2.15  0.000041  ( 0.000577  0.004697 -0.004291)

* The epsilon (eps) is given for a Dirac delta lineshape.
** The dipole moment derivative (T) already includes vibrational overlap.

The first frequency considered to be a vibration is 6
The total number of vibrations considered is 126


--------------------------
THERMOCHEMISTRY AT 298.15K
--------------------------

Temperature         ... 298.15 K
Pressure            ... 1.00 atm
Total Mass          ... 375.34 AMU

Throughout the following assumptions are being made:
  (1) The electronic state is orbitally nondegenerate
  (2) There are no thermally accessible electronically excited states
  (3) Hindered rotations indicated by low frequency modes are not
      treated as such but are treated as vibrations and this may
      cause some error
  (4) All equations used are the standard statistical mechanics
      equations for an ideal gas
  (5) All vibrations are strictly harmonic

freq.      19.97  E(vib)   ...       0.56 
freq.      50.65  E(vib)   ...       0.52 
freq.      60.85  E(vib)   ...       0.51 
freq.      72.15  E(vib)   ...       0.50 
freq.      73.16  E(vib)   ...       0.49 
freq.      86.89  E(vib)   ...       0.48 
freq.      89.86  E(vib)   ...       0.47 
freq.     100.30  E(vib)   ...       0.46 
freq.     117.82  E(vib)   ...       0.44 
freq.     120.03  E(vib)   ...       0.44 
freq.     129.53  E(vib)   ...       0.43 
freq.     144.52  E(vib)   ...       0.41 
freq.     147.07  E(vib)   ...       0.41 
freq.     155.75  E(vib)   ...       0.40 
freq.     192.79  E(vib)   ...       0.36 
freq.     198.90  E(vib)   ...       0.35 
freq.     208.15  E(vib)   ...       0.34 
freq.     225.51  E(vib)   ...       0.33 
freq.     242.04  E(vib)   ...       0.31 
freq.     247.29  E(vib)   ...       0.31 
freq.     275.34  E(vib)   ...       0.28 
freq.     282.78  E(vib)   ...       0.28 
freq.     301.43  E(vib)   ...       0.26 
freq.     316.42  E(vib)   ...       0.25 
freq.     338.56  E(vib)   ...       0.23 
freq.     358.15  E(vib)   ...       0.22 
freq.     377.84  E(vib)   ...       0.21 
freq.     418.57  E(vib)   ...       0.18 
freq.     446.27  E(vib)   ...       0.17 
freq.     477.09  E(vib)   ...       0.15 
freq.     482.77  E(vib)   ...       0.15 
freq.     503.70  E(vib)   ...       0.14 
freq.     547.24  E(vib)   ...       0.12 
freq.     568.02  E(vib)   ...       0.11 
freq.     583.99  E(vib)   ...       0.11 
freq.     592.26  E(vib)   ...       0.10 
freq.     607.02  E(vib)   ...       0.10 
freq.     620.25  E(vib)   ...       0.09 
freq.     646.15  E(vib)   ...       0.09 
freq.     656.02  E(vib)   ...       0.08 
freq.     675.75  E(vib)   ...       0.08 
freq.     696.47  E(vib)   ...       0.07 
freq.     714.06  E(vib)   ...       0.07 
freq.     758.62  E(vib)   ...       0.06 
freq.     766.77  E(vib)   ...       0.06 
freq.     774.30  E(vib)   ...       0.05 
freq.     798.83  E(vib)   ...       0.05 
freq.     803.86  E(vib)   ...       0.05 
freq.     829.11  E(vib)   ...       0.04 
freq.     834.82  E(vib)   ...       0.04 
freq.     853.86  E(vib)   ...       0.04 
freq.     873.60  E(vib)   ...       0.04 
freq.     876.52  E(vib)   ...       0.04 
freq.     898.25  E(vib)   ...       0.03 
freq.     924.61  E(vib)   ...       0.03 
freq.     950.82  E(vib)   ...       0.03 
freq.     958.95  E(vib)   ...       0.03 
freq.     978.51  E(vib)   ...       0.03 
freq.     987.21  E(vib)   ...       0.02 
freq.     992.81  E(vib)   ...       0.02 
freq.    1004.48  E(vib)   ...       0.02 
freq.    1009.84  E(vib)   ...       0.02 
freq.    1016.90  E(vib)   ...       0.02 
freq.    1042.89  E(vib)   ...       0.02 
freq.    1057.78  E(vib)   ...       0.02 
freq.    1068.16  E(vib)   ...       0.02 
freq.    1072.32  E(vib)   ...       0.02 
freq.    1083.56  E(vib)   ...       0.02 
freq.    1134.73  E(vib)   ...       0.01 
freq.    1147.90  E(vib)   ...       0.01 
freq.    1157.30  E(vib)   ...       0.01 
freq.    1171.20  E(vib)   ...       0.01 
freq.    1173.61  E(vib)   ...       0.01 
freq.    1174.01  E(vib)   ...       0.01 
freq.    1196.79  E(vib)   ...       0.01 
freq.    1206.06  E(vib)   ...       0.01 
freq.    1206.44  E(vib)   ...       0.01 
freq.    1228.38  E(vib)   ...       0.01 
freq.    1242.70  E(vib)   ...       0.01 
freq.    1252.13  E(vib)   ...       0.01 
freq.    1260.13  E(vib)   ...       0.01 
freq.    1274.71  E(vib)   ...       0.01 
freq.    1308.55  E(vib)   ...       0.01 
freq.    1319.36  E(vib)   ...       0.01 
freq.    1326.16  E(vib)   ...       0.01 
freq.    1350.40  E(vib)   ...       0.01 
freq.    1365.18  E(vib)   ...       0.01 
freq.    1371.28  E(vib)   ...       0.01 
freq.    1391.23  E(vib)   ...       0.00 
freq.    1402.18  E(vib)   ...       0.00 
freq.    1409.74  E(vib)   ...       0.00 
freq.    1441.09  E(vib)   ...       0.00 
freq.    1462.00  E(vib)   ...       0.00 
freq.    1464.84  E(vib)   ...       0.00 
freq.    1466.35  E(vib)   ...       0.00 
freq.    1469.50  E(vib)   ...       0.00 
freq.    1471.06  E(vib)   ...       0.00 
freq.    1476.40  E(vib)   ...       0.00 
freq.    1484.05  E(vib)   ...       0.00 
freq.    1501.72  E(vib)   ...       0.00 
freq.    1503.01  E(vib)   ...       0.00 
freq.    1542.33  E(vib)   ...       0.00 
freq.    1618.18  E(vib)   ...       0.00 
freq.    1653.56  E(vib)   ...       0.00 
freq.    1661.24  E(vib)   ...       0.00 
freq.    1667.14  E(vib)   ...       0.00 
freq.    1672.75  E(vib)   ...       0.00 
freq.    1707.69  E(vib)   ...       0.00 
freq.    1796.92  E(vib)   ...       0.00 
freq.    3032.09  E(vib)   ...       0.00 
freq.    3046.21  E(vib)   ...       0.00 
freq.    3075.31  E(vib)   ...       0.00 
freq.    3110.62  E(vib)   ...       0.00 
freq.    3121.48  E(vib)   ...       0.00 
freq.    3136.70  E(vib)   ...       0.00 
freq.    3159.51  E(vib)   ...       0.00 
freq.    3172.27  E(vib)   ...       0.00 
freq.    3189.24  E(vib)   ...       0.00 
freq.    3191.61  E(vib)   ...       0.00 
freq.    3191.65  E(vib)   ...       0.00 
freq.    3198.47  E(vib)   ...       0.00 
freq.    3216.12  E(vib)   ...       0.00 
freq.    3218.81  E(vib)   ...       0.00 
freq.    3226.84  E(vib)   ...       0.00 
freq.    3230.27  E(vib)   ...       0.00 
freq.    3249.10  E(vib)   ...       0.00 

------------
INNER ENERGY
------------

The inner energy is: U= E(el) + E(ZPE) + E(vib) + E(rot) + E(trans)
    E(el)   - is the total energy from the electronic structure calculation
              = E(kin-el) + E(nuc-el) + E(el-el) + E(nuc-nuc)
    E(ZPE)  - the the zero temperature vibrational energy from the frequency calculation
    E(vib)  - the the finite temperature correction to E(ZPE) due to population
              of excited vibrational states
    E(rot)  - is the rotational thermal energy
    E(trans)- is the translational thermal energy

Summary of contributions to the inner energy U:
Electronic energy                ...  -1347.72742060 Eh
Zero point energy                ...      0.33781371 Eh     211.98 kcal/mol
Thermal vibrational correction   ...      0.02091825 Eh      13.13 kcal/mol
Thermal rotational correction    ...      0.00141627 Eh       0.89 kcal/mol
Thermal translational correction ...      0.00141627 Eh       0.89 kcal/mol
-----------------------------------------------------------------------
Total thermal energy                  -1347.36585609 Eh


Summary of corrections to the electronic energy:
(perhaps to be used in another calculation)
Total thermal correction                  0.02375079 Eh      14.90 kcal/mol
Non-thermal (ZPE) correction              0.33781371 Eh     211.98 kcal/mol
-----------------------------------------------------------------------
Total correction                          0.36156451 Eh     226.88 kcal/mol


--------
ENTHALPY
--------

The enthalpy is H = U + kB*T
                kB is Boltzmann's constant
Total free energy                 ...  -1347.36585609 Eh 
Thermal Enthalpy correction       ...      0.00094421 Eh       0.59 kcal/mol
-----------------------------------------------------------------------
Total Enthalpy                    ...  -1347.36491188 Eh


Note: Only C1 symmetry has been detected, increase convergence thresholds 
      if your molecule has a higher symmetry. Symmetry factor of 1.0 is   
      used for the rotational entropy correction. 
 

Note: Rotational entropy computed according to Herzberg 
Infrared and Raman Spectra, Chapter V,1, Van Nostrand Reinhold, 1945 
Point Group:  C1, Symmetry Number:   1  
Rotational constants in cm-1:     0.010632     0.006622     0.005495 

Vibrational entropy computed according to the QRRHO of S. Grimme
Chem.Eur.J. 2012 18 9955


-------
ENTROPY
-------

The entropy contributions are T*S = T*(S(el)+S(vib)+S(rot)+S(trans))
     S(el)   - electronic entropy
     S(vib)  - vibrational entropy
     S(rot)  - rotational entropy
     S(trans)- translational entropy
The entropies will be listed as multiplied by the temperature to get
units of energy

Electronic entropy                ...      0.00000000 Eh      0.00 kcal/mol
Vibrational entropy               ...      0.03727588 Eh     23.39 kcal/mol
Rotational entropy                ...      0.01648132 Eh     10.34 kcal/mol
Translational entropy             ...      0.02074448 Eh     13.02 kcal/mol
-----------------------------------------------------------------------
Final entropy term                ...      0.07450168 Eh     46.75 kcal/mol

In case the symmetry of your molecule has not been determined correctly
or in case you have a reason to use a different symmetry number we print 
out the resulting rotational entropy values for sn=1,12 :
 --------------------------------------------------------
|  sn= 1 | S(rot)=       0.01648132 Eh     10.34 kcal/mol|
|  sn= 2 | S(rot)=       0.01582687 Eh      9.93 kcal/mol|
|  sn= 3 | S(rot)=       0.01544403 Eh      9.69 kcal/mol|
|  sn= 4 | S(rot)=       0.01517241 Eh      9.52 kcal/mol|
|  sn= 5 | S(rot)=       0.01496172 Eh      9.39 kcal/mol|
|  sn= 6 | S(rot)=       0.01478958 Eh      9.28 kcal/mol|
|  sn= 7 | S(rot)=       0.01464403 Eh      9.19 kcal/mol|
|  sn= 8 | S(rot)=       0.01451795 Eh      9.11 kcal/mol|
|  sn= 9 | S(rot)=       0.01440675 Eh      9.04 kcal/mol|
|  sn=10 | S(rot)=       0.01430727 Eh      8.98 kcal/mol|
|  sn=11 | S(rot)=       0.01421728 Eh      8.92 kcal/mol|
|  sn=12 | S(rot)=       0.01413512 Eh      8.87 kcal/mol|
 --------------------------------------------------------


-------------------
GIBBS FREE ENERGY
-------------------

The Gibbs free energy is G = H - T*S

Total enthalpy                    ...  -1347.36491188 Eh 
Total entropy correction          ...     -0.07450168 Eh    -46.75 kcal/mol
-----------------------------------------------------------------------
Final Gibbs free energy         ...  -1347.43941356 Eh

For completeness - the Gibbs free energy minus the electronic energy
G-E(el)                           ...      0.28800704 Eh    180.73 kcal/mol


Timings for individual modules:

Sum of individual times         ...     6955.554 sec (= 115.926 min)
GTO integral calculation        ...       36.111 sec (=   0.602 min)   0.5 %
SCF iterations                  ...     2277.265 sec (=  37.954 min)  32.7 %
SCF Gradient evaluation         ...      534.236 sec (=   8.904 min)   7.7 %
Geometry relaxation             ...        2.308 sec (=   0.038 min)   0.0 %
Analytical frequency calculation...     4105.633 sec (=  68.427 min)  59.0 %
                             ****ORCA TERMINATED NORMALLY****
TOTAL RUN TIME: 0 days 1 hours 56 minutes 38 seconds 972 msec
