
                                 *****************
                                 * O   R   C   A *
                                 *****************

                                            #,                                       
                                            ###                                      
                                            ####                                     
                                            #####                                    
                                            ######                                   
                                           ########,                                 
                                     ,,################,,,,,                         
                               ,,#################################,,                 
                          ,,##########################################,,             
                       ,#########################################, ''#####,          
                    ,#############################################,,   '####,        
                  ,##################################################,,,,####,       
                ,###########''''           ''''###############################       
              ,#####''   ,,,,##########,,,,          '''####'''          '####       
            ,##' ,,,,###########################,,,                        '##       
           ' ,,###''''                  '''############,,,                           
         ,,##''                                '''############,,,,        ,,,,,,###''
      ,#''                                            '''#######################'''  
     '                                                          ''''####''''         
             ,#######,   #######,   ,#######,      ##                                
            ,#'     '#,  ##    ##  ,#'     '#,    #''#        ######   ,####,        
            ##       ##  ##   ,#'  ##            #'  '#       #        #'  '#        
            ##       ##  #######   ##           ,######,      #####,   #    #        
            '#,     ,#'  ##    ##  '#,     ,#' ,#      #,         ##   #,  ,#        
             '#######'   ##     ##  '#######'  #'      '#     #####' # '####'        



                  #######################################################
                  #                        -***-                        #
                  #          Department of theory and spectroscopy      #
                  #    Directorship and core code : Frank Neese         #
                  #        Max Planck Institute fuer Kohlenforschung    #
                  #                Kaiser Wilhelm Platz 1               #
                  #                 D-45470 Muelheim/Ruhr               #
                  #                      Germany                        #
                  #                                                     #
                  #                  All rights reserved                #
                  #                        -***-                        #
                  #######################################################


                         Program Version 5.0.4 -  RELEASE  -


 With contributions from (in alphabetic order):
   Daniel Aravena         : Magnetic Suceptibility
   Michael Atanasov       : Ab Initio Ligand Field Theory (pilot matlab implementation)
   Alexander A. Auer      : GIAO ZORA, VPT2 properties, NMR spectrum
   Ute Becker             : Parallelization
   Giovanni Bistoni       : ED, misc. LED, open-shell LED, HFLD
   Martin Brehm           : Molecular dynamics
   Dmytro Bykov           : SCF Hessian
   Vijay G. Chilkuri      : MRCI spin determinant printing, contributions to CSF-ICE
   Dipayan Datta          : RHF DLPNO-CCSD density
   Achintya Kumar Dutta   : EOM-CC, STEOM-CC
   Dmitry Ganyushin       : Spin-Orbit,Spin-Spin,Magnetic field MRCI
   Miquel Garcia          : C-PCM and meta-GGA Hessian, CC/C-PCM, Gaussian charge scheme
   Yang Guo               : DLPNO-NEVPT2, F12-NEVPT2, CIM, IAO-localization
   Andreas Hansen         : Spin unrestricted coupled pair/coupled cluster methods
   Benjamin Helmich-Paris : MC-RPA, TRAH-SCF, COSX integrals
   Lee Huntington         : MR-EOM, pCC
   Robert Izsak           : Overlap fitted RIJCOSX, COSX-SCS-MP3, EOM
   Marcus Kettner         : VPT2
   Christian Kollmar      : KDIIS, OOCD, Brueckner-CCSD(T), CCSD density, CASPT2, CASPT2-K
   Simone Kossmann        : Meta GGA functionals, TD-DFT gradient, OOMP2, MP2 Hessian
   Martin Krupicka        : Initial AUTO-CI
   Lucas Lang             : DCDCAS
   Marvin Lechner         : AUTO-CI (C++ implementation), FIC-MRCC
   Dagmar Lenk            : GEPOL surface, SMD
   Dimitrios Liakos       : Extrapolation schemes; Compound Job, initial MDCI parallelization
   Dimitrios Manganas     : Further ROCIS development; embedding schemes
   Dimitrios Pantazis     : SARC Basis sets
   Anastasios Papadopoulos: AUTO-CI, single reference methods and gradients
   Taras Petrenko         : DFT Hessian,TD-DFT gradient, ASA, ECA, R-Raman, ABS, FL, XAS/XES, NRVS
   Peter Pinski           : DLPNO-MP2, DLPNO-MP2 Gradient
   Christoph Reimann      : Effective Core Potentials
   Marius Retegan         : Local ZFS, SOC
   Christoph Riplinger    : Optimizer, TS searches, QM/MM, DLPNO-CCSD(T), (RO)-DLPNO pert. Triples
   Tobias Risthaus        : Range-separated hybrids, TD-DFT gradient, RPA, STAB
   Michael Roemelt        : Original ROCIS implementation
   Masaaki Saitow         : Open-shell DLPNO-CCSD energy and density
   Barbara Sandhoefer     : DKH picture change effects
   Avijit Sen             : IP-ROCIS
   Kantharuban Sivalingam : CASSCF convergence, NEVPT2, FIC-MRCI
   Bernardo de Souza      : ESD, SOC TD-DFT
   Georgi Stoychev        : AutoAux, RI-MP2 NMR, DLPNO-MP2 response
   Willem Van den Heuvel  : Paramagnetic NMR
   Boris Wezisla          : Elementary symmetry handling
   Frank Wennmohs         : Technical directorship


 We gratefully acknowledge several colleagues who have allowed us to
 interface, adapt or use parts of their codes:
   Stefan Grimme, W. Hujo, H. Kruse, P. Pracht,  : VdW corrections, initial TS optimization,
                  C. Bannwarth, S. Ehlert          DFT functionals, gCP, sTDA/sTD-DF
   Ed Valeev, F. Pavosevic, A. Kumar             : LibInt (2-el integral package), F12 methods
   Garnet Chan, S. Sharma, J. Yang, R. Olivares  : DMRG
   Ulf Ekstrom                                   : XCFun DFT Library
   Mihaly Kallay                                 : mrcc  (arbitrary order and MRCC methods)
   Jiri Pittner, Ondrej Demel                    : Mk-CCSD
   Frank Weinhold                                : gennbo (NPA and NBO analysis)
   Christopher J. Cramer and Donald G. Truhlar   : smd solvation model
   Lars Goerigk                                  : TD-DFT with DH, B97 family of functionals
   V. Asgeirsson, H. Jonsson                     : NEB implementation
   FAccTs GmbH                                   : IRC, NEB, NEB-TS, DLPNO-Multilevel, CI-OPT
                                                   MM, QMMM, 2- and 3-layer-ONIOM, Crystal-QMMM,
                                                   LR-CPCM, SF, NACMEs, symmetry and pop. for TD-DFT,
                                                   nearIR, NL-DFT gradient (VV10), updates on ESD,
                                                   ML-optimized integration grids
   S Lehtola, MJT Oliveira, MAL Marques          : LibXC Library
   Liviu Ungur et al                             : ANISO software


 Your calculation uses the libint2 library for the computation of 2-el integrals
 For citations please refer to: http://libint.valeyev.net

 Your ORCA version has been built with support for libXC version: 5.1.0
 For citations please refer to: https://tddft.org/programs/libxc/

 This ORCA versions uses:
   CBLAS   interface :  Fast vector & matrix operations
   LAPACKE interface :  Fast linear algebra routines
   SCALAPACK package :  Parallel linear algebra routines
   Shared memory     :  Shared parallel matrices
   BLAS/LAPACK       :  OpenBLAS 0.3.15  USE64BITINT DYNAMIC_ARCH NO_AFFINITY Haswell SINGLE_THREADED
        Core in use  :  Haswell
   Copyright (c) 2011-2014, The OpenBLAS Project


Your calculation utilizes the atom-pairwise dispersion correction
with the Becke-Johnson damping scheme (D3BJ)
Cite in your paper:
S.Grimme, S.Ehrlich, L.Goerigk, J Comput Chem, (2011), 32, 1456–1465 
S.Grimme, J.Antony, S.Ehrlich and H.Krieg, J.Chem.Phys., 132, (2010), 154104 
   

================================================================================

----- Orbital basis set information -----
Your calculation utilizes the basis: def2-TZVP
   F. Weigend and R. Ahlrichs, Phys. Chem. Chem. Phys. 7, 3297 (2005).

----- AuxJ basis set information -----
Your calculation utilizes the auxiliary basis: def2/J
   F. Weigend, Phys. Chem. Chem. Phys. 8, 1057 (2006).

================================================================================
                                        WARNINGS
                       Please study these warnings very carefully!
================================================================================


WARNING: Geometry Optimization
  ===> : Switching off AutoStart
         For restart on a previous wavefunction, please use MOREAD

INFO   : the flag for use of the SHARK integral package has been found!

================================================================================
                                       INPUT FILE
================================================================================
NAME = 3_NMe2/3_NMe2.inp
|  1> %pal nprocs 24 end
|  2> ! PBE0 D3BJ def2-TZVP TightSCF OPT FREQ TightOpt
|  3> ! CPCM(dmso)
|  4> %scf
|  5> MaxIter 800
|  6> end
|  7> 
|  8> %geom
|  9> MaxIter 800
| 10> MaxStep 0.15
| 11> end
| 12> 
| 13> *xyz 0 1
| 14> C       4.21316400      0.99955800      0.55393100
| 15> C       3.80159300      2.14090400     -0.23209500
| 16> C       2.50708200      2.18030200     -0.63698000
| 17> N       1.60086200      1.24670900     -0.24140900
| 18> C       1.85321200      0.25485800      0.78583900
| 19> C       3.33170100      0.08332000      1.00380300
| 20> C       0.30042700      1.11631900     -0.83118000
| 21> C      -0.66771300      2.16918200     -0.31365000
| 22> O      -0.49039000      2.84806100      0.66696100
| 23> O      -1.73833300      2.24031100     -1.09232300
| 24> C      -2.79555000      3.08563400     -0.65323200
| 25> H       5.27714800      0.85967100      0.76704900
| 26> H       2.12362000      2.94032400     -1.32318100
| 27> H       1.34443100      0.52995600      1.73752300
| 28> H       3.67136600     -0.78665900      1.56570400
| 29> H       0.35652000      1.23165400     -1.92399000
| 30> H      -3.58737000      3.00096200     -1.40538500
| 31> H      -2.45283400      4.12705700     -0.57621700
| 32> C       1.03894700     -0.97040800      0.26956100
| 33> C      -0.16845300     -0.33582100     -0.48164900
| 34> C      -1.47665500     -0.39215500      0.26840900
| 35> C      -1.59603800     -0.06305400      1.61914300
| 36> C      -2.83061600     -0.07931100      2.26916200
| 37> C      -3.97289100     -0.42748300      1.55392600
| 38> C      -3.88681200     -0.75738400      0.20139900
| 39> C      -2.64477000     -0.74027500     -0.44344100
| 40> O      -2.48285500     -1.04742500     -1.74679400
| 41> C      -3.60803800     -1.40216000     -2.51581600
| 42> N       1.97594500     -1.58547400     -0.84397600
| 43> O       1.96022000     -1.10938800     -1.95568200
| 44> H      -0.31173100     -0.86406100     -1.42807300
| 45> H      -0.70337500      0.21292600      2.18232500
| 46> H      -2.89441300      0.18041000      3.32798200
| 47> H      -4.94861900     -0.44415900      2.04617400
| 48> H      -4.79042700     -1.02594500     -0.34588500
| 49> H      -4.09967400     -2.30646600     -2.12032500
| 50> H      -3.24064900     -1.60570000     -3.52899600
| 51> H      -4.34309700     -0.58118300     -2.55518900
| 52> O       2.70689000     -2.48172000     -0.48930900
| 53> H      -3.16681300      2.75239200      0.32681100
| 54> H       4.51152200      2.89878600     -0.56058200
| 55> N       0.70735300     -1.93932200      1.21763500
| 56> C      -0.00606500     -3.09970300      0.73494500
| 57> H      -0.70051500     -2.82071900     -0.06873500
| 58> H       0.67427800     -3.88072100      0.34461400
| 59> H      -0.59877500     -3.53589200      1.55343700
| 60> C       1.52339800     -2.18823100      2.38213400
| 61> H       1.83909900     -1.24991300      2.85571800
| 62> H       0.91169400     -2.72944900      3.11984700
| 63> H       2.42084900     -2.79882700      2.16935300
| 64> *
| 65> 
| 66>                          ****END OF INPUT****
================================================================================

                       *****************************
                       * Geometry Optimization Run *
                       *****************************

Geometry optimization settings:
Update method            Update   .... BFGS
Choice of coordinates    CoordSys .... Z-matrix Internals
Initial Hessian          InHess   .... Almoef's Model

Convergence Tolerances:
Energy Change            TolE     ....  1.0000e-06 Eh
Max. Gradient            TolMAXG  ....  1.0000e-04 Eh/bohr
RMS Gradient             TolRMSG  ....  3.0000e-05 Eh/bohr
Max. Displacement        TolMAXD  ....  1.0000e-03 bohr
RMS Displacement         TolRMSD  ....  6.0000e-04 bohr
Strict Convergence                ....  False
------------------------------------------------------------------------------
                        ORCA OPTIMIZATION COORDINATE SETUP
------------------------------------------------------------------------------

The optimization will be done in new redundant internal coordinates
Making redundant internal coordinates   ...  (new redundants) done
Evaluating the initial hessian          ...  (Almloef) done
Evaluating the coordinates              ...  done
Calculating the B-matrix                .... done
Calculating the G-matrix                .... done
Diagonalizing the G-matrix              .... done
Small eigenvalue found = 4.439e-03
Small eigenvalue found = 5.783e-03
Small eigenvalue found = 1.058e-02
Small eigenvalue found = 1.159e-02
Small eigenvalue found = 1.693e-02
Small eigenvalue found = 1.939e-02
Small eigenvalue found = 2.058e-02
The first mode is                       ....  131
The number of degrees of freedom        ....  144

    -----------------------------------------------------------------
                    Redundant Internal Coordinates


    -----------------------------------------------------------------
         Definition                    Initial Value    Approx d2E/dq
    -----------------------------------------------------------------
      1. B(C   1,C   0)                  1.4456         0.509279   
      2. B(C   2,C   1)                  1.3569         0.705520   
      3. B(N   3,C   2)                  1.3599         0.625044   
      4. B(C   4,N   3)                  1.4501         0.448793   
      5. B(C   5,C   4)                  1.5043         0.410591   
      6. B(C   5,C   0)                  1.3486         0.727297   
      7. B(C   6,N   3)                  1.4339         0.476316   
      8. B(C   7,C   6)                  1.5211         0.386034   
      9. B(O   8,C   7)                  1.2058         1.100977   
     10. B(O   9,C   7)                  1.3258         0.708564   
     11. B(C  10,O   9)                  1.4231         0.495612   
     12. B(H  11,C   0)                  1.0941         0.354720   
     13. B(H  12,C   2)                  1.0934         0.355615   
     14. B(H  13,C   4)                  1.1137         0.330122   
     15. B(H  14,C   5)                  1.0899         0.360180   
     16. B(H  15,C   6)                  1.1003         0.346716   
     17. B(H  16,C  10)                  1.0954         0.353038   
     18. B(H  17,C  10)                  1.0991         0.348304   
     19. B(C  18,C   4)                  1.5591         0.335678   
     20. B(C  19,C  18)                  1.5572         0.338066   
     21. B(C  19,C   6)                  1.5655         0.327921   
     22. B(C  20,C  19)                  1.5090         0.403500   
     23. B(C  21,C  20)                  1.3954         0.612604   
     24. B(C  22,C  21)                  1.3953         0.612661   
     25. B(C  23,C  22)                  1.3920         0.620293   
     26. B(C  24,C  23)                  1.3948         0.613790   
     27. B(C  25,C  24)                  1.3996         0.603225   
     28. B(C  25,C  20)                  1.4115         0.577288   
     29. B(O  26,C  25)                  1.3488         0.651017   
     30. B(C  27,O  26)                  1.4083         0.523241   
     31. B(N  28,C  18)                  1.5799         0.278500   
     32. B(O  29,N  28)                  1.2095         0.972862   
     33. B(H  30,C  19)                  1.0933         0.355773   
     34. B(H  31,C  21)                  1.0910         0.358837   
     35. B(H  32,C  22)                  1.0921         0.357367   
     36. B(H  33,C  23)                  1.0930         0.356164   
     37. B(H  34,C  24)                  1.0900         0.360061   
     38. B(H  35,C  27)                  1.1027         0.343719   
     39. B(H  36,C  27)                  1.0968         0.351235   
     40. B(H  37,C  27)                  1.1027         0.343732   
     41. B(O  38,N  28)                  1.2097         0.972078   
     42. B(H  39,C  10)                  1.0997         0.347476   
     43. B(H  40,C   1)                  1.0892         0.361202   
     44. B(N  41,C  18)                  1.3956         0.548279   
     45. B(C  42,N  41)                  1.4451         0.456981   
     46. B(H  43,C  42)                  1.0982         0.349443   
     47. B(H  44,C  42)                  1.1069         0.338431   
     48. B(H  45,C  42)                  1.1007         0.346246   
     49. B(C  46,N  41)                  1.4436         0.459601   
     50. B(H  47,C  46)                  1.0974         0.350382   
     51. B(H  48,C  46)                  1.1006         0.346348   
     52. B(H  49,C  46)                  1.1061         0.339383   
     53. A(C   1,C   0,H  11)          118.9282         0.340557   
     54. A(C   5,C   0,H  11)          118.9314         0.361687   
     55. A(C   1,C   0,C   5)          122.1180         0.431180   
     56. A(C   0,C   1,C   2)          117.1784         0.428834   
     57. A(C   2,C   1,H  40)          120.7727         0.360929   
     58. A(C   0,C   1,H  40)          121.8556         0.341590   
     59. A(N   3,C   2,H  12)          115.2167         0.350475   
     60. A(C   1,C   2,H  12)          122.8208         0.359972   
     61. A(C   1,C   2,N   3)          121.9387         0.442030   
     62. A(C   2,N   3,C   4)          124.0336         0.405050   
     63. A(C   4,N   3,C   6)          112.7689         0.386197   
     64. A(C   2,N   3,C   6)          123.1727         0.409337   
     65. A(C   5,C   4,C  18)          118.1428         0.362577   
     66. A(N   3,C   4,C   5)          110.5906         0.378760   
     67. A(N   3,C   4,H  13)          110.9106         0.327537   
     68. A(N   3,C   4,C  18)          102.2438         0.365845   
     69. A(H  13,C   4,C  18)          103.7982         0.314215   
     70. A(C   5,C   4,H  13)          110.6935         0.324722   
     71. A(C   0,C   5,H  14)          120.7008         0.362631   
     72. A(C   0,C   5,C   4)          121.1030         0.414898   
     73. A(C   4,C   5,H  14)          118.1650         0.329417   
     74. A(C   7,C   6,C  19)          112.0533         0.357361   
     75. A(N   3,C   6,C  19)          105.3169         0.368119   
     76. A(C   7,C   6,H  15)          107.3264         0.324049   
     77. A(N   3,C   6,H  15)          110.6553         0.333471   
     78. A(N   3,C   6,C   7)          111.9852         0.378619   
     79. A(H  15,C   6,C  19)          109.5271         0.315528   
     80. A(C   6,C   7,O   9)          110.5667         0.405859   
     81. A(C   6,C   7,O   8)          124.9467         0.439096   
     82. A(O   8,C   7,O   9)          124.4866         0.487378   
     83. A(C   7,O   9,C  10)          116.7818         0.421536   
     84. A(H  16,C  10,H  39)          110.1493         0.288320   
     85. A(H  16,C  10,H  17)          110.2897         0.288428   
     86. A(O   9,C  10,H  17)          110.6603         0.335934   
     87. A(H  17,C  10,H  39)          109.2662         0.287712   
     88. A(O   9,C  10,H  39)          110.2297         0.335801   
     89. A(O   9,C  10,H  16)          106.2151         0.336689   
     90. A(C  19,C  18,N  28)          106.1697         0.337904   
     91. A(C   4,C  18,N  28)          103.2728         0.337505   
     92. A(C  19,C  18,N  41)          115.2412         0.379145   
     93. A(C   4,C  18,N  41)          116.4075         0.378679   
     94. A(C   4,C  18,C  19)          104.1482         0.350803   
     95. A(N  28,C  18,N  41)          110.4527         0.364406   
     96. A(C  20,C  19,H  30)          107.3753         0.327805   
     97. A(C  18,C  19,H  30)          108.8035         0.318430   
     98. A(C   6,C  19,H  30)          107.1069         0.316854   
     99. A(C  18,C  19,C  20)          114.6572         0.361938   
    100. A(C   6,C  19,C  20)          113.9074         0.360063   
    101. A(C   6,C  19,C  18)          104.6844         0.349422   
    102. A(C  21,C  20,C  25)          118.3949         0.427615   
    103. A(C  19,C  20,C  25)          118.4220         0.397080   
    104. A(C  19,C  20,C  21)          123.1284         0.401248   
    105. A(C  22,C  21,H  31)          119.1062         0.351989   
    106. A(C  20,C  21,H  31)          119.2995         0.351984   
    107. A(C  20,C  21,C  22)          121.5943         0.432204   
    108. A(C  23,C  22,H  32)          120.6460         0.352482   
    109. A(C  21,C  22,H  32)          120.0385         0.351745   
    110. A(C  21,C  22,C  23)          119.3155         0.433174   
    111. A(C  24,C  23,H  33)          119.2216         0.351654   
    112. A(C  22,C  23,H  33)          120.3300         0.352281   
    113. A(C  22,C  23,C  24)          120.4483         0.433317   
    114. A(C  25,C  24,H  34)          120.4882         0.351269   
    115. A(C  23,C  24,H  34)          119.6016         0.352302   
    116. A(C  23,C  24,C  25)          119.9102         0.431150   
    117. A(C  24,C  25,O  26)          123.2960         0.432887   
    118. A(C  20,C  25,O  26)          116.3680         0.429483   
    119. A(C  20,C  25,C  24)          120.3359         0.426435   
    120. A(C  25,O  26,C  27)          119.2825         0.419252   
    121. A(O  26,C  27,H  36)          106.4727         0.339459   
    122. A(O  26,C  27,H  35)          111.5276         0.338236   
    123. A(H  36,C  27,H  37)          109.1767         0.287602   
    124. A(H  35,C  27,H  37)          109.0376         0.286632   
    125. A(O  26,C  27,H  37)          111.3810         0.338238   
    126. A(H  35,C  27,H  36)          109.1766         0.287600   
    127. A(C  18,N  28,O  29)          119.1356         0.399944   
    128. A(O  29,N  28,O  38)          124.6800         0.498162   
    129. A(C  18,N  28,O  38)          116.1128         0.399888   
    130. A(C  42,N  41,C  46)          114.2080         0.385013   
    131. A(C  18,N  41,C  46)          122.2359         0.397471   
    132. A(C  18,N  41,C  42)          116.6068         0.397073   
    133. A(H  44,C  42,H  45)          108.2757         0.286265   
    134. A(H  43,C  42,H  45)          107.7194         0.287699   
    135. A(N  41,C  42,H  45)          109.6128         0.331115   
    136. A(H  43,C  42,H  44)          108.0508         0.286675   
    137. A(N  41,C  42,H  44)          112.3903         0.329867   
    138. A(N  41,C  42,H  43)          110.6483         0.331619   
    139. A(H  48,C  46,H  49)          107.9644         0.286403   
    140. A(H  47,C  46,H  49)          108.7588         0.286921   
    141. A(N  41,C  46,H  49)          113.4937         0.330332   
    142. A(H  47,C  46,H  48)          106.9226         0.287833   
    143. A(N  41,C  46,H  48)          108.1378         0.331444   
    144. A(N  41,C  46,H  47)          111.3029         0.332081   
    145. D(H  40,C   1,C   0,C   5)    177.5870         0.017675   
    146. D(H  40,C   1,C   0,H  11)     -4.1526         0.017675   
    147. D(C   2,C   1,C   0,C   5)     -7.4316         0.017675   
    148. D(C   2,C   1,C   0,H  11)    170.8288         0.017675   
    149. D(H  12,C   2,C   1,C   0)   -173.1694         0.035104   
    150. D(N   3,C   2,C   1,H  40)   -179.9937         0.035104   
    151. D(H  12,C   2,C   1,H  40)      1.8696         0.035104   
    152. D(N   3,C   2,C   1,C   0)      4.9673         0.035104   
    153. D(C   6,N   3,C   2,C   1)   -168.4238         0.031676   
    154. D(C   6,N   3,C   2,H  12)      9.8454         0.031676   
    155. D(C   4,N   3,C   2,C   1)      9.6327         0.031676   
    156. D(C   4,N   3,C   2,H  12)   -172.0980         0.031676   
    157. D(C   5,C   4,N   3,C   6)    158.7562         0.017181   
    158. D(C   5,C   4,N   3,C   2)    -19.4796         0.017181   
    159. D(H  13,C   4,N   3,C   2)    103.7256         0.017181   
    160. D(C  18,C   4,N   3,C   6)     32.0929         0.017181   
    161. D(C  18,C   4,N   3,C   2)   -146.1430         0.017181   
    162. D(H  13,C   4,N   3,C   6)    -78.0386         0.017181   
    163. D(H  14,C   5,C   4,H  13)     71.0512         0.012485   
    164. D(C   0,C   5,C   4,C  18)    133.6485         0.012485   
    165. D(H  14,C   5,C   4,N   3)   -165.6178         0.012485   
    166. D(H  14,C   5,C   0,H  11)     -0.3664         0.037506   
    167. D(C   0,C   5,C   4,N   3)     16.3983         0.012485   
    168. D(C   0,C   5,C   4,H  13)   -106.9326         0.012485   
    169. D(H  14,C   5,C   4,C  18)    -48.3676         0.012485   
    170. D(C   4,C   5,C   0,H  11)    177.5664         0.037506   
    171. D(H  14,C   5,C   0,C   1)    177.8939         0.037506   
    172. D(C   4,C   5,C   0,C   1)     -4.1732         0.037506   
    173. D(C   7,C   6,N   3,C   4)    103.4108         0.019397   
    174. D(C   7,C   6,N   3,C   2)    -78.3358         0.019397   
    175. D(H  15,C   6,N   3,C   2)     41.3622         0.019397   
    176. D(C  19,C   6,N   3,C   4)    -18.6217         0.019397   
    177. D(C  19,C   6,N   3,C   2)    159.6316         0.019397   
    178. D(H  15,C   6,N   3,C   4)   -136.8912         0.019397   
    179. D(O   9,C   7,C   6,C  19)    -77.1582         0.011099   
    180. D(O   9,C   7,C   6,N   3)    164.7481         0.011099   
    181. D(O   9,C   7,C   6,H  15)     43.1176         0.011099   
    182. D(O   8,C   7,C   6,C  19)    102.9033         0.011099   
    183. D(O   8,C   7,C   6,H  15)   -136.8209         0.011099   
    184. D(O   8,C   7,C   6,N   3)    -15.1903         0.011099   
    185. D(C  10,O   9,C   7,O   8)     -6.3982         0.037687   
    186. D(C  10,O   9,C   7,C   6)    173.6630         0.037687   
    187. D(H  39,C  10,O   9,C   7)    -59.6808         0.019409   
    188. D(H  17,C  10,O   9,C   7)     61.3018         0.019409   
    189. D(H  16,C  10,O   9,C   7)   -178.9881         0.019409   
    190. D(N  41,C  18,C   4,H  13)    -44.1914         0.009145   
    191. D(N  41,C  18,C   4,C   5)     78.7666         0.009145   
    192. D(N  41,C  18,C   4,N   3)   -159.6187         0.009145   
    193. D(N  28,C  18,C   4,C   5)    -42.4307         0.009145   
    194. D(N  28,C  18,C   4,N   3)     79.1840         0.009145   
    195. D(C  19,C  18,C   4,H  13)     83.8462         0.009145   
    196. D(N  28,C  18,C   4,H  13)   -165.3886         0.009145   
    197. D(C  19,C  18,C   4,N   3)    -31.5812         0.009145   
    198. D(C  19,C  18,C   4,C   5)   -153.1958         0.009145   
    199. D(H  30,C  19,C   6,C   7)    119.4192         0.008768   
    200. D(H  30,C  19,C   6,N   3)   -118.5923         0.008768   
    201. D(C  20,C  19,C   6,H  15)   -118.1359         0.008768   
    202. D(C  20,C  19,C   6,C   7)      0.8507         0.008768   
    203. D(C  20,C  19,C   6,N   3)    122.8392         0.008768   
    204. D(C  18,C  19,C   6,H  15)    115.8548         0.008768   
    205. D(C  18,C  19,C   6,C   7)   -125.1586         0.008768   
    206. D(H  30,C  19,C   6,H  15)      0.4326         0.008768   
    207. D(C  18,C  19,C   6,N   3)     -3.1701         0.008768   
    208. D(H  30,C  19,C  18,N  41)    -95.6332         0.009263   
    209. D(H  30,C  19,C  18,C   4)    135.6169         0.009263   
    210. D(C  20,C  19,C  18,N  41)     24.5932         0.009263   
    211. D(C  20,C  19,C  18,N  28)    147.2039         0.009263   
    212. D(C  20,C  19,C  18,C   4)   -104.1567         0.009263   
    213. D(C   6,C  19,C  18,N  41)    150.1330         0.009263   
    214. D(H  30,C  19,C  18,N  28)     26.9774         0.009263   
    215. D(C   6,C  19,C  18,N  28)    -87.2563         0.009263   
    216. D(C   6,C  19,C  18,C   4)     21.3832         0.009263   
    217. D(C  25,C  20,C  19,H  30)    -16.1248         0.012074   
    218. D(C  25,C  20,C  19,C  18)   -137.1394         0.012074   
    219. D(C  25,C  20,C  19,C   6)    102.2903         0.012074   
    220. D(C  21,C  20,C  19,H  30)    166.6120         0.012074   
    221. D(C  21,C  20,C  19,C  18)     45.5974         0.012074   
    222. D(C  21,C  20,C  19,C   6)    -74.9729         0.012074   
    223. D(H  31,C  21,C  20,C  25)   -179.7091         0.025932   
    224. D(H  31,C  21,C  20,C  19)     -2.4452         0.025932   
    225. D(C  22,C  21,C  20,C  25)      0.3516         0.025932   
    226. D(C  22,C  21,C  20,C  19)    177.6155         0.025932   
    227. D(H  32,C  22,C  21,H  31)     -0.0948         0.025937   
    228. D(H  32,C  22,C  21,C  20)    179.8446         0.025937   
    229. D(C  23,C  22,C  21,H  31)    179.8374         0.025937   
    230. D(C  23,C  22,C  21,C  20)     -0.2232         0.025937   
    231. D(H  33,C  23,C  22,H  32)      0.0255         0.026626   
    232. D(H  33,C  23,C  22,C  21)   -179.9063         0.026626   
    233. D(C  24,C  23,C  22,H  32)    179.9453         0.026626   
    234. D(C  24,C  23,C  22,C  21)      0.0135         0.026626   
    235. D(H  34,C  24,C  23,H  33)      0.0470         0.026038   
    236. D(H  34,C  24,C  23,C  22)   -179.8736         0.026038   
    237. D(C  25,C  24,C  23,H  33)    179.9774         0.026038   
    238. D(C  25,C  24,C  23,C  22)      0.0568         0.026038   
    239. D(O  26,C  25,C  24,H  34)     -0.1048         0.025100   
    240. D(O  26,C  25,C  24,C  23)    179.9654         0.025100   
    241. D(C  20,C  25,C  24,H  34)   -179.9931         0.025100   
    242. D(C  20,C  25,C  24,C  23)      0.0771         0.025100   
    243. D(O  26,C  25,C  20,C  21)    179.8281         0.022886   
    244. D(O  26,C  25,C  20,C  19)      2.4334         0.022886   
    245. D(C  24,C  25,C  20,C  21)     -0.2761         0.022886   
    246. D(C  24,C  25,C  20,C  19)   -177.6709         0.022886   
    247. D(C  27,O  26,C  25,C  24)      0.1845         0.031331   
    248. D(C  27,O  26,C  25,C  20)   -179.9232         0.031331   
    249. D(H  37,C  27,O  26,C  25)     61.0303         0.021717   
    250. D(H  36,C  27,O  26,C  25)    179.9530         0.021717   
    251. D(H  35,C  27,O  26,C  25)    -61.0431         0.021717   
    252. D(O  38,N  28,C  18,N  41)    -30.6491         0.007028   
    253. D(O  38,N  28,C  18,C  19)   -156.2405         0.007028   
    254. D(O  38,N  28,C  18,C   4)     94.4980         0.007028   
    255. D(O  29,N  28,C  18,N  41)    152.2851         0.007028   
    256. D(O  29,N  28,C  18,C  19)     26.6936         0.007028   
    257. D(O  29,N  28,C  18,C   4)    -82.5679         0.007028   
    258. D(C  46,N  41,C  18,N  28)     88.5376         0.026014   
    259. D(C  46,N  41,C  18,C  19)   -151.1699         0.026014   
    260. D(C  46,N  41,C  18,C   4)    -28.7704         0.026014   
    261. D(C  42,N  41,C  18,N  28)    -60.5630         0.026014   
    262. D(C  42,N  41,C  18,C  19)     59.7295         0.026014   
    263. D(C  42,N  41,C  18,C   4)   -177.8710         0.026014   
    264. D(H  45,C  42,N  41,C  46)     54.2938         0.017823   
    265. D(H  45,C  42,N  41,C  18)   -154.1474         0.017823   
    266. D(H  44,C  42,N  41,C  46)    -66.1603         0.017823   
    267. D(H  44,C  42,N  41,C  18)     85.3984         0.017823   
    268. D(H  43,C  42,N  41,C  46)    172.9507         0.017823   
    269. D(H  43,C  42,N  41,C  18)    -35.4906         0.017823   
    270. D(H  47,C  46,N  41,C  42)   -165.7784         0.018031   
    271. D(H  47,C  46,N  41,C  18)     44.4481         0.018031   
    272. D(H  49,C  46,N  41,C  42)     71.1375         0.018031   
    273. D(H  49,C  46,N  41,C  18)    -78.6360         0.018031   
    274. D(H  48,C  46,N  41,C  42)    -48.6169         0.018031   
    275. D(H  48,C  46,N  41,C  18)    161.6096         0.018031   
    -----------------------------------------------------------------

Number of atoms                         .... 50
Number of degrees of freedom            .... 275

         *************************************************************
         *                GEOMETRY OPTIMIZATION CYCLE   1            *
         *************************************************************
---------------------------------
CARTESIAN COORDINATES (ANGSTROEM)
---------------------------------
  C      4.213164    0.999558    0.553931
  C      3.801593    2.140904   -0.232095
  C      2.507082    2.180302   -0.636980
  N      1.600862    1.246709   -0.241409
  C      1.853212    0.254858    0.785839
  C      3.331701    0.083320    1.003803
  C      0.300427    1.116319   -0.831180
  C     -0.667713    2.169182   -0.313650
  O     -0.490390    2.848061    0.666961
  O     -1.738333    2.240311   -1.092323
  C     -2.795550    3.085634   -0.653232
  H      5.277148    0.859671    0.767049
  H      2.123620    2.940324   -1.323181
  H      1.344431    0.529956    1.737523
  H      3.671366   -0.786659    1.565704
  H      0.356520    1.231654   -1.923990
  H     -3.587370    3.000962   -1.405385
  H     -2.452834    4.127057   -0.576217
  C      1.038947   -0.970408    0.269561
  C     -0.168453   -0.335821   -0.481649
  C     -1.476655   -0.392155    0.268409
  C     -1.596038   -0.063054    1.619143
  C     -2.830616   -0.079311    2.269162
  C     -3.972891   -0.427483    1.553926
  C     -3.886812   -0.757384    0.201399
  C     -2.644770   -0.740275   -0.443441
  O     -2.482855   -1.047425   -1.746794
  C     -3.608038   -1.402160   -2.515816
  N      1.975945   -1.585474   -0.843976
  O      1.960220   -1.109388   -1.955682
  H     -0.311731   -0.864061   -1.428073
  H     -0.703375    0.212926    2.182325
  H     -2.894413    0.180410    3.327982
  H     -4.948619   -0.444159    2.046174
  H     -4.790427   -1.025945   -0.345885
  H     -4.099674   -2.306466   -2.120325
  H     -3.240649   -1.605700   -3.528996
  H     -4.343097   -0.581183   -2.555189
  O      2.706890   -2.481720   -0.489309
  H     -3.166813    2.752392    0.326811
  H      4.511522    2.898786   -0.560582
  N      0.707353   -1.939322    1.217635
  C     -0.006065   -3.099703    0.734945
  H     -0.700515   -2.820719   -0.068735
  H      0.674278   -3.880721    0.344614
  H     -0.598775   -3.535892    1.553437
  C      1.523398   -2.188231    2.382134
  H      1.839099   -1.249913    2.855718
  H      0.911694   -2.729449    3.119847
  H      2.420849   -2.798827    2.169353

----------------------------
CARTESIAN COORDINATES (A.U.)
----------------------------
  NO LB      ZA    FRAG     MASS         X           Y           Z
   0 C     6.0000    0    12.011    7.961726    1.888891    1.046778
   1 C     6.0000    0    12.011    7.183970    4.045722   -0.438596
   2 C     6.0000    0    12.011    4.737698    4.120174   -1.203718
   3 N     7.0000    0    14.007    3.025191    2.355939   -0.456197
   4 C     6.0000    0    12.011    3.502063    0.481612    1.485020
   5 C     6.0000    0    12.011    6.296002    0.157452    1.896913
   6 C     6.0000    0    12.011    0.567725    2.109537   -1.570703
   7 C     6.0000    0    12.011   -1.261795    4.099160   -0.592713
   8 O     8.0000    0    15.999   -0.926703    5.382055    1.260374
   9 O     8.0000    0    15.999   -3.284973    4.233574   -2.064191
  10 C     6.0000    0    12.011   -5.282824    5.831003   -1.234430
  11 H     1.0000    0     1.008    9.972364    1.624543    1.449513
  12 H     1.0000    0     1.008    4.013060    5.556407   -2.500450
  13 H     1.0000    0     1.008    2.540606    1.001472    3.283443
  14 H     1.0000    0     1.008    6.937876   -1.486570    2.958752
  15 H     1.0000    0     1.008    0.673725    2.327489   -3.635814
  16 H     1.0000    0     1.008   -6.779147    5.670996   -2.655793
  17 H     1.0000    0     1.008   -4.635185    7.799007   -1.088892
  18 C     6.0000    0    12.011    1.963325   -1.833805    0.509396
  19 C     6.0000    0    12.011   -0.318330   -0.634610   -0.910185
  20 C     6.0000    0    12.011   -2.790474   -0.741066    0.507220
  21 C     6.0000    0    12.011   -3.016075   -0.119155    3.059737
  22 C     6.0000    0    12.011   -5.349089   -0.149876    4.288095
  23 C     6.0000    0    12.011   -7.507676   -0.807826    2.936495
  24 C     6.0000    0    12.011   -7.345010   -1.431248    0.380589
  25 C     6.0000    0    12.011   -4.997891   -1.398917   -0.837982
  26 O     8.0000    0    15.999   -4.691916   -1.979346   -3.300962
  27 C     6.0000    0    12.011   -6.818204   -2.649698   -4.754203
  28 N     7.0000    0    14.007    3.733995   -2.996112   -1.594884
  29 O     8.0000    0    15.999    3.704279   -2.096439   -3.695703
  30 H     1.0000    0     1.008   -0.589086   -1.632839   -2.698667
  31 H     1.0000    0     1.008   -1.329186    0.402372    4.123997
  32 H     1.0000    0     1.008   -5.469648    0.340925    6.288975
  33 H     1.0000    0     1.008   -9.351535   -0.839339    3.866708
  34 H     1.0000    0     1.008   -9.052595   -1.938755   -0.653628
  35 H     1.0000    0     1.008   -7.747261   -4.358589   -4.006834
  36 H     1.0000    0     1.008   -6.123939   -3.034333   -6.668836
  37 H     1.0000    0     1.008   -8.207264   -1.098277   -4.828607
  38 O     8.0000    0    15.999    5.115281   -4.689771   -0.924660
  39 H     1.0000    0     1.008   -5.984409    5.201267    0.617583
  40 H     1.0000    0     1.008    8.525541    5.477912   -1.059346
  41 N     7.0000    0    14.007    1.336703   -3.664787    2.300997
  42 C     6.0000    0    12.011   -0.011461   -5.857590    1.388845
  43 H     1.0000    0     1.008   -1.323782   -5.330386   -0.129890
  44 H     1.0000    0     1.008    1.274201   -7.333500    0.651226
  45 H     1.0000    0     1.008   -1.131521   -6.681868    2.935570
  46 C     6.0000    0    12.011    2.878805   -4.135157    4.501581
  47 H     1.0000    0     1.008    3.475393   -2.361993    5.396525
  48 H     1.0000    0     1.008    1.722852   -5.157911    5.895656
  49 H     1.0000    0     1.008    4.574742   -5.289017    4.099483

--------------------------------
INTERNAL COORDINATES (ANGSTROEM)
--------------------------------
 C      0   0   0     0.000000000000     0.00000000     0.00000000
 C      1   0   0     1.445648038920     0.00000000     0.00000000
 C      2   1   0     1.356924019520   117.17836033     0.00000000
 N      3   2   1     1.359892272972   121.93868972     4.96734085
 C      4   3   2     1.450064613114   124.03364733     9.63271349
 C      1   2   3     1.348648919993   122.11798214   352.56840555
 C      4   3   2     1.433862815532   123.17268846   191.57619268
 C      7   4   3     1.521069642478   111.98518860   281.66421791
 O      8   7   4     1.205785252975   124.94669184   344.80968915
 O      8   7   4     1.325751922484   110.56668632   164.74812743
 C     10   8   7     1.423052938474   116.78176207   173.66304853
 H      1   2   3     1.094097622221   118.92824805   170.82880598
 H      3   2   1     1.093411339949   122.82077220   186.83063722
 H      5   4   3     1.113660384238   110.91061493   103.72560284
 H      6   1   2     1.089939680197   120.70084814   177.89393287
 H      7   4   3     1.100310084919   110.65531331    41.36218347
 H     11  10   8     1.095391434782   106.21513600   181.01194139
 H     11  10   8     1.099066618459   110.66025520    61.30176888
 C      5   4   3     1.559117453646   102.24378241   213.85701479
 C     19   5   4     1.557187170725   104.14821220   328.41884710
 C     20  19   5     1.509023855253   114.65721438   255.84334735
 C     21  20  19     1.395364507090   123.12836532    45.59735770
 C     22  21  20     1.395339323783   121.59433335   177.61552166
 C     23  22  21     1.391969271538   119.31550189   359.77678958
 C     24  23  22     1.394838180497   120.44830401     0.00000000
 C     25  24  23     1.399564101156   119.91023959     0.05676736
 O     26  25  24     1.348809338763   123.29597647   179.96537803
 C     27  26  25     1.408285674215   119.28248847     0.18446919
 N     19   5   4     1.579948127860   103.27280832    79.18402048
 O     29  19   5     1.209460782935   119.13555798   277.43211917
 H     20  19   5     1.093290661563   108.80351680   135.61693683
 H     22  21  20     1.090956533091   119.29945934   357.55479560
 H     23  22  21     1.092073645616   120.03849906   179.84456454
 H     24  23  22     1.092991908691   120.33003014   180.09374102
 H     25  24  23     1.090029749870   119.60155917   180.12635651
 H     28  27  26     1.102673310284   111.52760746   298.95689765
 H     28  27  26     1.096784810854   106.47270361   179.95298053
 H     28  27  26     1.102662777616   111.38102783    61.03028303
 O     29  19   5     1.209680191799   116.11281355    94.49796922
 H     11  10   8     1.099713929884   110.22971695   300.31919566
 H      2   1   3     1.089168499422   121.85560010   185.01859878
 N     19   5   4     1.395561976305   116.40751964   200.38131460
 C     42  19   5     1.445143226115   116.60679970   182.12898323
 H     43  42  19     1.098177771199   110.64831493   324.50943409
 H     43  42  19     1.106893853779   112.39033515    85.39844108
 H     43  42  19     1.100679400137   109.61281077   205.85259090
 C     42  19   5     1.443586870717   122.23585164   331.22957023
 H     47  42  19     1.097446853192   111.30287930    44.44807360
 H     47  42  19     1.100599462797   108.13779112   161.60961510
 H     47  42  19     1.106129073200   113.49374355   281.36401815

---------------------------
INTERNAL COORDINATES (A.U.)
---------------------------
 C      0   0   0     0.000000000000     0.00000000     0.00000000
 C      1   0   0     2.731878879599     0.00000000     0.00000000
 C      2   1   0     2.564214781432   117.17836033     0.00000000
 N      3   2   1     2.569823967553   121.93868972     4.96734085
 C      4   3   2     2.740224995276   124.03364733     9.63271349
 C      1   2   3     2.548577109595   122.11798214   352.56840555
 C      4   3   2     2.709608034969   123.17268846   191.57619268
 C      7   4   3     2.874405054905   111.98518860   281.66421791
 O      8   7   4     2.278603904443   124.94669184   344.80968915
 O      8   7   4     2.505308055014   110.56668632   164.74812743
 C     10   8   7     2.689180327787   116.78176207   173.66304853
 H      1   2   3     2.067544869772   118.92824805   170.82880598
 H      3   2   1     2.066247984227   122.82077220   186.83063722
 H      5   4   3     2.104513132407   110.91061493   103.72560284
 H      6   1   2     2.059687498065   120.70084814   177.89393287
 H      7   4   3     2.079284722888   110.65531331    41.36218347
 H     11  10   8     2.069989821180   106.21513600   181.01194139
 H     11  10   8     2.076934911822   110.66025520    61.30176888
 C      5   4   3     2.946304998008   102.24378241   213.85701479
 C     19   5   4     2.942657291925   104.14821220   328.41884710
 C     20  19   5     2.851641815983   114.65721438   255.84334735
 C     21  20  19     2.636856775394   123.12836532    45.59735770
 C     22  21  20     2.636809185840   121.59433335   177.61552166
 C     23  22  21     2.630440710040   119.31550189   359.77678958
 C     24  23  22     2.635862162276   120.44830401     0.00000000
 C     25  24  23     2.644792858053   119.91023959     0.05676736
 O     26  25  24     2.548880257137   123.29597647   179.96537803
 C     27  26  25     2.661274242590   119.28248847     0.18446919
 N     19   5   4     2.985669267457   103.27280832    79.18402048
 O     29  19   5     2.285549649465   119.13555798   277.43211917
 H     20  19   5     2.066019935127   108.80351680   135.61693683
 H     22  21  20     2.061609071553   119.29945934   357.55479560
 H     23  22  21     2.063720108288   120.03849906   179.84456454
 H     24  23  22     2.065455374018   120.33003014   180.09374102
 H     25  24  23     2.059857705081   119.60155917   180.12635651
 H     28  27  26     2.083750571621   111.52760746   298.95689765
 H     28  27  26     2.072622920360   106.47270361   179.95298053
 H     28  27  26     2.083730667762   111.38102783    61.03028303
 O     29  19   5     2.285964272129   116.11281355    94.49796922
 H     11  10   8     2.078158153140   110.22971695   300.31919566
 H      2   1   3     2.058230177602   121.85560010   185.01859878
 N     19   5   4     2.637229938130   116.40751964   200.38131460
 C     42  19   5     2.730924921648   116.60679970   182.12898323
 H     43  42  19     2.075255233926   110.64831493   324.50943409
 H     43  42  19     2.091726242963   112.39033515    85.39844108
 H     43  42  19     2.079982627507   109.61281077   205.85259090
 C     42  19   5     2.727983836180   122.23585164   331.22957023
 H     47  42  19     2.073873999067   111.30287930    44.44807360
 H     47  42  19     2.079831567827   108.13779112   161.60961510
 H     47  42  19     2.090281017116   113.49374355   281.36401815

---------------------
BASIS SET INFORMATION
---------------------
There are 4 groups of distinct atoms

 Group   1 Type C   : 11s6p2d1f contracted to 5s3p2d1f pattern {62111/411/11/1}
 Group   2 Type N   : 11s6p2d1f contracted to 5s3p2d1f pattern {62111/411/11/1}
 Group   3 Type O   : 11s6p2d1f contracted to 5s3p2d1f pattern {62111/411/11/1}
 Group   4 Type H   : 5s1p contracted to 3s1p pattern {311/1}

Atom   0C    basis set group =>   1
Atom   1C    basis set group =>   1
Atom   2C    basis set group =>   1
Atom   3N    basis set group =>   2
Atom   4C    basis set group =>   1
Atom   5C    basis set group =>   1
Atom   6C    basis set group =>   1
Atom   7C    basis set group =>   1
Atom   8O    basis set group =>   3
Atom   9O    basis set group =>   3
Atom  10C    basis set group =>   1
Atom  11H    basis set group =>   4
Atom  12H    basis set group =>   4
Atom  13H    basis set group =>   4
Atom  14H    basis set group =>   4
Atom  15H    basis set group =>   4
Atom  16H    basis set group =>   4
Atom  17H    basis set group =>   4
Atom  18C    basis set group =>   1
Atom  19C    basis set group =>   1
Atom  20C    basis set group =>   1
Atom  21C    basis set group =>   1
Atom  22C    basis set group =>   1
Atom  23C    basis set group =>   1
Atom  24C    basis set group =>   1
Atom  25C    basis set group =>   1
Atom  26O    basis set group =>   3
Atom  27C    basis set group =>   1
Atom  28N    basis set group =>   2
Atom  29O    basis set group =>   3
Atom  30H    basis set group =>   4
Atom  31H    basis set group =>   4
Atom  32H    basis set group =>   4
Atom  33H    basis set group =>   4
Atom  34H    basis set group =>   4
Atom  35H    basis set group =>   4
Atom  36H    basis set group =>   4
Atom  37H    basis set group =>   4
Atom  38O    basis set group =>   3
Atom  39H    basis set group =>   4
Atom  40H    basis set group =>   4
Atom  41N    basis set group =>   2
Atom  42C    basis set group =>   1
Atom  43H    basis set group =>   4
Atom  44H    basis set group =>   4
Atom  45H    basis set group =>   4
Atom  46C    basis set group =>   1
Atom  47H    basis set group =>   4
Atom  48H    basis set group =>   4
Atom  49H    basis set group =>   4
---------------------------------
AUXILIARY/J BASIS SET INFORMATION
---------------------------------
There are 4 groups of distinct atoms

 Group   1 Type C   : 12s5p4d2f1g contracted to 6s4p3d1f1g pattern {711111/2111/211/2/1}
 Group   2 Type N   : 12s5p4d2f1g contracted to 6s4p3d1f1g pattern {711111/2111/211/2/1}
 Group   3 Type O   : 12s5p4d2f1g contracted to 6s4p3d1f1g pattern {711111/2111/211/2/1}
 Group   4 Type H   : 5s2p1d contracted to 3s1p1d pattern {311/2/1}

Atom   0C    basis set group =>   1
Atom   1C    basis set group =>   1
Atom   2C    basis set group =>   1
Atom   3N    basis set group =>   2
Atom   4C    basis set group =>   1
Atom   5C    basis set group =>   1
Atom   6C    basis set group =>   1
Atom   7C    basis set group =>   1
Atom   8O    basis set group =>   3
Atom   9O    basis set group =>   3
Atom  10C    basis set group =>   1
Atom  11H    basis set group =>   4
Atom  12H    basis set group =>   4
Atom  13H    basis set group =>   4
Atom  14H    basis set group =>   4
Atom  15H    basis set group =>   4
Atom  16H    basis set group =>   4
Atom  17H    basis set group =>   4
Atom  18C    basis set group =>   1
Atom  19C    basis set group =>   1
Atom  20C    basis set group =>   1
Atom  21C    basis set group =>   1
Atom  22C    basis set group =>   1
Atom  23C    basis set group =>   1
Atom  24C    basis set group =>   1
Atom  25C    basis set group =>   1
Atom  26O    basis set group =>   3
Atom  27C    basis set group =>   1
Atom  28N    basis set group =>   2
Atom  29O    basis set group =>   3
Atom  30H    basis set group =>   4
Atom  31H    basis set group =>   4
Atom  32H    basis set group =>   4
Atom  33H    basis set group =>   4
Atom  34H    basis set group =>   4
Atom  35H    basis set group =>   4
Atom  36H    basis set group =>   4
Atom  37H    basis set group =>   4
Atom  38O    basis set group =>   3
Atom  39H    basis set group =>   4
Atom  40H    basis set group =>   4
Atom  41N    basis set group =>   2
Atom  42C    basis set group =>   1
Atom  43H    basis set group =>   4
Atom  44H    basis set group =>   4
Atom  45H    basis set group =>   4
Atom  46C    basis set group =>   1
Atom  47H    basis set group =>   4
Atom  48H    basis set group =>   4
Atom  49H    basis set group =>   4


           ************************************************************
           *        Program running with 24 parallel MPI-processes    *
           *              working on a common directory               *
           ************************************************************
------------------------------------------------------------------------------
                           ORCA GTO INTEGRAL CALCULATION
                           -- RI-GTO INTEGRALS CHOSEN --
------------------------------------------------------------------------------
------------------------------------------------------------------------------
                   ___                                                        
                  /   \      - P O W E R E D   B Y -                         
                 /     \                                                     
                 |  |  |   _    _      __       _____    __    __             
                 |  |  |  | |  | |    /  \     |  _  \  |  |  /  |          
                  \  \/   | |  | |   /    \    | | | |  |  | /  /          
                 / \  \   | |__| |  /  /\  \   | |_| |  |  |/  /          
                |  |  |   |  __  | /  /__\  \  |    /   |      \           
                |  |  |   | |  | | |   __   |  |    \   |  |\   \          
                \     /   | |  | | |  |  |  |  | |\  \  |  | \   \       
                 \___/    |_|  |_| |__|  |__|  |_| \__\ |__|  \__/        
                                                                              
                      - O R C A' S   B I G   F R I E N D -                    
                                      &                                       
                       - I N T E G R A L  F E E D E R -                       
                                                                              
 v1 FN, 2020, v2 2021                                                         
------------------------------------------------------------------------------


Reading SHARK input file 3_NMe2/3_NMe2.SHARKINP.tmp ... ok
----------------------
SHARK INTEGRAL PACKAGE
----------------------

Number of atoms                             ...     50
Number of basis functions                   ...    975
Number of shells                            ...    389
Maximum angular momentum                    ...      3
Integral batch strategy                     ... SHARK/LIBINT Hybrid
RI-J (if used) integral strategy            ... SPLIT-RIJ (Revised 2003 algorithm where possible)
Printlevel                                  ...      1
Contraction scheme used                     ... SEGMENTED contraction
Coulomb Range Separation                    ... NOT USED
Exchange Range Separation                   ... NOT USED
Finite Nucleus Model                        ... NOT USED
Auxiliary Coulomb fitting basis             ... AVAILABLE
   # of basis functions in Aux-J            ...   1576
   # of shells in Aux-J                     ...    520
   Maximum angular momentum in Aux-J        ...      4
Auxiliary J/K fitting basis                 ... NOT available
Auxiliary Correlation fitting basis         ... NOT available
Auxiliary 'external' fitting basis          ... NOT available
Integral threshold                          ...     2.500000e-11
Primitive cut-off                           ...     2.500000e-12
Primitive pair pre-selection threshold      ...     2.500000e-12

Calculating pre-screening integrals         ... done (  0.1 sec) Dimension = 389
Organizing shell pair data                  ... done (  0.7 sec)
Shell pair information
Total number of shell pairs                 ...     75855
Shell pairs after pre-screening             ...     55286
Total number of primitive shell pairs       ...    230844
Primitive shell pairs kept                  ...    110186
          la=0 lb=0:  14649 shell pairs
          la=1 lb=0:  16004 shell pairs
          la=1 lb=1:   4407 shell pairs
          la=2 lb=0:   7788 shell pairs
          la=2 lb=1:   4348 shell pairs
          la=2 lb=2:   1110 shell pairs
          la=3 lb=0:   3649 shell pairs
          la=3 lb=1:   2069 shell pairs
          la=3 lb=2:   1004 shell pairs
          la=3 lb=3:    258 shell pairs

Calculating one electron integrals          ... done (  0.1 sec)
Calculating RI/J V-Matrix + Cholesky decomp.... done (  0.3 sec)
Calculating Nuclear repulsion               ... done (  0.0 sec) ENN=   2811.236316234944 Eh

SHARK setup successfully completed in   2.1 seconds

Maximum memory used throughout the entire GTOINT-calculation: 81.5 MB


           ************************************************************
           *        Program running with 24 parallel MPI-processes    *
           *              working on a common directory               *
           ************************************************************
-------------------------------------------------------------------------------
                                 ORCA SCF
-------------------------------------------------------------------------------

------------
SCF SETTINGS
------------
Hamiltonian:
 Density Functional     Method          .... DFT(GTOs)
 Exchange Functional    Exchange        .... PBE
   PBE kappa parameter   XKappa         ....  0.804000
   PBE mue parameter    XMuePBE         ....  0.219520
 Correlation Functional Correlation     .... PBE
   PBE beta parameter  CBetaPBE         ....  0.066725
 LDA part of GGA corr.  LDAOpt          .... PW91-LDA
 Gradients option       PostSCFGGA      .... off
 Hybrid DFT is turned on
   Fraction HF Exchange ScalHFX         ....  0.250000
   Scaling of DF-GGA-X  ScalDFX         ....  0.750000
   Scaling of DF-GGA-C  ScalDFC         ....  1.000000
   Scaling of DF-LDA-C  ScalLDAC        ....  1.000000
   Perturbative correction              ....  0.000000
   Density functional embedding theory  .... OFF
   NL short-range parameter             ....  6.900000
 RI-approximation to the Coulomb term is turned on
   Number of AuxJ basis functions       .... 1576
   RIJ-COSX (HFX calculated with COS-X)).... on


General Settings:
 Integral files         IntName         .... 3_NMe2/3_NMe2
 Hartree-Fock type      HFTyp           .... RHF
 Total Charge           Charge          ....    0
 Multiplicity           Mult            ....    1
 Number of Electrons    NEL             ....  198
 Basis Dimension        Dim             ....  975
 Nuclear Repulsion      ENuc            ....   2811.2363162349 Eh

Convergence Acceleration:
 DIIS                   CNVDIIS         .... on
   Start iteration      DIISMaxIt       ....    12
   Startup error        DIISStart       ....  0.200000
   # of expansion vecs  DIISMaxEq       ....     5
   Bias factor          DIISBfac        ....   1.050
   Max. coefficient     DIISMaxC        ....  10.000
 Trust-Rad. Augm. Hess. CNVTRAH         .... auto
   Auto Start mean grad. ratio tolernc. ....  1.125000
   Auto Start start iteration           ....    20
   Auto Start num. interpolation iter.  ....    10
   Max. Number of Micro iterations      ....    16
   Max. Number of Macro iterations      .... Maxiter - #DIIS iter
   Number of Davidson start vectors     ....     2
   Converg. threshold I  (grad. norm)   ....   1.000e-05
   Converg. threshold II (energy diff.) ....   1.000e-08
   Grad. Scal. Fac. for Micro threshold ....   0.100
   Minimum threshold for Micro iter.    ....   0.010
   NR start threshold (gradient norm)   ....   0.001
   Initial trust radius                 ....   0.400
   Minimum AH scaling param. (alpha)    ....   1.000
   Maximum AH scaling param. (alpha)    .... 1000.000
   Orbital update algorithm             .... Taylor
   White noise on init. David. guess    .... on
   Maximum white noise                  ....   0.010
   Quad. conv. algorithm                .... NR
 SOSCF                  CNVSOSCF        .... on
   Start iteration      SOSCFMaxIt      ....   150
   Startup grad/error   SOSCFStart      ....  0.003300
 Level Shifting         CNVShift        .... on
   Level shift para.    LevelShift      ....    0.2500
   Turn off err/grad.   ShiftErr        ....    0.0010
 Zerner damping         CNVZerner       .... off
 Static damping         CNVDamp         .... on
   Fraction old density DampFac         ....    0.7000
   Max. Damping (<1)    DampMax         ....    0.9800
   Min. Damping (>=0)   DampMin         ....    0.0000
   Turn off err/grad.   DampErr         ....    0.1000
 Fernandez-Rico         CNVRico         .... off

SCF Procedure:
 Maximum # iterations   MaxIter         ....   800
 SCF integral mode      SCFMode         .... Direct
   Integral package                     .... SHARK and LIBINT hybrid scheme
 Reset frequency        DirectResetFreq ....    20
 Integral Threshold     Thresh          ....  2.500e-11 Eh
 Primitive CutOff       TCut            ....  2.500e-12 Eh

Convergence Tolerance:
 Convergence Check Mode ConvCheckMode   .... Total+1el-Energy
 Convergence forced     ConvForced      .... 0
 Energy Change          TolE            ....  1.000e-08 Eh
 1-El. energy change                    ....  1.000e-05 Eh
 Orbital Gradient       TolG            ....  1.000e-05
 Orbital Rotation angle TolX            ....  1.000e-05
 DIIS Error             TolErr          ....  5.000e-07


Diagonalization of the overlap matrix:
Smallest eigenvalue                        ... 4.022e-06
Time for diagonalization                   ...    0.270 sec
Threshold for overlap eigenvalues          ... 1.000e-08
Number of eigenvalues below threshold      ... 0
Time for construction of square roots      ...    0.311 sec
Total time needed                          ...    0.588 sec

Time for model grid setup =    0.385 sec

------------------------------
INITIAL GUESS: MODEL POTENTIAL
------------------------------
Loading Hartree-Fock densities                     ... done
Calculating cut-offs                               ... done
Initializing the effective Hamiltonian             ... done
Setting up the integral package (SHARK)            ... done
Starting the Coulomb interaction                   ... done (   0.5 sec)
Reading the grid                                   ... done
Mapping shells                                     ... done
Starting the XC term evaluation                    ... done (   0.3 sec)
  promolecular density results
     # of electrons  =    197.991316159
     EX              =   -164.462446528
     EC              =     -6.721061936
     EX+EC           =   -171.183508464
Transforming the Hamiltonian                       ... done (   0.2 sec)
Diagonalizing the Hamiltonian                      ... done (   0.3 sec)
Back transforming the eigenvectors                 ... done (   0.1 sec)
Now organizing SCF variables                       ... done
                      ------------------
                      INITIAL GUESS DONE (   2.0 sec)
                      ------------------
-------------------
DFT GRID GENERATION
-------------------

General Integration Accuracy     IntAcc      ... 4.388
Radial Grid Type                 RadialGrid  ... OptM3 with GC (2021)
Angular Grid (max. ang.)         AngularGrid ... 4 (Lebedev-302)
Angular grid pruning method      GridPruning ... 4 (adaptive)
Weight generation scheme         WeightScheme... Becke
Basis function cutoff            BFCut       ... 1.0000e-11
Integration weight cutoff        WCut        ... 1.0000e-14
Angular grids for H and He will be reduced by one unit
Partially contracted basis set               ... off
Rotationally invariant grid construction     ... off

Total number of grid points                  ...   232951
Total number of batches                      ...     3668
Average number of points per batch           ...       63
Average number of grid points per atom       ...     4659
Time for grid setup =    1.540 sec

--------------------
COSX GRID GENERATION
--------------------

GRIDX 1
-------
General Integration Accuracy     IntAcc      ... 3.816
Radial Grid Type                 RadialGrid  ... OptM3 with GC (2021)
Angular Grid (max. ang.)         AngularGrid ... 1 (Lebedev-50)
Angular grid pruning method      GridPruning ... 4 (adaptive)
Weight generation scheme         WeightScheme... Becke
Basis function cutoff            BFCut       ... 1.0000e-11
Integration weight cutoff        WCut        ... 1.0000e-14
Angular grids for H and He will be reduced by one unit
Partially contracted basis set               ... on
Rotationally invariant grid construction     ... off

Total number of grid points                  ...    29582
Total number of batches                      ...      491
Average number of points per batch           ...       60
Average number of grid points per atom       ...      592
UseSFitting                                  ... on

GRIDX 2
-------
General Integration Accuracy     IntAcc      ... 4.020
Radial Grid Type                 RadialGrid  ... OptM3 with GC (2021)
Angular Grid (max. ang.)         AngularGrid ... 2 (Lebedev-110)
Angular grid pruning method      GridPruning ... 4 (adaptive)
Weight generation scheme         WeightScheme... Becke
Basis function cutoff            BFCut       ... 1.0000e-11
Integration weight cutoff        WCut        ... 1.0000e-14
Angular grids for H and He will be reduced by one unit
Partially contracted basis set               ... on
Rotationally invariant grid construction     ... off

Total number of grid points                  ...    63325
Total number of batches                      ...     1014
Average number of points per batch           ...       62
Average number of grid points per atom       ...     1266
UseSFitting                                  ... on

GRIDX 3
-------
General Integration Accuracy     IntAcc      ... 4.338
Radial Grid Type                 RadialGrid  ... OptM3 with GC (2021)
Angular Grid (max. ang.)         AngularGrid ... 3 (Lebedev-194)
Angular grid pruning method      GridPruning ... 4 (adaptive)
Weight generation scheme         WeightScheme... Becke
Basis function cutoff            BFCut       ... 1.0000e-11
Integration weight cutoff        WCut        ... 1.0000e-14
Angular grids for H and He will be reduced by one unit
Partially contracted basis set               ... on
Rotationally invariant grid construction     ... off

Total number of grid points                  ...   137810
Total number of batches                      ...     2179
Average number of points per batch           ...       63
Average number of grid points per atom       ...     2756
UseSFitting                                  ... on

Time for X-Grid setup             =    3.115 sec


--------------------
CPCM SOLVATION MODEL
--------------------
CPCM parameters:
  Epsilon                                         ...      47.2000
  Refrac                                          ...       1.4790
  Rsolv                                           ...       1.3000
  Surface type                                    ... GAUSSIAN VDW
  Epsilon function type                           ...         CPCM
Radii:
 Radius for C  used is    3.8550 Bohr (=   2.0400 Ang.)
 Radius for N  used is    3.5149 Bohr (=   1.8600 Ang.)
 Radius for O  used is    3.4469 Bohr (=   1.8240 Ang.)
 Radius for H  used is    2.4944 Bohr (=   1.3200 Ang.)
Calculating surface                               ...        done! (  0.0s)
GEPOL surface points                              ...         2456
GEPOL Volume                                      ...    2858.9034
GEPOL Surface-area                                ...    1378.2430
Calculating surface distance matrix               ...        done! (  0.1s)
Performing Cholesky decomposition & store         ...        done! (  0.3s)
Overall time for CPCM initialization              ...                 0.5s
--------------
SCF ITERATIONS
--------------
ITER       Energy         Delta-E        Max-DP      RMS-DP      [F,P]     Damp
               ***  Starting incremental Fock matrix formation  ***
  0  -1276.5301720066   0.000000000000 0.19884561  0.00077565  0.2632480 0.7000
  1  -1276.8112810503  -0.281109043674 0.14286436  0.00062490  0.1043483 0.7000
                               ***Turning on DIIS***
  2  -1276.9232335823  -0.111952532081 0.16154673  0.00108312  0.0362095 0.0000
  3  -1277.1075001605  -0.184266578150 0.17750916  0.00053167  0.0529618 0.0000
  4  -1277.1415579344  -0.034057773888 0.03467249  0.00017178  0.0158698 0.0000
  5  -1277.1438137754  -0.002255840976 0.02029183  0.00005886  0.0060304 0.0000
                      *** Initiating the SOSCF procedure ***
                           *** Shutting down DIIS ***
                      *** Re-Reading the Fockian *** 
                      *** Removing any level shift *** 
ITER      Energy       Delta-E        Grad      Rot      Max-DP    RMS-DP
  6  -1277.14400434  -0.0001905681  0.000242  0.000242  0.004545  0.000019
               *** Restarting incremental Fock matrix formation ***
  7  -1277.14400778  -0.0000034351  0.000164  0.000959  0.003773  0.000025
  8  -1277.14400776   0.0000000211  0.000246  0.000309  0.001649  0.000007
  9  -1277.14401131  -0.0000035497  0.000087  0.000264  0.000874  0.000005
 10  -1277.14401106   0.0000002470  0.000163  0.000190  0.001131  0.000002
 11  -1277.14401141  -0.0000003471  0.000020  0.000039  0.000257  0.000002
 12  -1277.14401139   0.0000000185  0.000021  0.000028  0.000074  0.000001
                  ***Gradient check signals convergence***
              ***Rediagonalizing the Fockian in SOSCF/NRSCF***

               *****************************************************
               *                     SUCCESS                       *
               *           SCF CONVERGED AFTER  13 CYCLES          *
               *****************************************************

Old exchange energy                            =    -41.918819159 Eh
New exchange energy                            =    -41.918810650 Eh
Exchange energy change after final integration =      0.000008509 Eh
Total energy after final integration           =  -1277.144002934 Eh
Final COS-X integration done in                =    20.585 sec

----------------
TOTAL SCF ENERGY
----------------

Total Energy       :        -1277.14400293 Eh          -34752.85512 eV

Components:
Nuclear Repulsion  :         2811.23631623 Eh           76497.62923 eV
Electronic Energy  :        -4088.38031917 Eh         -111250.48435 eV
One Electron Energy:        -7333.59828325 Eh         -199557.35459 eV
Two Electron Energy:         3245.21796408 Eh           88306.87024 eV
Max COSX asymmetry :            0.00000245 Eh               0.00007 eV
CPCM Dielectric    :           -0.02794078 Eh              -0.76031 eV

Virial components:
Potential Energy   :        -2548.18154249 Eh          -69339.54493 eV
Kinetic Energy     :         1271.03753956 Eh           34586.68980 eV
Virial Ratio       :            2.00480431


DFT components:
N(Alpha)           :       99.000116259015 electrons
N(Beta)            :       99.000116259015 electrons
N(Total)           :      198.000232518031 electrons
E(X)               :     -125.508990219370 Eh       
E(C)               :       -6.702979809986 Eh       
E(XC)              :     -132.211970029356 Eh       
DFET-embed. en.    :        0.000000000000 Eh       
CPCM Solvation Model Properties:
Surface-charge          :           -0.03406606
Charge-correction       :           -0.00018955 Eh              -0.00516 eV
Free-energy (cav+disp)  :  This term is not implemented in the current solvation scheme

---------------
SCF CONVERGENCE
---------------

  Last Energy change         ...   -5.4269e-08  Tolerance :   1.0000e-08
  Last MAX-Density change    ...    2.2204e-15  Tolerance :   1.0000e-07
  Last RMS-Density change    ...    1.4708e-17  Tolerance :   5.0000e-09
  Last Orbital Gradient      ...    2.0611e-06  Tolerance :   1.0000e-05
  Last Orbital Rotation      ...    8.3368e-06  Tolerance :   1.0000e-05

             **** THE GBW FILE WAS UPDATED (3_NMe2/3_NMe2.gbw) ****
             **** DENSITY 3_NMe2/3_NMe2.scfp WAS UPDATED ****
             **** ENERGY FILE WAS UPDATED (3_NMe2/3_NMe2.en.tmp) ****
             **** THE GBW FILE WAS UPDATED (3_NMe2/3_NMe2.gbw) ****
             **** DENSITY 3_NMe2/3_NMe2.scfp WAS UPDATED ****
----------------
ORBITAL ENERGIES
----------------

  NO   OCC          E(Eh)            E(eV) 
   0   2.0000     -19.264348      -524.2096 
   1   2.0000     -19.248376      -523.7749 
   2   2.0000     -19.246781      -523.7315 
   3   2.0000     -19.246543      -523.7251 
   4   2.0000     -19.205072      -522.5966 
   5   2.0000     -14.609760      -397.5518 
   6   2.0000     -14.422848      -392.4656 
   7   2.0000     -14.399696      -391.8357 
   8   2.0000     -10.358486      -281.8687 
   9   2.0000     -10.327660      -281.0299 
  10   2.0000     -10.293197      -280.0921 
  11   2.0000     -10.290861      -280.0286 
  12   2.0000     -10.286191      -279.9015 
  13   2.0000     -10.272712      -279.5347 
  14   2.0000     -10.269448      -279.4459 
  15   2.0000     -10.266649      -279.3697 
  16   2.0000     -10.260148      -279.1928 
  17   2.0000     -10.242683      -278.7176 
  18   2.0000     -10.242369      -278.7090 
  19   2.0000     -10.241403      -278.6827 
  20   2.0000     -10.232295      -278.4349 
  21   2.0000     -10.231918      -278.4246 
  22   2.0000     -10.231452      -278.4120 
  23   2.0000     -10.227399      -278.3017 
  24   2.0000     -10.224686      -278.2279 
  25   2.0000     -10.223129      -278.1855 
  26   2.0000     -10.209306      -277.8093 
  27   2.0000      -1.276719       -34.7413 
  28   2.0000      -1.154689       -31.4207 
  29   2.0000      -1.110684       -30.2232 
  30   2.0000      -1.100344       -29.9419 
  31   2.0000      -1.062858       -28.9218 
  32   2.0000      -1.020444       -27.7677 
  33   2.0000      -0.981841       -26.7173 
  34   2.0000      -0.891173       -24.2501 
  35   2.0000      -0.860896       -23.4262 
  36   2.0000      -0.841490       -22.8981 
  37   2.0000      -0.809334       -22.0231 
  38   2.0000      -0.784506       -21.3475 
  39   2.0000      -0.777508       -21.1571 
  40   2.0000      -0.772132       -21.0108 
  41   2.0000      -0.744844       -20.2682 
  42   2.0000      -0.734489       -19.9865 
  43   2.0000      -0.718871       -19.5615 
  44   2.0000      -0.698471       -19.0064 
  45   2.0000      -0.680961       -18.5299 
  46   2.0000      -0.665413       -18.1068 
  47   2.0000      -0.645109       -17.5543 
  48   2.0000      -0.622960       -16.9516 
  49   2.0000      -0.614511       -16.7217 
  50   2.0000      -0.596862       -16.2414 
  51   2.0000      -0.591512       -16.0959 
  52   2.0000      -0.572190       -15.5701 
  53   2.0000      -0.568843       -15.4790 
  54   2.0000      -0.556285       -15.1373 
  55   2.0000      -0.545664       -14.8483 
  56   2.0000      -0.542231       -14.7549 
  57   2.0000      -0.534901       -14.5554 
  58   2.0000      -0.519134       -14.1264 
  59   2.0000      -0.515659       -14.0318 
  60   2.0000      -0.512865       -13.9558 
  61   2.0000      -0.503285       -13.6951 
  62   2.0000      -0.501440       -13.6449 
  63   2.0000      -0.488733       -13.2991 
  64   2.0000      -0.486901       -13.2493 
  65   2.0000      -0.478879       -13.0310 
  66   2.0000      -0.476276       -12.9601 
  67   2.0000      -0.466095       -12.6831 
  68   2.0000      -0.458303       -12.4711 
  69   2.0000      -0.455823       -12.4036 
  70   2.0000      -0.445970       -12.1354 
  71   2.0000      -0.439191       -11.9510 
  72   2.0000      -0.432223       -11.7614 
  73   2.0000      -0.430529       -11.7153 
  74   2.0000      -0.421160       -11.4603 
  75   2.0000      -0.412778       -11.2322 
  76   2.0000      -0.405564       -11.0360 
  77   2.0000      -0.401174       -10.9165 
  78   2.0000      -0.396460       -10.7882 
  79   2.0000      -0.389104       -10.5881 
  80   2.0000      -0.384286       -10.4570 
  81   2.0000      -0.380115       -10.3435 
  82   2.0000      -0.375866       -10.2278 
  83   2.0000      -0.374384       -10.1875 
  84   2.0000      -0.363552        -9.8928 
  85   2.0000      -0.359212        -9.7747 
  86   2.0000      -0.354935        -9.6583 
  87   2.0000      -0.343827        -9.3560 
  88   2.0000      -0.341678        -9.2975 
  89   2.0000      -0.339651        -9.2424 
  90   2.0000      -0.332559        -9.0494 
  91   2.0000      -0.328937        -8.9508 
  92   2.0000      -0.320788        -8.7291 
  93   2.0000      -0.309456        -8.4207 
  94   2.0000      -0.294072        -8.0021 
  95   2.0000      -0.269440        -7.3318 
  96   2.0000      -0.240363        -6.5406 
  97   2.0000      -0.237344        -6.4585 
  98   2.0000      -0.198677        -5.4063 
  99   0.0000      -0.064606        -1.7580 
 100   0.0000      -0.027938        -0.7602 
 101   0.0000      -0.017452        -0.4749 
 102   0.0000      -0.005530        -0.1505 
 103   0.0000       0.008263         0.2248 
 104   0.0000       0.042453         1.1552 
 105   0.0000       0.053954         1.4682 
 106   0.0000       0.059673         1.6238 
 107   0.0000       0.064868         1.7651 
 108   0.0000       0.069408         1.8887 
 109   0.0000       0.072822         1.9816 
 110   0.0000       0.080589         2.1929 
 111   0.0000       0.084750         2.3062 
 112   0.0000       0.087865         2.3909 
 113   0.0000       0.094472         2.5707 
 114   0.0000       0.100742         2.7413 
 115   0.0000       0.102624         2.7925 
 116   0.0000       0.108347         2.9483 
 117   0.0000       0.109737         2.9861 
 118   0.0000       0.113822         3.0972 
 119   0.0000       0.118672         3.2292 
 120   0.0000       0.123343         3.3563 
 121   0.0000       0.126397         3.4394 
 122   0.0000       0.128740         3.5032 
 123   0.0000       0.131213         3.5705 
 124   0.0000       0.137695         3.7469 
 125   0.0000       0.140070         3.8115 
 126   0.0000       0.143442         3.9032 
 127   0.0000       0.147820         4.0224 
 128   0.0000       0.148230         4.0335 
 129   0.0000       0.150498         4.0953 
 130   0.0000       0.154159         4.1949 
 131   0.0000       0.163873         4.4592 
 132   0.0000       0.167134         4.5479 
 133   0.0000       0.171437         4.6650 
 134   0.0000       0.174176         4.7396 
 135   0.0000       0.181333         4.9343 
 136   0.0000       0.185638         5.0515 
 137   0.0000       0.190896         5.1946 
 138   0.0000       0.193099         5.2545 
 139   0.0000       0.196663         5.3515 
 140   0.0000       0.207476         5.6457 
 141   0.0000       0.209296         5.6952 
 142   0.0000       0.213810         5.8181 
 143   0.0000       0.219798         5.9810 
 144   0.0000       0.223716         6.0876 
 145   0.0000       0.227819         6.1993 
 146   0.0000       0.229277         6.2389 
 147   0.0000       0.231006         6.2860 
 148   0.0000       0.236870         6.4455 
 149   0.0000       0.238484         6.4895 
 150   0.0000       0.244917         6.6645 
 151   0.0000       0.249961         6.8018 
 152   0.0000       0.258073         7.0225 
 153   0.0000       0.262685         7.1480 
 154   0.0000       0.264737         7.2039 
 155   0.0000       0.269469         7.3326 
 156   0.0000       0.271594         7.3905 
 157   0.0000       0.276611         7.5270 
 158   0.0000       0.281872         7.6701 
 159   0.0000       0.284440         7.7400 
 160   0.0000       0.289028         7.8648 
 161   0.0000       0.293102         7.9757 
 162   0.0000       0.296191         8.0598 
 163   0.0000       0.304196         8.2776 
 164   0.0000       0.308813         8.4032 
 165   0.0000       0.311983         8.4895 
 166   0.0000       0.316790         8.6203 
 167   0.0000       0.323485         8.8025 
 168   0.0000       0.327062         8.8998 
 169   0.0000       0.327821         8.9205 
 170   0.0000       0.332265         9.0414 
 171   0.0000       0.336672         9.1613 
 172   0.0000       0.340710         9.2712 
 173   0.0000       0.342007         9.3065 
 174   0.0000       0.345421         9.3994 
 175   0.0000       0.349350         9.5063 
 176   0.0000       0.355170         9.6647 
 177   0.0000       0.358192         9.7469 
 178   0.0000       0.361270         9.8307 
 179   0.0000       0.367391         9.9972 
 180   0.0000       0.368603        10.0302 
 181   0.0000       0.373678        10.1683 
 182   0.0000       0.376468        10.2442 
 183   0.0000       0.379428        10.3247 
[...]
 52:    732.93   0.003183   16.08  0.001355  (-0.027750  0.006866  0.023192)
 53:    743.19   0.001424    7.20  0.000598  (-0.009826  0.003862  0.022055)
 54:    764.26   0.016993   85.87  0.006938  ( 0.000554  0.076943 -0.031905)
 55:    777.17   0.006729   34.01  0.002702  ( 0.019637 -0.046870  0.010940)
 56:    796.09   0.006264   31.66  0.002456  ( 0.000302 -0.015010 -0.047225)
 57:    826.56   0.004689   23.69  0.001770  ( 0.028649 -0.019032 -0.024232)
 58:    845.91   0.005236   26.46  0.001932  ( 0.031670  0.030123 -0.004597)
 59:    858.77   0.007954   40.20  0.002890  ( 0.004604 -0.048920 -0.021820)
 60:    865.82   0.004191   21.18  0.001510  (-0.031059  0.021498  0.009148)
 61:    873.54   0.000690    3.49  0.000247  (-0.011116 -0.003876 -0.010391)
 62:    920.18   0.002617   13.23  0.000888  ( 0.013887  0.008846 -0.024829)
 63:    940.53   0.000803    4.06  0.000267  (-0.016316 -0.000419  0.000356)
 64:    952.71   0.000336    1.70  0.000110  (-0.005153  0.001961 -0.008917)
 65:    957.52   0.002435   12.30  0.000794  ( 0.014736  0.023551 -0.004662)
 66:    961.64   0.001500    7.58  0.000487  ( 0.016570  0.009818  0.010760)
 67:    988.17   0.000023    0.11  0.000007  (-0.001629  0.001727 -0.001213)
 68:    990.18   0.000241    1.22  0.000076  (-0.007371 -0.004323  0.001695)
 69:   1006.31   0.005531   27.95  0.001715  (-0.000994 -0.035464  0.021364)
 70:   1019.13   0.001803    9.11  0.000552  (-0.020413 -0.007417 -0.008968)
 71:   1031.02   0.003994   20.18  0.001209  (-0.015023  0.031336 -0.001121)
 72:   1043.09   0.010519   53.16  0.003147  (-0.039716  0.039189 -0.005810)
 73:   1059.54   0.005691   28.76  0.001676  (-0.005778  0.019252 -0.035668)
 74:   1075.01   0.009868   49.87  0.002864  (-0.050629 -0.011564 -0.012942)
 75:   1085.10   0.004440   22.44  0.001277  ( 0.027195  0.012054  0.019803)
 76:   1088.08   0.005015   25.34  0.001438  ( 0.000419  0.011638  0.036094)
 77:   1112.40   0.000726    3.67  0.000204  ( 0.014218  0.001081  0.000623)
 78:   1133.88   0.011361   57.42  0.003127  (-0.020386 -0.025355 -0.045480)
 79:   1144.28   0.004365   22.06  0.001190  ( 0.017049  0.021493  0.020922)
 80:   1155.42   0.008169   41.28  0.002206  (-0.024250  0.031346 -0.025211)
 81:   1160.02   0.003707   18.74  0.000997  (-0.014632 -0.011255  0.025623)
 82:   1170.50   0.000389    1.97  0.000104  ( 0.001032 -0.008461  0.005574)
 83:   1171.31   0.000180    0.91  0.000048  (-0.000312  0.006788 -0.001328)
 84:   1175.90   0.002015   10.18  0.000535  ( 0.020381  0.000501  0.010915)
 85:   1185.13   0.017997   90.95  0.004739  ( 0.008907 -0.055664  0.039509)
 86:   1199.08   0.000295    1.49  0.000077  (-0.006071 -0.005451 -0.003181)
 87:   1199.33   0.002637   13.33  0.000686  ( 0.004255  0.025723  0.002527)
 88:   1205.94   0.006199   31.33  0.001604  ( 0.038930 -0.006623  0.006676)
 89:   1221.37   0.001592    8.05  0.000407  (-0.015609  0.001801 -0.012647)
 90:   1239.72   0.007311   36.95  0.001840  (-0.035600 -0.014805 -0.018812)
 91:   1252.19   0.114902  580.67  0.028635  (-0.151401  0.063082 -0.041633)
 92:   1268.33   0.003736   18.88  0.000919  (-0.016553 -0.024270  0.007496)
 93:   1291.15   0.018524   93.61  0.004477  ( 0.020623 -0.004093  0.063523)
 94:   1298.92   0.031531  159.35  0.007575  ( 0.000301  0.039022  0.077798)
 95:   1305.54   0.055075  278.33  0.013165  (-0.072366 -0.022791 -0.086071)
 96:   1324.76   0.002476   12.51  0.000583  ( 0.001506  0.023318 -0.006111)
 97:   1330.25   0.012238   61.85  0.002871  (-0.053376  0.004061 -0.002348)
 98:   1335.03   0.007687   38.85  0.001797  (-0.032882 -0.013336 -0.023192)
 99:   1341.94   0.014010   70.80  0.003258  (-0.057000 -0.001693  0.002476)
100:   1374.21   0.018877   95.40  0.004287  ( 0.063789 -0.006612  0.013192)
101:   1388.38   0.007719   39.01  0.001735  (-0.012960  0.004866 -0.039286)
102:   1394.02   0.005801   29.32  0.001299  ( 0.021517  0.026649  0.011200)
103:   1403.86   0.017002   85.92  0.003779  ( 0.004551 -0.029689  0.053639)
104:   1428.83   0.018801   95.01  0.004106  ( 0.048028  0.041063 -0.010642)
105:   1439.85   0.000366    1.85  0.000079  ( 0.008237 -0.001073 -0.003227)
106:   1445.37   0.029537  149.27  0.006377  ( 0.049893 -0.045336 -0.042808)
107:   1459.33   0.004890   24.71  0.001046  ( 0.029605 -0.012327 -0.004157)
108:   1465.07   0.004152   20.98  0.000884  ( 0.001904  0.028956 -0.006504)
109:   1466.76   0.008203   41.46  0.001745  (-0.016928  0.014282  0.035422)
110:   1467.84   0.004650   23.50  0.000988  (-0.028533  0.012124 -0.005230)
111:   1471.26   0.003905   19.74  0.000828  ( 0.009685 -0.001040 -0.027082)
112:   1471.97   0.003597   18.18  0.000763  ( 0.016505  0.001166  0.022110)
113:   1472.97   0.001924    9.72  0.000408  (-0.012471  0.015628  0.002786)
114:   1475.02   0.002949   14.90  0.000624  (-0.003870  0.022040 -0.011095)
115:   1484.96   0.004708   23.79  0.000989  ( 0.003338 -0.007558 -0.030351)
116:   1490.45   0.002431   12.28  0.000509  ( 0.007458 -0.002312 -0.021165)
117:   1496.93   0.023228  117.39  0.004842  (-0.058566 -0.036557 -0.008712)
118:   1498.49   0.013407   67.75  0.002792  (-0.006256  0.012725  0.050901)
119:   1516.54   0.029478  148.97  0.006066  (-0.018231 -0.055419  0.051597)
120:   1538.45   0.035188  177.83  0.007138  (-0.000319  0.021998  0.081570)
121:   1620.12   0.020274  102.46  0.003905  ( 0.059799  0.016063 -0.008437)
122:   1635.12   0.135640  685.47  0.025887  ( 0.075936 -0.100655  0.099945)
123:   1647.83   0.013807   69.78  0.002615  (-0.033273  0.003657 -0.038656)
124:   1664.46   0.014565   73.61  0.002731  (-0.000371  0.008619  0.051540)
125:   1704.16   0.032604  164.77  0.005970  ( 0.070919  0.030492 -0.003344)
126:   1796.86   0.086916  439.24  0.015095  ( 0.047446  0.062243  0.094708)
127:   2914.26   0.026739  135.13  0.002863  ( 0.031748  0.014524 -0.040551)
128:   3009.73   0.013806   69.77  0.001431  (-0.011687 -0.030557 -0.019002)
129:   3016.49   0.024859  125.63  0.002572  ( 0.031533 -0.035715  0.017373)
130:   3036.92   0.012825   64.81  0.001318  ( 0.027403  0.010535  0.021352)
131:   3071.41   0.006144   31.05  0.000624  (-0.019730  0.015141  0.002392)
132:   3087.94   0.005331   26.94  0.000539  (-0.016935  0.003901 -0.015387)
133:   3091.97   0.011120   56.19  0.001122  (-0.027479 -0.001230  0.019123)
134:   3098.87   0.003691   18.65  0.000372  ( 0.009111 -0.001250 -0.016945)
135:   3108.15   0.007564   38.22  0.000759  ( 0.004282 -0.026354  0.006822)
136:   3151.53   0.003676   18.58  0.000364  ( 0.007268 -0.006654  0.016336)
137:   3152.55   0.005206   26.31  0.000515  (-0.006457 -0.021763  0.000080)
138:   3155.41   0.003838   19.40  0.000380  ( 0.007271  0.014762 -0.010431)
139:   3166.02   0.003889   19.65  0.000383  (-0.007292  0.003498  0.017829)
140:   3171.79   0.000814    4.11  0.000080  ( 0.005317  0.000338  0.007190)
141:   3186.19   0.003525   17.81  0.000345  ( 0.017018 -0.005063  0.005473)
142:   3189.45   0.002182   11.03  0.000213  (-0.009015 -0.002947 -0.011114)
143:   3193.14   0.000471    2.38  0.000046  ( 0.006617  0.000627 -0.001372)
144:   3205.84   0.000276    1.39  0.000027  (-0.001321 -0.004636  0.001894)
145:   3207.20   0.002640   13.34  0.000257  ( 0.012445 -0.000815 -0.010064)
146:   3220.56   0.002344   11.85  0.000227  ( 0.004239  0.003900  0.013926)
147:   3231.80   0.000341    1.72  0.000033  ( 0.005272 -0.001093  0.001981)
148:   3232.62   0.000388    1.96  0.000037  ( 0.005377  0.001802  0.002304)
149:   3246.08   0.000886    4.48  0.000085  (-0.001446 -0.008366  0.003618)

* The epsilon (eps) is given for a Dirac delta lineshape.
** The dipole moment derivative (T) already includes vibrational overlap.

The first frequency considered to be a vibration is 6
The total number of vibrations considered is 144


--------------------------
THERMOCHEMISTRY AT 298.15K
--------------------------

Temperature         ... 298.15 K
Pressure            ... 1.00 atm
Total Mass          ... 373.41 AMU

Throughout the following assumptions are being made:
  (1) The electronic state is orbitally nondegenerate
  (2) There are no thermally accessible electronically excited states
  (3) Hindered rotations indicated by low frequency modes are not
      treated as such but are treated as vibrations and this may
      cause some error
  (4) All equations used are the standard statistical mechanics
      equations for an ideal gas
  (5) All vibrations are strictly harmonic

freq.      17.61  E(vib)   ...       0.57 
freq.      26.86  E(vib)   ...       0.55 
freq.      45.21  E(vib)   ...       0.53 
freq.      58.24  E(vib)   ...       0.51 
freq.      59.00  E(vib)   ...       0.51 
freq.      72.14  E(vib)   ...       0.50 
freq.      87.90  E(vib)   ...       0.48 
freq.      92.19  E(vib)   ...       0.47 
freq.     103.64  E(vib)   ...       0.46 
freq.     125.99  E(vib)   ...       0.43 
freq.     130.72  E(vib)   ...       0.43 
freq.     143.60  E(vib)   ...       0.41 
freq.     147.89  E(vib)   ...       0.41 
freq.     161.60  E(vib)   ...       0.39 
freq.     164.04  E(vib)   ...       0.39 
freq.     180.32  E(vib)   ...       0.37 
freq.     183.40  E(vib)   ...       0.37 
freq.     200.09  E(vib)   ...       0.35 
freq.     218.87  E(vib)   ...       0.33 
freq.     224.24  E(vib)   ...       0.33 
freq.     237.10  E(vib)   ...       0.32 
freq.     246.34  E(vib)   ...       0.31 
freq.     262.45  E(vib)   ...       0.29 
freq.     287.94  E(vib)   ...       0.27 
freq.     303.19  E(vib)   ...       0.26 
freq.     307.24  E(vib)   ...       0.26 
freq.     325.51  E(vib)   ...       0.24 
freq.     358.73  E(vib)   ...       0.22 
freq.     364.36  E(vib)   ...       0.22 
freq.     377.21  E(vib)   ...       0.21 
freq.     391.08  E(vib)   ...       0.20 
freq.     421.72  E(vib)   ...       0.18 
freq.     437.06  E(vib)   ...       0.17 
freq.     483.26  E(vib)   ...       0.15 
freq.     487.83  E(vib)   ...       0.15 
freq.     520.23  E(vib)   ...       0.13 
freq.     543.78  E(vib)   ...       0.12 
freq.     560.85  E(vib)   ...       0.11 
freq.     581.06  E(vib)   ...       0.11 
freq.     595.74  E(vib)   ...       0.10 
freq.     618.96  E(vib)   ...       0.09 
freq.     628.41  E(vib)   ...       0.09 
freq.     633.15  E(vib)   ...       0.09 
freq.     691.58  E(vib)   ...       0.07 
freq.     706.79  E(vib)   ...       0.07 
freq.     718.29  E(vib)   ...       0.07 
freq.     732.93  E(vib)   ...       0.06 
freq.     743.19  E(vib)   ...       0.06 
freq.     764.26  E(vib)   ...       0.06 
freq.     777.17  E(vib)   ...       0.05 
freq.     796.09  E(vib)   ...       0.05 
freq.     826.56  E(vib)   ...       0.04 
freq.     845.91  E(vib)   ...       0.04 
freq.     858.77  E(vib)   ...       0.04 
freq.     865.82  E(vib)   ...       0.04 
freq.     873.54  E(vib)   ...       0.04 
freq.     920.18  E(vib)   ...       0.03 
freq.     940.53  E(vib)   ...       0.03 
freq.     952.71  E(vib)   ...       0.03 
freq.     957.52  E(vib)   ...       0.03 
freq.     961.64  E(vib)   ...       0.03 
freq.     988.17  E(vib)   ...       0.02 
freq.     990.18  E(vib)   ...       0.02 
freq.    1006.31  E(vib)   ...       0.02 
freq.    1019.13  E(vib)   ...       0.02 
freq.    1031.02  E(vib)   ...       0.02 
freq.    1043.09  E(vib)   ...       0.02 
freq.    1059.54  E(vib)   ...       0.02 
freq.    1075.01  E(vib)   ...       0.02 
freq.    1085.10  E(vib)   ...       0.02 
freq.    1088.08  E(vib)   ...       0.02 
freq.    1112.40  E(vib)   ...       0.01 
freq.    1133.88  E(vib)   ...       0.01 
freq.    1144.28  E(vib)   ...       0.01 
freq.    1155.42  E(vib)   ...       0.01 
freq.    1160.02  E(vib)   ...       0.01 
freq.    1170.50  E(vib)   ...       0.01 
freq.    1171.31  E(vib)   ...       0.01 
freq.    1175.90  E(vib)   ...       0.01 
freq.    1185.13  E(vib)   ...       0.01 
freq.    1199.08  E(vib)   ...       0.01 
freq.    1199.33  E(vib)   ...       0.01 
freq.    1205.94  E(vib)   ...       0.01 
freq.    1221.37  E(vib)   ...       0.01 
freq.    1239.72  E(vib)   ...       0.01 
freq.    1252.19  E(vib)   ...       0.01 
freq.    1268.33  E(vib)   ...       0.01 
freq.    1291.15  E(vib)   ...       0.01 
freq.    1298.92  E(vib)   ...       0.01 
freq.    1305.54  E(vib)   ...       0.01 
freq.    1324.76  E(vib)   ...       0.01 
freq.    1330.25  E(vib)   ...       0.01 
freq.    1335.03  E(vib)   ...       0.01 
freq.    1341.94  E(vib)   ...       0.01 
freq.    1374.21  E(vib)   ...       0.01 
freq.    1388.38  E(vib)   ...       0.00 
freq.    1394.02  E(vib)   ...       0.00 
freq.    1403.86  E(vib)   ...       0.00 
freq.    1428.83  E(vib)   ...       0.00 
freq.    1439.85  E(vib)   ...       0.00 
freq.    1445.37  E(vib)   ...       0.00 
freq.    1459.33  E(vib)   ...       0.00 
freq.    1465.07  E(vib)   ...       0.00 
freq.    1466.76  E(vib)   ...       0.00 
freq.    1467.84  E(vib)   ...       0.00 
freq.    1471.26  E(vib)   ...       0.00 
freq.    1471.97  E(vib)   ...       0.00 
freq.    1472.97  E(vib)   ...       0.00 
freq.    1475.02  E(vib)   ...       0.00 
freq.    1484.96  E(vib)   ...       0.00 
freq.    1490.45  E(vib)   ...       0.00 
freq.    1496.93  E(vib)   ...       0.00 
freq.    1498.49  E(vib)   ...       0.00 
freq.    1516.54  E(vib)   ...       0.00 
freq.    1538.45  E(vib)   ...       0.00 
freq.    1620.12  E(vib)   ...       0.00 
freq.    1635.12  E(vib)   ...       0.00 
freq.    1647.83  E(vib)   ...       0.00 
freq.    1664.46  E(vib)   ...       0.00 
freq.    1704.16  E(vib)   ...       0.00 
freq.    1796.86  E(vib)   ...       0.00 
freq.    2914.26  E(vib)   ...       0.00 
freq.    3009.73  E(vib)   ...       0.00 
freq.    3016.49  E(vib)   ...       0.00 
freq.    3036.92  E(vib)   ...       0.00 
freq.    3071.41  E(vib)   ...       0.00 
freq.    3087.94  E(vib)   ...       0.00 
freq.    3091.97  E(vib)   ...       0.00 
freq.    3098.87  E(vib)   ...       0.00 
freq.    3108.15  E(vib)   ...       0.00 
freq.    3151.53  E(vib)   ...       0.00 
freq.    3152.55  E(vib)   ...       0.00 
freq.    3155.41  E(vib)   ...       0.00 
freq.    3166.02  E(vib)   ...       0.00 
freq.    3171.79  E(vib)   ...       0.00 
freq.    3186.19  E(vib)   ...       0.00 
freq.    3189.45  E(vib)   ...       0.00 
freq.    3193.14  E(vib)   ...       0.00 
freq.    3205.84  E(vib)   ...       0.00 
freq.    3207.20  E(vib)   ...       0.00 
freq.    3220.56  E(vib)   ...       0.00 
freq.    3231.80  E(vib)   ...       0.00 
freq.    3232.62  E(vib)   ...       0.00 
freq.    3246.08  E(vib)   ...       0.00 

------------
INNER ENERGY
------------

The inner energy is: U= E(el) + E(ZPE) + E(vib) + E(rot) + E(trans)
    E(el)   - is the total energy from the electronic structure calculation
              = E(kin-el) + E(nuc-el) + E(el-el) + E(nuc-nuc)
    E(ZPE)  - the the zero temperature vibrational energy from the frequency calculation
    E(vib)  - the the finite temperature correction to E(ZPE) due to population
              of excited vibrational states
    E(rot)  - is the rotational thermal energy
    E(trans)- is the translational thermal energy

Summary of contributions to the inner energy U:
Electronic energy                ...  -1277.21364442 Eh
Zero point energy                ...      0.40738944 Eh     255.64 kcal/mol
Thermal vibrational correction   ...      0.02300033 Eh      14.43 kcal/mol
Thermal rotational correction    ...      0.00141627 Eh       0.89 kcal/mol
Thermal translational correction ...      0.00141627 Eh       0.89 kcal/mol
-----------------------------------------------------------------------
Total thermal energy                  -1276.78042211 Eh


Summary of corrections to the electronic energy:
(perhaps to be used in another calculation)
Total thermal correction                  0.02583287 Eh      16.21 kcal/mol
Non-thermal (ZPE) correction              0.40738944 Eh     255.64 kcal/mol
-----------------------------------------------------------------------
Total correction                          0.43322231 Eh     271.85 kcal/mol


--------
ENTHALPY
--------

The enthalpy is H = U + kB*T
                kB is Boltzmann's constant
Total free energy                 ...  -1276.78042211 Eh 
Thermal Enthalpy correction       ...      0.00094421 Eh       0.59 kcal/mol
-----------------------------------------------------------------------
Total Enthalpy                    ...  -1276.77947790 Eh


Note: Only C1 symmetry has been detected, increase convergence thresholds 
      if your molecule has a higher symmetry. Symmetry factor of 1.0 is   
      used for the rotational entropy correction. 
 

Note: Rotational entropy computed according to Herzberg 
Infrared and Raman Spectra, Chapter V,1, Van Nostrand Reinhold, 1945 
Point Group:  C1, Symmetry Number:   1  
Rotational constants in cm-1:     0.009903     0.006177     0.005089 

Vibrational entropy computed according to the QRRHO of S. Grimme
Chem.Eur.J. 2012 18 9955


-------
ENTROPY
-------

The entropy contributions are T*S = T*(S(el)+S(vib)+S(rot)+S(trans))
     S(el)   - electronic entropy
     S(vib)  - vibrational entropy
     S(rot)  - rotational entropy
     S(trans)- translational entropy
The entropies will be listed as multiplied by the temperature to get
units of energy

Electronic entropy                ...      0.00000000 Eh      0.00 kcal/mol
Vibrational entropy               ...      0.04124137 Eh     25.88 kcal/mol
Rotational entropy                ...      0.01658389 Eh     10.41 kcal/mol
Translational entropy             ...      0.02073719 Eh     13.01 kcal/mol
-----------------------------------------------------------------------
Final entropy term                ...      0.07856245 Eh     49.30 kcal/mol

In case the symmetry of your molecule has not been determined correctly
or in case you have a reason to use a different symmetry number we print 
out the resulting rotational entropy values for sn=1,12 :
 --------------------------------------------------------
|  sn= 1 | S(rot)=       0.01658389 Eh     10.41 kcal/mol|
|  sn= 2 | S(rot)=       0.01592944 Eh     10.00 kcal/mol|
|  sn= 3 | S(rot)=       0.01554661 Eh      9.76 kcal/mol|
|  sn= 4 | S(rot)=       0.01527498 Eh      9.59 kcal/mol|
|  sn= 5 | S(rot)=       0.01506429 Eh      9.45 kcal/mol|
|  sn= 6 | S(rot)=       0.01489215 Eh      9.34 kcal/mol|
|  sn= 7 | S(rot)=       0.01474660 Eh      9.25 kcal/mol|
|  sn= 8 | S(rot)=       0.01462053 Eh      9.17 kcal/mol|
|  sn= 9 | S(rot)=       0.01450932 Eh      9.10 kcal/mol|
|  sn=10 | S(rot)=       0.01440984 Eh      9.04 kcal/mol|
|  sn=11 | S(rot)=       0.01431985 Eh      8.99 kcal/mol|
|  sn=12 | S(rot)=       0.01423769 Eh      8.93 kcal/mol|
 --------------------------------------------------------


-------------------
GIBBS FREE ENERGY
-------------------

The Gibbs free energy is G = H - T*S

Total enthalpy                    ...  -1276.77947790 Eh 
Total entropy correction          ...     -0.07856245 Eh    -49.30 kcal/mol
-----------------------------------------------------------------------
Final Gibbs free energy         ...  -1276.85804036 Eh

For completeness - the Gibbs free energy minus the electronic energy
G-E(el)                           ...      0.35560406 Eh    223.14 kcal/mol


Timings for individual modules:

Sum of individual times         ...     8289.837 sec (= 138.164 min)
GTO integral calculation        ...       60.021 sec (=   1.000 min)   0.7 %
SCF iterations                  ...     2861.994 sec (=  47.700 min)  34.5 %
SCF Gradient evaluation         ...      776.832 sec (=  12.947 min)   9.4 %
Geometry relaxation             ...        3.453 sec (=   0.058 min)   0.0 %
Analytical frequency calculation...     4587.538 sec (=  76.459 min)  55.3 %
                             ****ORCA TERMINATED NORMALLY****
TOTAL RUN TIME: 0 days 2 hours 19 minutes 25 seconds 974 msec
