
                                 *****************
                                 * O   R   C   A *
                                 *****************

                                            #,                                       
                                            ###                                      
                                            ####                                     
                                            #####                                    
                                            ######                                   
                                           ########,                                 
                                     ,,################,,,,,                         
                               ,,#################################,,                 
                          ,,##########################################,,             
                       ,#########################################, ''#####,          
                    ,#############################################,,   '####,        
                  ,##################################################,,,,####,       
                ,###########''''           ''''###############################       
              ,#####''   ,,,,##########,,,,          '''####'''          '####       
            ,##' ,,,,###########################,,,                        '##       
           ' ,,###''''                  '''############,,,                           
         ,,##''                                '''############,,,,        ,,,,,,###''
      ,#''                                            '''#######################'''  
     '                                                          ''''####''''         
             ,#######,   #######,   ,#######,      ##                                
            ,#'     '#,  ##    ##  ,#'     '#,    #''#        ######   ,####,        
            ##       ##  ##   ,#'  ##            #'  '#       #        #'  '#        
            ##       ##  #######   ##           ,######,      #####,   #    #        
            '#,     ,#'  ##    ##  '#,     ,#' ,#      #,         ##   #,  ,#        
             '#######'   ##     ##  '#######'  #'      '#     #####' # '####'        



                  #######################################################
                  #                        -***-                        #
                  #          Department of theory and spectroscopy      #
                  #    Directorship and core code : Frank Neese         #
                  #        Max Planck Institute fuer Kohlenforschung    #
                  #                Kaiser Wilhelm Platz 1               #
                  #                 D-45470 Muelheim/Ruhr               #
                  #                      Germany                        #
                  #                                                     #
                  #                  All rights reserved                #
                  #                        -***-                        #
                  #######################################################


                         Program Version 5.0.4 -  RELEASE  -


 With contributions from (in alphabetic order):
   Daniel Aravena         : Magnetic Suceptibility
   Michael Atanasov       : Ab Initio Ligand Field Theory (pilot matlab implementation)
   Alexander A. Auer      : GIAO ZORA, VPT2 properties, NMR spectrum
   Ute Becker             : Parallelization
   Giovanni Bistoni       : ED, misc. LED, open-shell LED, HFLD
   Martin Brehm           : Molecular dynamics
   Dmytro Bykov           : SCF Hessian
   Vijay G. Chilkuri      : MRCI spin determinant printing, contributions to CSF-ICE
   Dipayan Datta          : RHF DLPNO-CCSD density
   Achintya Kumar Dutta   : EOM-CC, STEOM-CC
   Dmitry Ganyushin       : Spin-Orbit,Spin-Spin,Magnetic field MRCI
   Miquel Garcia          : C-PCM and meta-GGA Hessian, CC/C-PCM, Gaussian charge scheme
   Yang Guo               : DLPNO-NEVPT2, F12-NEVPT2, CIM, IAO-localization
   Andreas Hansen         : Spin unrestricted coupled pair/coupled cluster methods
   Benjamin Helmich-Paris : MC-RPA, TRAH-SCF, COSX integrals
   Lee Huntington         : MR-EOM, pCC
   Robert Izsak           : Overlap fitted RIJCOSX, COSX-SCS-MP3, EOM
   Marcus Kettner         : VPT2
   Christian Kollmar      : KDIIS, OOCD, Brueckner-CCSD(T), CCSD density, CASPT2, CASPT2-K
   Simone Kossmann        : Meta GGA functionals, TD-DFT gradient, OOMP2, MP2 Hessian
   Martin Krupicka        : Initial AUTO-CI
   Lucas Lang             : DCDCAS
   Marvin Lechner         : AUTO-CI (C++ implementation), FIC-MRCC
   Dagmar Lenk            : GEPOL surface, SMD
   Dimitrios Liakos       : Extrapolation schemes; Compound Job, initial MDCI parallelization
   Dimitrios Manganas     : Further ROCIS development; embedding schemes
   Dimitrios Pantazis     : SARC Basis sets
   Anastasios Papadopoulos: AUTO-CI, single reference methods and gradients
   Taras Petrenko         : DFT Hessian,TD-DFT gradient, ASA, ECA, R-Raman, ABS, FL, XAS/XES, NRVS
   Peter Pinski           : DLPNO-MP2, DLPNO-MP2 Gradient
   Christoph Reimann      : Effective Core Potentials
   Marius Retegan         : Local ZFS, SOC
   Christoph Riplinger    : Optimizer, TS searches, QM/MM, DLPNO-CCSD(T), (RO)-DLPNO pert. Triples
   Tobias Risthaus        : Range-separated hybrids, TD-DFT gradient, RPA, STAB
   Michael Roemelt        : Original ROCIS implementation
   Masaaki Saitow         : Open-shell DLPNO-CCSD energy and density
   Barbara Sandhoefer     : DKH picture change effects
   Avijit Sen             : IP-ROCIS
   Kantharuban Sivalingam : CASSCF convergence, NEVPT2, FIC-MRCI
   Bernardo de Souza      : ESD, SOC TD-DFT
   Georgi Stoychev        : AutoAux, RI-MP2 NMR, DLPNO-MP2 response
   Willem Van den Heuvel  : Paramagnetic NMR
   Boris Wezisla          : Elementary symmetry handling
   Frank Wennmohs         : Technical directorship


 We gratefully acknowledge several colleagues who have allowed us to
 interface, adapt or use parts of their codes:
   Stefan Grimme, W. Hujo, H. Kruse, P. Pracht,  : VdW corrections, initial TS optimization,
                  C. Bannwarth, S. Ehlert          DFT functionals, gCP, sTDA/sTD-DF
   Ed Valeev, F. Pavosevic, A. Kumar             : LibInt (2-el integral package), F12 methods
   Garnet Chan, S. Sharma, J. Yang, R. Olivares  : DMRG
   Ulf Ekstrom                                   : XCFun DFT Library
   Mihaly Kallay                                 : mrcc  (arbitrary order and MRCC methods)
   Jiri Pittner, Ondrej Demel                    : Mk-CCSD
   Frank Weinhold                                : gennbo (NPA and NBO analysis)
   Christopher J. Cramer and Donald G. Truhlar   : smd solvation model
   Lars Goerigk                                  : TD-DFT with DH, B97 family of functionals
   V. Asgeirsson, H. Jonsson                     : NEB implementation
   FAccTs GmbH                                   : IRC, NEB, NEB-TS, DLPNO-Multilevel, CI-OPT
                                                   MM, QMMM, 2- and 3-layer-ONIOM, Crystal-QMMM,
                                                   LR-CPCM, SF, NACMEs, symmetry and pop. for TD-DFT,
                                                   nearIR, NL-DFT gradient (VV10), updates on ESD,
                                                   ML-optimized integration grids
   S Lehtola, MJT Oliveira, MAL Marques          : LibXC Library
   Liviu Ungur et al                             : ANISO software


 Your calculation uses the libint2 library for the computation of 2-el integrals
 For citations please refer to: http://libint.valeyev.net

 Your ORCA version has been built with support for libXC version: 5.1.0
 For citations please refer to: https://tddft.org/programs/libxc/

 This ORCA versions uses:
   CBLAS   interface :  Fast vector & matrix operations
   LAPACKE interface :  Fast linear algebra routines
   SCALAPACK package :  Parallel linear algebra routines
   Shared memory     :  Shared parallel matrices
   BLAS/LAPACK       :  OpenBLAS 0.3.15  USE64BITINT DYNAMIC_ARCH NO_AFFINITY Haswell SINGLE_THREADED
        Core in use  :  Haswell
   Copyright (c) 2011-2014, The OpenBLAS Project


Your calculation utilizes the atom-pairwise dispersion correction
with the Becke-Johnson damping scheme (D3BJ)
Cite in your paper:
S.Grimme, S.Ehrlich, L.Goerigk, J Comput Chem, (2011), 32, 1456–1465 
S.Grimme, J.Antony, S.Ehrlich and H.Krieg, J.Chem.Phys., 132, (2010), 154104 
   

================================================================================

----- Orbital basis set information -----
Your calculation utilizes the basis: def2-TZVP
   F. Weigend and R. Ahlrichs, Phys. Chem. Chem. Phys. 7, 3297 (2005).

----- AuxJ basis set information -----
Your calculation utilizes the auxiliary basis: def2/J
   F. Weigend, Phys. Chem. Chem. Phys. 8, 1057 (2006).

================================================================================
                                        WARNINGS
                       Please study these warnings very carefully!
================================================================================


WARNING: Geometry Optimization
  ===> : Switching off AutoStart
         For restart on a previous wavefunction, please use MOREAD

INFO   : the flag for use of the SHARK integral package has been found!

================================================================================
                                       INPUT FILE
================================================================================
NAME = 3_N3/3_N3.inp
|  1> %pal nprocs 24 end
|  2> ! PBE0 D3BJ def2-TZVP TightSCF OPT FREQ TightOpt
|  3> ! CPCM(dmso)
|  4> %scf
|  5> MaxIter 800
|  6> end
|  7> 
|  8> %geom
|  9> MaxIter 800
| 10> MaxStep 0.15
| 11> end
| 12> 
| 13> *xyz 0 1
| 14> C      -4.03604500     -0.95039100      0.27262000
| 15> C      -3.68546900     -2.07404600     -0.56409400
| 16> C      -2.37496200     -2.25149800     -0.86542700
| 17> N      -1.40172900     -1.44044400     -0.36712500
| 18> C      -1.65197800     -0.29214700      0.47007000
| 19> C      -3.10409100     -0.10974300      0.77044600
| 20> C      -0.05658900     -1.40562800     -0.85898400
| 21> C       0.87446500     -2.21446100      0.03810100
| 22> O       0.52066400     -2.84013200      1.00519500
| 23> O       2.10414100     -2.22829700     -0.45611600
| 24> C       3.08259400     -2.95783800      0.27414100
| 25> H      -5.08729700     -0.78585300      0.52617100
| 26> H      -2.01676200     -3.05172400     -1.51791100
| 27> H      -1.04857400     -0.34702700      1.39817400
| 28> H      -3.38560900      0.71656600      1.42569200
| 29> H      -0.00405200     -1.89869300     -1.84168000
| 30> H       4.01499100     -2.87315200     -0.29448600
| 31> H       2.78765500     -4.01220800      0.36999800
| 32> C      -0.90267100      0.85628600     -0.32833200
| 33> C       0.25494700      0.12538000     -1.05660400
| 34> C       1.62800400      0.63626400     -0.71718900
| 35> C       2.42105900      1.20350200     -1.71221500
| 36> C       3.69745200      1.69815500     -1.43382600
| 37> C       4.18496400      1.62686800     -0.13282900
| 38> C       3.41221500      1.06433400      0.88633700
| 39> C       2.14069100      0.56858500      0.59410700
| 40> O       1.33132700     -0.01349700      1.49873900
| 41> C       1.74074100     -0.12990300      2.84120200
| 42> N      -1.92847400      1.35026300     -1.35445700
| 43> O      -2.09327600      0.68539100     -2.35013100
| 44> H       0.10842000      0.31111900     -2.12576100
| 45> H       2.02555000      1.25720500     -2.73034400
| 46> H       4.30171100      2.13656700     -2.23082000
| 47> H       5.18045800      2.01081800      0.10435100
| 48> H       3.80691600      1.01338900      1.90152300
| 49> H       1.88777700      0.86178500      3.29885300
| 50> H       2.67121800     -0.71358300      2.92971900
| 51> H       0.93357300     -0.65687700      3.36415900
| 52> O      -2.58656500      2.31304500     -1.03978700
| 53> H       3.21223500     -2.52657400      1.27710900
| 54> H      -4.44137700     -2.75285200     -0.95641300
| 55> N      -0.46149700      1.97531000      0.42842000
| 56> N      -1.13941900      2.39391000      1.35732800
| 57> N      -1.64191100      2.89541500      2.23587600
| 58> *
| 59> 
| 60>                          ****END OF INPUT****
================================================================================

                       *****************************
                       * Geometry Optimization Run *
                       *****************************

Geometry optimization settings:
Update method            Update   .... BFGS
Choice of coordinates    CoordSys .... Z-matrix Internals
Initial Hessian          InHess   .... Almoef's Model

Convergence Tolerances:
Energy Change            TolE     ....  1.0000e-06 Eh
Max. Gradient            TolMAXG  ....  1.0000e-04 Eh/bohr
RMS Gradient             TolRMSG  ....  3.0000e-05 Eh/bohr
Max. Displacement        TolMAXD  ....  1.0000e-03 bohr
RMS Displacement         TolRMSD  ....  6.0000e-04 bohr
Strict Convergence                ....  False
------------------------------------------------------------------------------
                        ORCA OPTIMIZATION COORDINATE SETUP
------------------------------------------------------------------------------

The optimization will be done in new redundant internal coordinates
Making redundant internal coordinates   ...  (new redundants) done
Evaluating the initial hessian          ...  (Almloef) done
Evaluating the coordinates              ...  done
Calculating the B-matrix                .... done
Calculating the G-matrix                .... done
Diagonalizing the G-matrix              .... done
Small eigenvalue found = 3.876e-03
Small eigenvalue found = 6.397e-03
Small eigenvalue found = 9.340e-03
Small eigenvalue found = 1.900e-02
Small eigenvalue found = 2.251e-02
Small eigenvalue found = 2.296e-02
Small eigenvalue found = 2.768e-02
The first mode is                       ....  116
The number of degrees of freedom        ....  126

    -----------------------------------------------------------------
                    Redundant Internal Coordinates


    -----------------------------------------------------------------
         Definition                    Initial Value    Approx d2E/dq
    -----------------------------------------------------------------
      1. B(C   1,C   0)                  1.4442         0.512073   
      2. B(C   2,C   1)                  1.3564         0.706976   
      3. B(N   3,C   2)                  1.3614         0.621687   
      4. B(C   4,N   3)                  1.4430         0.460677   
      5. B(C   5,C   4)                  1.4940         0.426347   
      6. B(C   5,C   0)                  1.3502         0.723146   
      7. B(C   6,N   3)                  1.4327         0.478410   
      8. B(C   7,C   6)                  1.5251         0.380404   
      9. B(O   8,C   7)                  1.2050         1.104351   
     10. B(O   9,C   7)                  1.3253         0.709619   
     11. B(C  10,O   9)                  1.4223         0.497024   
     12. B(H  11,C   0)                  1.0938         0.355052   
     13. B(H  12,C   2)                  1.0929         0.356300   
     14. B(H  13,C   4)                  1.1084         0.336600   
     15. B(H  14,C   5)                  1.0915         0.358113   
     16. B(H  15,C   6)                  1.1007         0.346206   
     17. B(H  16,C  10)                  1.0954         0.353044   
     18. B(H  17,C  10)                  1.0990         0.348346   
     19. B(C  18,C   4)                  1.5868         0.303265   
     20. B(C  19,C  18)                  1.5507         0.346215   
     21. B(C  19,C   6)                  1.5748         0.316849   
     22. B(C  20,C  19)                  1.5038         0.411280   
     23. B(C  21,C  20)                  1.3931         0.617685   
     24. B(C  22,C  21)                  1.3969         0.609133   
     25. B(C  23,C  22)                  1.3912         0.622126   
     26. B(C  24,C  23)                  1.3972         0.608394   
     27. B(C  25,C  24)                  1.3957         0.611881   
     28. B(C  25,C  20)                  1.4096         0.581426   
     29. B(O  26,C  25)                  1.3462         0.657293   
     30. B(C  27,O  26)                  1.4083         0.523167   
     31. B(N  28,C  18)                  1.5327         0.331270   
     32. B(O  29,N  28)                  1.2085         0.976140   
     33. B(H  30,C  19)                  1.0950         0.353522   
     34. B(H  31,C  21)                  1.0936         0.355407   
     35. B(H  32,C  22)                  1.0920         0.357422   
     36. B(H  33,C  23)                  1.0930         0.356134   
     37. B(H  34,C  24)                  1.0904         0.359562   
     38. B(H  35,C  27)                  1.1020         0.344510   
     39. B(H  36,C  27)                  1.1020         0.344627   
     40. B(H  37,C  27)                  1.0967         0.351371   
     41. B(O  38,N  28)                  1.2079         0.978415   
     42. B(H  39,C  10)                  1.0994         0.347842   
     43. B(H  40,C   1)                  1.0891         0.361323   
     44. B(N  41,C  18)                  1.4211         0.499182   
     45. B(N  42,N  41)                  1.2238         0.922958   
     46. B(N  43,N  42)                  1.1295         1.304865   
     47. A(C   1,C   0,H  11)          118.9889         0.340922   
     48. A(C   1,C   0,C   5)          122.0388         0.431160   
     49. A(C   5,C   0,H  11)          118.9625         0.361392   
     50. A(C   0,C   1,H  40)          121.6802         0.341923   
     51. A(C   2,C   1,H  40)          120.6001         0.361077   
     52. A(C   0,C   1,C   2)          117.7140         0.429414   
     53. A(C   1,C   2,H  12)          123.0320         0.360216   
     54. A(N   3,C   2,H  12)          114.8629         0.350270   
     55. A(C   1,C   2,N   3)          122.1046         0.441765   
     56. A(C   4,N   3,C   6)          110.0406         0.388258   
     57. A(C   2,N   3,C   6)          124.0582         0.409265   
     58. A(C   2,N   3,C   4)          124.2288         0.406538   
     59. A(C   5,C   4,C  18)          118.1495         0.358650   
     60. A(N   3,C   4,C  18)          101.6618         0.361160   
     61. A(N   3,C   4,C   5)          112.4805         0.382974   
     62. A(N   3,C   4,H  13)          110.6105         0.330010   
     63. A(H  13,C   4,C  18)          101.5419         0.310068   
     64. A(C   5,C   4,H  13)          111.5200         0.327787   
     65. A(C   4,C   5,H  14)          117.6325         0.331159   
     66. A(C   0,C   5,H  14)          120.9741         0.361921   
     67. A(C   0,C   5,C   4)          121.3808         0.417262   
     68. A(C   7,C   6,C  19)          117.9463         0.354399   
     69. A(N   3,C   6,C  19)          104.6221         0.366232   
     70. A(C   7,C   6,H  15)          104.9778         0.323191   
     71. A(N   3,C   6,H  15)          109.9034         0.333633   
     72. A(N   3,C   6,C   7)          110.9998         0.377944   
     73. A(H  15,C   6,C  19)          108.3012         0.313698   
     74. A(C   6,C   7,O   9)          110.6476         0.404913   
     75. A(C   6,C   7,O   8)          124.6277         0.438175   
     76. A(O   8,C   7,O   9)          124.4921         0.487789   
     77. A(C   7,O   9,C  10)          116.8838         0.421862   
     78. A(H  16,C  10,H  39)          110.0517         0.288368   
     79. A(H  16,C  10,H  17)          110.3575         0.288434   
     80. A(O   9,C  10,H  17)          110.6254         0.336100   
     81. A(H  17,C  10,H  39)          109.1716         0.287765   
     82. A(O   9,C  10,H  39)          110.3839         0.336019   
     83. A(O   9,C  10,H  16)          106.2241         0.336850   
     84. A(C  19,C  18,N  28)          109.7009         0.349273   
     85. A(C   4,C  18,N  28)          104.7187         0.341586   
     86. A(C  19,C  18,N  41)          112.9225         0.374584   
     87. A(C   4,C  18,N  41)          116.6522         0.366150   
     88. A(C   4,C  18,C  19)          104.3410         0.346238   
     89. A(N  28,C  18,N  41)          108.0892         0.369420   
     90. A(C  20,C  19,H  30)          106.5542         0.328495   
     91. A(C  18,C  19,H  30)          106.1830         0.319339   
     92. A(C   6,C  19,H  30)          105.1266         0.314764   
     93. A(C  18,C  19,C  20)          114.5492         0.364602   
     94. A(C   6,C  19,C  20)          118.8532         0.359128   
     95. A(C   6,C  19,C  18)          104.5729         0.348802   
     96. A(C  21,C  20,C  25)          118.4858         0.428798   
     97. A(C  19,C  20,C  25)          121.7181         0.398915   
     98. A(C  19,C  20,C  21)          119.7941         0.403188   
     99. A(C  22,C  21,H  31)          119.9085         0.351075   
    100. A(C  20,C  21,H  31)          118.6254         0.351904   
    101. A(C  20,C  21,C  22)          121.4661         0.432397   
    102. A(C  23,C  22,H  32)          120.6097         0.352668   
    103. A(C  21,C  22,H  32)          120.1529         0.351411   
    104. A(C  21,C  22,C  23)          119.2373         0.432954   
    105. A(C  24,C  23,H  33)          119.1340         0.351125   
    106. A(C  22,C  23,H  33)          120.2716         0.352452   
    107. A(C  22,C  23,C  24)          120.5944         0.432860   
    108. A(C  25,C  24,H  34)          120.5384         0.352034   
    109. A(C  23,C  24,H  34)          119.8488         0.351694   
    110. A(C  23,C  24,C  25)          119.6126         0.431570   
    111. A(C  24,C  25,O  26)          124.0987         0.434748   
    112. A(C  20,C  25,O  26)          115.2913         0.430776   
    113. A(C  20,C  25,C  24)          120.6029         0.428072   
    114. A(C  25,O  26,C  27)          120.1008         0.419959   
    115. A(O  26,C  27,H  36)          111.4583         0.338377   
    116. A(O  26,C  27,H  35)          111.1162         0.338358   
    117. A(H  36,C  27,H  37)          109.1871         0.287736   
    118. A(H  35,C  27,H  37)          109.4250         0.287721   
    119. A(O  26,C  27,H  37)          106.2785         0.339473   
    120. A(H  35,C  27,H  36)          109.3063         0.286851   
    121. A(C  18,N  28,O  29)          117.7439         0.412645   
    122. A(O  29,N  28,O  38)          125.3681         0.499077   
    123. A(C  18,N  28,O  38)          116.5584         0.412816   
    124. A(C  18,N  41,N  42)          120.1038         0.439645   
    125. A(N  41,N  42,N  43)          171.3701         0.521175   
    126. D(C   2,C   1,C   0,H  11)    179.8168         0.017872   
    127. D(H  40,C   1,C   0,C   5)    179.5331         0.017872   
    128. D(C   2,C   1,C   0,C   5)     -1.3369         0.017872   
    129. D(H  40,C   1,C   0,H  11)      0.6868         0.017872   
    130. D(N   3,C   2,C   1,H  40)   -178.4483         0.035262   
    131. D(H  12,C   2,C   1,H  40)      1.2752         0.035262   
    132. D(N   3,C   2,C   1,C   0)      2.4118         0.035262   
    133. D(H  12,C   2,C   1,C   0)   -177.8646         0.035262   
    134. D(C   6,N   3,C   2,C   1)   -166.5797         0.031310   
    135. D(C   6,N   3,C   2,H  12)     13.6757         0.031310   
    136. D(C   4,N   3,C   2,C   1)     -2.8022         0.031310   
    137. D(C   4,N   3,C   2,H  12)    177.4532         0.031310   
    138. D(H  13,C   4,N   3,C   2)    127.2282         0.018117   
    139. D(C   5,C   4,N   3,C   6)    167.5313         0.018117   
    140. D(C   5,C   4,N   3,C   2)      1.7938         0.018117   
    141. D(C  18,C   4,N   3,C   6)     40.1769         0.018117   
    142. D(C  18,C   4,N   3,C   2)   -125.5606         0.018117   
    143. D(H  13,C   4,N   3,C   6)    -67.0343         0.018117   
    144. D(H  14,C   5,C   4,H  13)     53.0947         0.013430   
    145. D(C   0,C   5,C   4,C  18)    117.3113         0.013430   
    146. D(H  14,C   5,C   4,N   3)    178.0323         0.013430   
    147. D(H  14,C   5,C   0,H  11)      0.7058         0.037041   
    148. D(C   0,C   5,C   4,N   3)     -0.6919         0.013430   
    149. D(C   0,C   5,C   4,H  13)   -125.6294         0.013430   
    150. D(H  14,C   5,C   4,C  18)    -63.9645         0.013430   
    151. D(C   4,C   5,C   0,H  11)    179.3875         0.037041   
    152. D(H  14,C   5,C   0,C   1)   -178.1407         0.037041   
    153. D(C   4,C   5,C   0,C   1)      0.5410         0.037041   
    154. D(C   7,C   6,N   3,C   4)     94.1744         0.019573   
    155. D(C   7,C   6,N   3,C   2)   -100.0587         0.019573   
    156. D(H  15,C   6,N   3,C   2)     15.6247         0.019573   
    157. D(C  19,C   6,N   3,C   4)    -34.0639         0.019573   
    158. D(C  19,C   6,N   3,C   2)    131.7029         0.019573   
    159. D(H  15,C   6,N   3,C   4)   -150.1422         0.019573   
    160. D(O   9,C   7,C   6,C  19)    -62.2075         0.010797   
    161. D(O   9,C   7,C   6,N   3)    177.1460         0.010797   
    162. D(O   9,C   7,C   6,H  15)     58.4492         0.010797   
    163. D(O   8,C   7,C   6,C  19)    123.1313         0.010797   
    164. D(O   8,C   7,C   6,H  15)   -116.2119         0.010797   
    165. D(O   8,C   7,C   6,N   3)      2.4849         0.010797   
    166. D(C  10,O   9,C   7,O   8)     -4.8457         0.037810   
    167. D(C  10,O   9,C   7,C   6)   -179.5155         0.037810   
    168. D(H  39,C  10,O   9,C   7)    -62.0112         0.019523   
    169. D(H  17,C  10,O   9,C   7)     58.9318         0.019523   
    170. D(H  16,C  10,O   9,C   7)    178.7096         0.019523   
    171. D(N  41,C  18,C   4,H  13)    -40.5194         0.007640   
    172. D(N  41,C  18,C   4,C   5)     81.7491         0.007640   
    173. D(N  41,C  18,C   4,N   3)   -154.6614         0.007640   
    174. D(N  28,C  18,C   4,C   5)    -37.6601         0.007640   
    175. D(N  28,C  18,C   4,N   3)     85.9293         0.007640   
    176. D(C  19,C  18,C   4,H  13)     84.7992         0.007640   
    177. D(N  28,C  18,C   4,H  13)   -159.9286         0.007640   
    178. D(C  19,C  18,C   4,N   3)    -29.3428         0.007640   
    179. D(C  19,C  18,C   4,C   5)   -152.9323         0.007640   
    180. D(H  30,C  19,C   6,C   7)    137.0009         0.008249   
    181. D(H  30,C  19,C   6,N   3)    -99.1052         0.008249   
    182. D(C  20,C  19,C   6,H  15)   -100.9931         0.008249   
    183. D(C  20,C  19,C   6,C   7)     17.9282         0.008249   
    184. D(C  20,C  19,C   6,N   3)    141.8221         0.008249   
    185. D(C  18,C  19,C   6,H  15)    129.7079         0.008249   
    186. D(C  18,C  19,C   6,C   7)   -111.3708         0.008249   
    187. D(H  30,C  19,C   6,H  15)     18.0796         0.008249   
    188. D(C  18,C  19,C   6,N   3)     12.5230         0.008249   
    189. D(H  30,C  19,C  18,N  41)   -111.1644         0.009675   
    190. D(H  30,C  19,C  18,C   4)    121.1875         0.009675   
    191. D(C  20,C  19,C  18,N  41)      6.1399         0.009675   
    192. D(C  20,C  19,C  18,N  28)    126.7704         0.009675   
    193. D(C  20,C  19,C  18,C   4)   -121.5082         0.009675   
    194. D(C   6,C  19,C  18,N  41)    137.9687         0.009675   
    195. D(H  30,C  19,C  18,N  28)      9.4661         0.009675   
    196. D(C   6,C  19,C  18,N  28)   -101.4008         0.009675   
    197. D(C   6,C  19,C  18,C   4)     10.3206         0.009675   
    198. D(C  25,C  20,C  19,H  30)    179.2663         0.012525   
    199. D(C  25,C  20,C  19,C  18)     62.1742         0.012525   
    200. D(C  25,C  20,C  19,C   6)    -62.4008         0.012525   
    201. D(C  21,C  20,C  19,H  30)     -0.2078         0.012525   
    202. D(C  21,C  20,C  19,C  18)   -117.2999         0.012525   
    203. D(C  21,C  20,C  19,C   6)    118.1251         0.012525   
    204. D(H  31,C  21,C  20,C  25)   -179.9979         0.026389   
    205. D(H  31,C  21,C  20,C  19)     -0.5069         0.026389   
    206. D(C  22,C  21,C  20,C  25)      0.0223         0.026389   
    207. D(C  22,C  21,C  20,C  19)    179.5133         0.026389   
    208. D(H  32,C  22,C  21,H  31)     -0.1121         0.025622   
    209. D(H  32,C  22,C  21,C  20)    179.8675         0.025622   
    210. D(C  23,C  22,C  21,H  31)    179.7824         0.025622   
    211. D(C  23,C  22,C  21,C  20)     -0.2380         0.025622   
    212. D(H  33,C  23,C  22,H  32)      0.0318         0.026793   
    213. D(H  33,C  23,C  22,C  21)   -179.8622         0.026793   
    214. D(C  24,C  23,C  22,H  32)   -179.9191         0.026793   
    215. D(C  24,C  23,C  22,C  21)      0.1869         0.026793   
    216. D(H  34,C  24,C  23,H  33)     -0.0379         0.025556   
    217. D(H  34,C  24,C  23,C  22)    179.9136         0.025556   
    218. D(C  25,C  24,C  23,H  33)   -179.8735         0.025556   
    219. D(C  25,C  24,C  23,C  22)      0.0780         0.025556   
    220. D(O  26,C  25,C  24,H  34)     -1.1465         0.025867   
    221. D(O  26,C  25,C  24,C  23)    178.6880         0.025867   
    222. D(C  20,C  25,C  24,H  34)    179.8672         0.025867   
    223. D(C  20,C  25,C  24,C  23)     -0.2983         0.025867   
    224. D(O  26,C  25,C  20,C  21)   -178.8240         0.023231   
    225. D(O  26,C  25,C  20,C  19)      1.6953         0.023231   
    226. D(C  24,C  25,C  20,C  21)      0.2476         0.023231   
    227. D(C  24,C  25,C  20,C  19)   -179.2331         0.023231   
    228. D(C  27,O  26,C  25,C  24)      1.2171         0.031989   
    229. D(C  27,O  26,C  25,C  20)   -179.7479         0.031989   
    230. D(H  37,C  27,O  26,C  25)   -178.4032         0.021711   
    231. D(H  36,C  27,O  26,C  25)    -59.5438         0.021711   
    232. D(H  35,C  27,O  26,C  25)     62.6384         0.021711   
    233. D(O  38,N  28,C  18,N  41)    -30.0410         0.009549   
    234. D(O  38,N  28,C  18,C  19)   -153.5572         0.009549   
    235. D(O  38,N  28,C  18,C   4)     94.9687         0.009549   
    236. D(O  29,N  28,C  18,N  41)    156.1930         0.009549   
    237. D(O  29,N  28,C  18,C  19)     32.6768         0.009549   
    238. D(O  29,N  28,C  18,C   4)    -78.7973         0.009549   
    239. D(N  42,N  41,C  18,N  28)     81.0063         0.019698   
    240. D(N  42,N  41,C  18,C  19)   -157.4482         0.019698   
    241. D(N  42,N  41,C  18,C   4)    -36.5747         0.019698   
    242. D(N  43,N  42,N  41,C  18)    179.3773         0.071563   
    -----------------------------------------------------------------

Number of atoms                         .... 44
Number of degrees of freedom            .... 242

         *************************************************************
         *                GEOMETRY OPTIMIZATION CYCLE   1            *
         *************************************************************
---------------------------------
CARTESIAN COORDINATES (ANGSTROEM)
---------------------------------
  C     -4.036045   -0.950391    0.272620
  C     -3.685469   -2.074046   -0.564094
  C     -2.374962   -2.251498   -0.865427
  N     -1.401729   -1.440444   -0.367125
  C     -1.651978   -0.292147    0.470070
  C     -3.104091   -0.109743    0.770446
  C     -0.056589   -1.405628   -0.858984
  C      0.874465   -2.214461    0.038101
  O      0.520664   -2.840132    1.005195
  O      2.104141   -2.228297   -0.456116
  C      3.082594   -2.957838    0.274141
  H     -5.087297   -0.785853    0.526171
  H     -2.016762   -3.051724   -1.517911
  H     -1.048574   -0.347027    1.398174
  H     -3.385609    0.716566    1.425692
  H     -0.004052   -1.898693   -1.841680
  H      4.014991   -2.873152   -0.294486
  H      2.787655   -4.012208    0.369998
  C     -0.902671    0.856286   -0.328332
  C      0.254947    0.125380   -1.056604
  C      1.628004    0.636264   -0.717189
  C      2.421059    1.203502   -1.712215
  C      3.697452    1.698155   -1.433826
  C      4.184964    1.626868   -0.132829
  C      3.412215    1.064334    0.886337
  C      2.140691    0.568585    0.594107
  O      1.331327   -0.013497    1.498739
  C      1.740741   -0.129903    2.841202
  N     -1.928474    1.350263   -1.354457
  O     -2.093276    0.685391   -2.350131
  H      0.108420    0.311119   -2.125761
  H      2.025550    1.257205   -2.730344
  H      4.301711    2.136567   -2.230820
  H      5.180458    2.010818    0.104351
  H      3.806916    1.013389    1.901523
  H      1.887777    0.861785    3.298853
  H      2.671218   -0.713583    2.929719
  H      0.933573   -0.656877    3.364159
  O     -2.586565    2.313045   -1.039787
  H      3.212235   -2.526574    1.277109
  H     -4.441377   -2.752852   -0.956413
  N     -0.461497    1.975310    0.428420
  N     -1.139419    2.393910    1.357328
  N     -1.641911    2.895415    2.235876

----------------------------
CARTESIAN COORDINATES (A.U.)
----------------------------
  NO LB      ZA    FRAG     MASS         X           Y           Z
   0 C     6.0000    0    12.011   -7.627020   -1.795979    0.515177
   1 C     6.0000    0    12.011   -6.964527   -3.919379   -1.065983
   2 C     6.0000    0    12.011   -4.488028   -4.254715   -1.635420
   3 N     7.0000    0    14.007   -2.648884   -2.722045   -0.693766
   4 C     6.0000    0    12.011   -3.121786   -0.552078    0.888304
   5 C     6.0000    0    12.011   -5.865882   -0.207384    1.455932
   6 C     6.0000    0    12.011   -0.106938   -2.656252   -1.623245
   7 C     6.0000    0    12.011    1.652499   -4.184725    0.072000
   8 O     8.0000    0    15.999    0.983912   -5.367072    1.899543
   9 O     8.0000    0    15.999    3.976250   -4.210871   -0.861934
  10 C     6.0000    0    12.011    5.825258   -5.589504    0.518051
  11 H     1.0000    0     1.008   -9.613598   -1.485047    0.994319
  12 H     1.0000    0     1.008   -3.811128   -5.766923   -2.868436
  13 H     1.0000    0     1.008   -1.981518   -0.655786    2.642166
  14 H     1.0000    0     1.008   -6.397874    1.354113    2.694167
  15 H     1.0000    0     1.008   -0.007657   -3.588010   -3.480271
  16 H     1.0000    0     1.008    7.587233   -5.429470   -0.556498
  17 H     1.0000    0     1.008    5.267905   -7.581974    0.699195
  18 C     6.0000    0    12.011   -1.705801    1.618146   -0.620458
  19 C     6.0000    0    12.011    0.481780    0.236934   -1.996692
  20 C     6.0000    0    12.011    3.076482    1.202365   -1.355291
  21 C     6.0000    0    12.011    4.575138    2.274289   -3.235617
  22 C     6.0000    0    12.011    6.987172    3.209048   -2.709538
  23 C     6.0000    0    12.011    7.908436    3.074335   -0.251010
  24 C     6.0000    0    12.011    6.448152    2.011300    1.674934
  25 C     6.0000    0    12.011    4.045320    1.074470    1.122700
  26 O     8.0000    0    15.999    2.515843   -0.025506    2.832206
  27 C     6.0000    0    12.011    3.289524   -0.245481    5.369094
  28 N     7.0000    0    14.007   -3.644288    2.551627   -2.559553
  29 O     8.0000    0    15.999   -3.955718    1.295201   -4.441104
  30 H     1.0000    0     1.008    0.204884    0.587930   -4.017106
  31 H     1.0000    0     1.008    3.827735    2.375773   -5.159602
  32 H     1.0000    0     1.008    8.129056    4.037526   -4.215639
  33 H     1.0000    0     1.008    9.789647    3.799895    0.197195
  34 H     1.0000    0     1.008    7.194029    1.915028    3.593358
  35 H     1.0000    0     1.008    3.567382    1.628538    6.233929
  36 H     1.0000    0     1.008    5.047870   -1.348476    5.536367
  37 H     1.0000    0     1.008    1.764197   -1.241318    6.357339
  38 O     8.0000    0    15.999   -4.887899    4.371022   -1.964913
  39 H     1.0000    0     1.008    6.070244   -4.774533    2.413386
  40 H     1.0000    0     1.008   -8.392986   -5.202136   -1.807359
  41 N     7.0000    0    14.007   -0.872103    3.732795    0.809596
  42 N     7.0000    0    14.007   -2.153190    4.523834    2.564978
  43 N     7.0000    0    14.007   -3.102762    5.471541    4.225193

--------------------------------
INTERNAL COORDINATES (ANGSTROEM)
--------------------------------
 C      0   0   0     0.000000000000     0.00000000     0.00000000
 C      1   0   0     1.444158720016     0.00000000     0.00000000
 C      2   1   0     1.356362557078   117.71396750     0.00000000
 N      3   2   1     1.361358125700   122.10460617     2.41180661
 C      4   3   2     1.442950460077   124.22875327   357.19781858
 C      1   2   3     1.350206667254   122.03879002   358.66307377
 C      4   3   2     1.432668506437   124.05820961   193.42030613
 C      7   4   3     1.525068480439   110.99982818   259.94126077
 O      8   7   4     1.204952344567   124.62771595     2.48489647
 O      8   7   4     1.325347102823   110.64764001   177.14603355
 C     10   8   7     1.422278323655   116.88376435   180.48447937
 H      1   2   3     1.093842598617   118.98889286   179.81683765
 H      3   2   1     1.092888036961   123.03195733   182.13537406
 H      5   4   3     1.108370532102   110.61054549   127.22822734
 H      6   1   2     1.091506421567   120.97413050   181.85931912
 H      7   4   3     1.100710978872   109.90340285    15.62468600
 H     11  10   8     1.095386940462   106.22405432   178.70964203
 H     11  10   8     1.099033063684   110.62537224    58.93180420
 C      5   4   3     1.586759304161   101.66181892   234.43938214
 C     19   5   4     1.550704072589   104.34095559   330.65716930
 C     20  19   5     1.503825298673   114.54918324   238.49180147
 C     21  20  19     1.393115904132   119.79413429   242.70008088
 C     22  21  20     1.396911277132   121.46610896   179.51332229
 C     23  22  21     1.391166050665   119.23725463   359.76196293
 C     24  23  22     1.397241873733   120.59439994     0.18685080
 C     25  24  23     1.395685754917   119.61258535     0.07797503
 O     26  25  24     1.346197828940   124.09868931   178.68798163
 C     27  26  25     1.408324212176   120.10077527     1.21710712
 N     19   5   4     1.532715755436   104.71866012    85.92931844
 O     29  19   5     1.208545071507   117.74388405   281.20269777
 H     20  19   5     1.095018642992   106.18300319   121.18748571
 H     22  21  20     1.093571233131   118.62542271   359.49313519
 H     23  22  21     1.092031802129   120.15293760   179.86745569
 H     24  23  22     1.093014299511   120.27156499   180.13782352
 H     25  24  23     1.090406753016   119.84880592   179.91357559
 H     28  27  26     1.102047690638   111.11622796    62.63839356
 H     28  27  26     1.101955103086   111.45826295   300.45617438
 H     28  27  26     1.096679443023   106.27848437   181.59678371
 O     29  19   5     1.207911483804   116.55842909    94.96867404
 H     11  10   8     1.099427230698   110.38389852   297.98884461
 H      2   1   3     1.089076988950   121.68020029   180.87000351
 N     19   5   4     1.421099152190   116.65217479   205.33859623
 N     42  19   5     1.223795027996   120.10382559   323.42529839
 N     43  42  19     1.129536216061   171.37014964   179.37734401

---------------------------
INTERNAL COORDINATES (A.U.)
---------------------------
 C      0   0   0     0.000000000000     0.00000000     0.00000000
 C      1   0   0     2.729064474744     0.00000000     0.00000000
 C      2   1   0     2.563153771182   117.71396750     0.00000000
 N      3   2   1     2.572594027761   122.10460617     2.41180661
 C      4   3   2     2.726781194360   124.22875327   357.19781858
 C      1   2   3     2.551520825304   122.03879002   358.66307377
 C      4   3   2     2.707351117860   124.05820961   193.42030613
 C      7   4   3     2.881961763506   110.99982818   259.94126077
 O      8   7   4     2.277029935658   124.62771595     2.48489647
 O      8   7   4     2.504543056721   110.64764001   177.14603355
 C     10   8   7     2.687716517921   116.88376435   180.48447937
 H      1   2   3     2.067062945003   118.98889286   179.81683765
 H      3   2   1     2.065259084895   123.03195733   182.13537406
 H      5   4   3     2.094516760581   110.61054549   127.22822734
 H      6   1   2     2.062648210177   120.97413050   181.85931912
 H      7   4   3     2.080042302669   109.90340285    15.62468600
 H     11  10   8     2.069981328146   106.22405432   178.70964203
 H     11  10   8     2.076871502487   110.62537224    58.93180420
 C      5   4   3     2.998540525316   101.66181892   234.43938214
 C     19   5   4     2.930406011949   104.34095559   330.65716930
 C     20  19   5     2.841817967755   114.54918324   238.49180147
 C     21  20  19     2.632607531619   119.79413429   242.70008088
 C     22  21  20     2.639779747166   121.46610896   179.51332229
 C     23  22  21     2.628922842565   119.23725463   359.76196293
 C     24  23  22     2.640404484202   120.59439994     0.18685080
 C     25  24  23     2.637463845807   119.61258535     0.07797503
 O     26  25  24     2.543945218777   124.09868931   178.68798163
 C     27  26  25     2.661347068783   120.10077527     1.21710712
 N     19   5   4     2.896413018921   104.71866012    85.92931844
 O     29  19   5     2.283819205649   117.74388405   281.20269777
 H     20  19   5     2.069285346792   106.18300319   121.18748571
 H     22  21  20     2.066550138552   118.62542271   359.49313519
 H     23  22  21     2.063641035556   120.15293760   179.86745569
 H     24  23  22     2.065497686536   120.27156499   180.13782352
 H     25  24  23     2.060570137778   119.84880592   179.91357559
 H     28  27  26     2.082568321827   111.11622796    62.63839356
 H     28  27  26     2.082393356710   111.45826295   300.45617438
 H     28  27  26     2.072423804015   106.27848437   181.59678371
 O     29  19   5     2.282621898408   116.55842909    94.96867404
 H     11  10   8     2.077616370195   110.38389852   297.98884461
 H      2   1   3     2.058057247872   121.68020029   180.87000351
 N     19   5   4     2.685488206787   116.65217479   205.33859623
 N     42  19   5     2.312637446967   120.10382559   323.42529839
 N     43  42  19     2.134514106701   171.37014964   179.37734401

---------------------
BASIS SET INFORMATION
---------------------
There are 4 groups of distinct atoms

 Group   1 Type C   : 11s6p2d1f contracted to 5s3p2d1f pattern {62111/411/11/1}
 Group   2 Type N   : 11s6p2d1f contracted to 5s3p2d1f pattern {62111/411/11/1}
 Group   3 Type O   : 11s6p2d1f contracted to 5s3p2d1f pattern {62111/411/11/1}
 Group   4 Type H   : 5s1p contracted to 3s1p pattern {311/1}

Atom   0C    basis set group =>   1
Atom   1C    basis set group =>   1
Atom   2C    basis set group =>   1
Atom   3N    basis set group =>   2
Atom   4C    basis set group =>   1
Atom   5C    basis set group =>   1
Atom   6C    basis set group =>   1
Atom   7C    basis set group =>   1
Atom   8O    basis set group =>   3
Atom   9O    basis set group =>   3
Atom  10C    basis set group =>   1
Atom  11H    basis set group =>   4
Atom  12H    basis set group =>   4
Atom  13H    basis set group =>   4
Atom  14H    basis set group =>   4
Atom  15H    basis set group =>   4
Atom  16H    basis set group =>   4
Atom  17H    basis set group =>   4
Atom  18C    basis set group =>   1
Atom  19C    basis set group =>   1
Atom  20C    basis set group =>   1
Atom  21C    basis set group =>   1
Atom  22C    basis set group =>   1
Atom  23C    basis set group =>   1
Atom  24C    basis set group =>   1
Atom  25C    basis set group =>   1
Atom  26O    basis set group =>   3
Atom  27C    basis set group =>   1
Atom  28N    basis set group =>   2
Atom  29O    basis set group =>   3
Atom  30H    basis set group =>   4
Atom  31H    basis set group =>   4
Atom  32H    basis set group =>   4
Atom  33H    basis set group =>   4
Atom  34H    basis set group =>   4
Atom  35H    basis set group =>   4
Atom  36H    basis set group =>   4
Atom  37H    basis set group =>   4
Atom  38O    basis set group =>   3
Atom  39H    basis set group =>   4
Atom  40H    basis set group =>   4
Atom  41N    basis set group =>   2
Atom  42N    basis set group =>   2
Atom  43N    basis set group =>   2
---------------------------------
AUXILIARY/J BASIS SET INFORMATION
---------------------------------
There are 4 groups of distinct atoms

 Group   1 Type C   : 12s5p4d2f1g contracted to 6s4p3d1f1g pattern {711111/2111/211/2/1}
 Group   2 Type N   : 12s5p4d2f1g contracted to 6s4p3d1f1g pattern {711111/2111/211/2/1}
 Group   3 Type O   : 12s5p4d2f1g contracted to 6s4p3d1f1g pattern {711111/2111/211/2/1}
 Group   4 Type H   : 5s2p1d contracted to 3s1p1d pattern {311/2/1}

Atom   0C    basis set group =>   1
Atom   1C    basis set group =>   1
Atom   2C    basis set group =>   1
Atom   3N    basis set group =>   2
Atom   4C    basis set group =>   1
Atom   5C    basis set group =>   1
Atom   6C    basis set group =>   1
Atom   7C    basis set group =>   1
Atom   8O    basis set group =>   3
Atom   9O    basis set group =>   3
Atom  10C    basis set group =>   1
Atom  11H    basis set group =>   4
Atom  12H    basis set group =>   4
Atom  13H    basis set group =>   4
Atom  14H    basis set group =>   4
Atom  15H    basis set group =>   4
Atom  16H    basis set group =>   4
Atom  17H    basis set group =>   4
Atom  18C    basis set group =>   1
Atom  19C    basis set group =>   1
Atom  20C    basis set group =>   1
Atom  21C    basis set group =>   1
Atom  22C    basis set group =>   1
Atom  23C    basis set group =>   1
Atom  24C    basis set group =>   1
Atom  25C    basis set group =>   1
Atom  26O    basis set group =>   3
Atom  27C    basis set group =>   1
Atom  28N    basis set group =>   2
Atom  29O    basis set group =>   3
Atom  30H    basis set group =>   4
Atom  31H    basis set group =>   4
Atom  32H    basis set group =>   4
Atom  33H    basis set group =>   4
Atom  34H    basis set group =>   4
Atom  35H    basis set group =>   4
Atom  36H    basis set group =>   4
Atom  37H    basis set group =>   4
Atom  38O    basis set group =>   3
Atom  39H    basis set group =>   4
Atom  40H    basis set group =>   4
Atom  41N    basis set group =>   2
Atom  42N    basis set group =>   2
Atom  43N    basis set group =>   2


           ************************************************************
           *        Program running with 24 parallel MPI-processes    *
           *              working on a common directory               *
           ************************************************************
------------------------------------------------------------------------------
                           ORCA GTO INTEGRAL CALCULATION
                           -- RI-GTO INTEGRALS CHOSEN --
------------------------------------------------------------------------------
------------------------------------------------------------------------------
                   ___                                                        
                  /   \      - P O W E R E D   B Y -                         
                 /     \                                                     
                 |  |  |   _    _      __       _____    __    __             
                 |  |  |  | |  | |    /  \     |  _  \  |  |  /  |          
                  \  \/   | |  | |   /    \    | | | |  |  | /  /          
                 / \  \   | |__| |  /  /\  \   | |_| |  |  |/  /          
                |  |  |   |  __  | /  /__\  \  |    /   |      \           
                |  |  |   | |  | | |   __   |  |    \   |  |\   \          
                \     /   | |  | | |  |  |  |  | |\  \  |  | \   \       
                 \___/    |_|  |_| |__|  |__|  |_| \__\ |__|  \__/        
                                                                              
                      - O R C A' S   B I G   F R I E N D -                    
                                      &                                       
                       - I N T E G R A L  F E E D E R -                       
                                                                              
 v1 FN, 2020, v2 2021                                                         
------------------------------------------------------------------------------


Reading SHARK input file 3_N3/3_N3.SHARKINP.tmp ... ok
----------------------
SHARK INTEGRAL PACKAGE
----------------------

Number of atoms                             ...     44
Number of basis functions                   ...    939
Number of shells                            ...    365
Maximum angular momentum                    ...      3
Integral batch strategy                     ... SHARK/LIBINT Hybrid
RI-J (if used) integral strategy            ... SPLIT-RIJ (Revised 2003 algorithm where possible)
Printlevel                                  ...      1
Contraction scheme used                     ... SEGMENTED contraction
Coulomb Range Separation                    ... NOT USED
Exchange Range Separation                   ... NOT USED
Finite Nucleus Model                        ... NOT USED
Auxiliary Coulomb fitting basis             ... AVAILABLE
   # of basis functions in Aux-J            ...   1510
   # of shells in Aux-J                     ...    490
   Maximum angular momentum in Aux-J        ...      4
Auxiliary J/K fitting basis                 ... NOT available
Auxiliary Correlation fitting basis         ... NOT available
Auxiliary 'external' fitting basis          ... NOT available
Integral threshold                          ...     2.500000e-11
Primitive cut-off                           ...     2.500000e-12
Primitive pair pre-selection threshold      ...     2.500000e-12

Calculating pre-screening integrals         ... done (  0.1 sec) Dimension = 365
Organizing shell pair data                  ... done (  0.6 sec)
Shell pair information
Total number of shell pairs                 ...     66795
Shell pairs after pre-screening             ...     49125
Total number of primitive shell pairs       ...    207048
Primitive shell pairs kept                  ...     99103
          la=0 lb=0:  12151 shell pairs
          la=1 lb=0:  13973 shell pairs
          la=1 lb=1:   4020 shell pairs
          la=2 lb=0:   7117 shell pairs
          la=2 lb=1:   4174 shell pairs
          la=2 lb=2:   1106 shell pairs
          la=3 lb=0:   3309 shell pairs
          la=3 lb=1:   1998 shell pairs
          la=3 lb=2:   1021 shell pairs
          la=3 lb=3:    256 shell pairs

Calculating one electron integrals          ... done (  0.1 sec)
Calculating RI/J V-Matrix + Cholesky decomp.... done (  0.3 sec)
Calculating Nuclear repulsion               ... done (  0.0 sec) ENN=   2743.851819274496 Eh

SHARK setup successfully completed in   1.9 seconds

Maximum memory used throughout the entire GTOINT-calculation: 74.1 MB


           ************************************************************
           *        Program running with 24 parallel MPI-processes    *
           *              working on a common directory               *
           ************************************************************
-------------------------------------------------------------------------------
                                 ORCA SCF
-------------------------------------------------------------------------------

------------
SCF SETTINGS
------------
Hamiltonian:
 Density Functional     Method          .... DFT(GTOs)
 Exchange Functional    Exchange        .... PBE
   PBE kappa parameter   XKappa         ....  0.804000
   PBE mue parameter    XMuePBE         ....  0.219520
 Correlation Functional Correlation     .... PBE
   PBE beta parameter  CBetaPBE         ....  0.066725
 LDA part of GGA corr.  LDAOpt          .... PW91-LDA
 Gradients option       PostSCFGGA      .... off
 Hybrid DFT is turned on
   Fraction HF Exchange ScalHFX         ....  0.250000
   Scaling of DF-GGA-X  ScalDFX         ....  0.750000
   Scaling of DF-GGA-C  ScalDFC         ....  1.000000
   Scaling of DF-LDA-C  ScalLDAC        ....  1.000000
   Perturbative correction              ....  0.000000
   Density functional embedding theory  .... OFF
   NL short-range parameter             ....  6.900000
 RI-approximation to the Coulomb term is turned on
   Number of AuxJ basis functions       .... 1510
   RIJ-COSX (HFX calculated with COS-X)).... on


General Settings:
 Integral files         IntName         .... 3_N3/3_N3
 Hartree-Fock type      HFTyp           .... RHF
 Total Charge           Charge          ....    0
 Multiplicity           Mult            ....    1
 Number of Electrons    NEL             ....  194
 Basis Dimension        Dim             ....  939
 Nuclear Repulsion      ENuc            ....   2743.8518192745 Eh

Convergence Acceleration:
 DIIS                   CNVDIIS         .... on
   Start iteration      DIISMaxIt       ....    12
   Startup error        DIISStart       ....  0.200000
   # of expansion vecs  DIISMaxEq       ....     5
   Bias factor          DIISBfac        ....   1.050
   Max. coefficient     DIISMaxC        ....  10.000
 Trust-Rad. Augm. Hess. CNVTRAH         .... auto
   Auto Start mean grad. ratio tolernc. ....  1.125000
   Auto Start start iteration           ....    20
   Auto Start num. interpolation iter.  ....    10
   Max. Number of Micro iterations      ....    16
   Max. Number of Macro iterations      .... Maxiter - #DIIS iter
   Number of Davidson start vectors     ....     2
   Converg. threshold I  (grad. norm)   ....   1.000e-05
   Converg. threshold II (energy diff.) ....   1.000e-08
   Grad. Scal. Fac. for Micro threshold ....   0.100
   Minimum threshold for Micro iter.    ....   0.010
   NR start threshold (gradient norm)   ....   0.001
   Initial trust radius                 ....   0.400
   Minimum AH scaling param. (alpha)    ....   1.000
   Maximum AH scaling param. (alpha)    .... 1000.000
   Orbital update algorithm             .... Taylor
   White noise on init. David. guess    .... on
   Maximum white noise                  ....   0.010
   Quad. conv. algorithm                .... NR
 SOSCF                  CNVSOSCF        .... on
   Start iteration      SOSCFMaxIt      ....   150
   Startup grad/error   SOSCFStart      ....  0.003300
 Level Shifting         CNVShift        .... on
   Level shift para.    LevelShift      ....    0.2500
   Turn off err/grad.   ShiftErr        ....    0.0010
 Zerner damping         CNVZerner       .... off
 Static damping         CNVDamp         .... on
   Fraction old density DampFac         ....    0.7000
   Max. Damping (<1)    DampMax         ....    0.9800
   Min. Damping (>=0)   DampMin         ....    0.0000
   Turn off err/grad.   DampErr         ....    0.1000
 Fernandez-Rico         CNVRico         .... off

SCF Procedure:
 Maximum # iterations   MaxIter         ....   800
 SCF integral mode      SCFMode         .... Direct
   Integral package                     .... SHARK and LIBINT hybrid scheme
 Reset frequency        DirectResetFreq ....    20
 Integral Threshold     Thresh          ....  2.500e-11 Eh
 Primitive CutOff       TCut            ....  2.500e-12 Eh

Convergence Tolerance:
 Convergence Check Mode ConvCheckMode   .... Total+1el-Energy
 Convergence forced     ConvForced      .... 0
 Energy Change          TolE            ....  1.000e-08 Eh
 1-El. energy change                    ....  1.000e-05 Eh
 Orbital Gradient       TolG            ....  1.000e-05
 Orbital Rotation angle TolX            ....  1.000e-05
 DIIS Error             TolErr          ....  5.000e-07


Diagonalization of the overlap matrix:
Smallest eigenvalue                        ... 5.515e-06
Time for diagonalization                   ...    0.291 sec
Threshold for overlap eigenvalues          ... 1.000e-08
Number of eigenvalues below threshold      ... 0
Time for construction of square roots      ...    0.161 sec
Total time needed                          ...    0.459 sec

Time for model grid setup =    0.383 sec

------------------------------
INITIAL GUESS: MODEL POTENTIAL
------------------------------
Loading Hartree-Fock densities                     ... done
Calculating cut-offs                               ... done
Initializing the effective Hamiltonian             ... done
Setting up the integral package (SHARK)            ... done
Starting the Coulomb interaction                   ... done (   0.8 sec)
Reading the grid                                   ... done
Mapping shells                                     ... done
Starting the XC term evaluation                    ... done (   0.3 sec)
  promolecular density results
     # of electrons  =    193.994225507
     EX              =   -165.495883417
     EC              =     -6.602726552
     EX+EC           =   -172.098609969
Transforming the Hamiltonian                       ... done (   0.2 sec)
Diagonalizing the Hamiltonian                      ... done (   0.3 sec)
Back transforming the eigenvectors                 ... done (   0.1 sec)
Now organizing SCF variables                       ... done
                      ------------------
                      INITIAL GUESS DONE (   2.2 sec)
                      ------------------
-------------------
DFT GRID GENERATION
-------------------

General Integration Accuracy     IntAcc      ... 4.388
Radial Grid Type                 RadialGrid  ... OptM3 with GC (2021)
Angular Grid (max. ang.)         AngularGrid ... 4 (Lebedev-302)
Angular grid pruning method      GridPruning ... 4 (adaptive)
Weight generation scheme         WeightScheme... Becke
Basis function cutoff            BFCut       ... 1.0000e-11
Integration weight cutoff        WCut        ... 1.0000e-14
Angular grids for H and He will be reduced by one unit
Partially contracted basis set               ... off
Rotationally invariant grid construction     ... off

Total number of grid points                  ...   214600
Total number of batches                      ...     3378
Average number of points per batch           ...       63
Average number of grid points per atom       ...     4877
Time for grid setup =    1.579 sec

--------------------
COSX GRID GENERATION
--------------------

GRIDX 1
-------
General Integration Accuracy     IntAcc      ... 3.816
Radial Grid Type                 RadialGrid  ... OptM3 with GC (2021)
Angular Grid (max. ang.)         AngularGrid ... 1 (Lebedev-50)
Angular grid pruning method      GridPruning ... 4 (adaptive)
Weight generation scheme         WeightScheme... Becke
Basis function cutoff            BFCut       ... 1.0000e-11
Integration weight cutoff        WCut        ... 1.0000e-14
Angular grids for H and He will be reduced by one unit
Partially contracted basis set               ... on
Rotationally invariant grid construction     ... off

Total number of grid points                  ...    27229
Total number of batches                      ...      447
Average number of points per batch           ...       60
Average number of grid points per atom       ...      619
UseSFitting                                  ... on

GRIDX 2
-------
General Integration Accuracy     IntAcc      ... 4.020
Radial Grid Type                 RadialGrid  ... OptM3 with GC (2021)
Angular Grid (max. ang.)         AngularGrid ... 2 (Lebedev-110)
Angular grid pruning method      GridPruning ... 4 (adaptive)
Weight generation scheme         WeightScheme... Becke
Basis function cutoff            BFCut       ... 1.0000e-11
Integration weight cutoff        WCut        ... 1.0000e-14
Angular grids for H and He will be reduced by one unit
Partially contracted basis set               ... on
Rotationally invariant grid construction     ... off

Total number of grid points                  ...    59304
Total number of batches                      ...      952
Average number of points per batch           ...       62
Average number of grid points per atom       ...     1348
UseSFitting                                  ... on

GRIDX 3
-------
General Integration Accuracy     IntAcc      ... 4.338
Radial Grid Type                 RadialGrid  ... OptM3 with GC (2021)
Angular Grid (max. ang.)         AngularGrid ... 3 (Lebedev-194)
Angular grid pruning method      GridPruning ... 4 (adaptive)
Weight generation scheme         WeightScheme... Becke
Basis function cutoff            BFCut       ... 1.0000e-11
Integration weight cutoff        WCut        ... 1.0000e-14
Angular grids for H and He will be reduced by one unit
Partially contracted basis set               ... on
Rotationally invariant grid construction     ... off

Total number of grid points                  ...   129545
Total number of batches                      ...     2048
Average number of points per batch           ...       63
Average number of grid points per atom       ...     2944
UseSFitting                                  ... on

Time for X-Grid setup             =    2.891 sec


--------------------
CPCM SOLVATION MODEL
--------------------
CPCM parameters:
  Epsilon                                         ...      47.2000
  Refrac                                          ...       1.4790
  Rsolv                                           ...       1.3000
  Surface type                                    ... GAUSSIAN VDW
  Epsilon function type                           ...         CPCM
Radii:
 Radius for C  used is    3.8550 Bohr (=   2.0400 Ang.)
 Radius for N  used is    3.5149 Bohr (=   1.8600 Ang.)
 Radius for O  used is    3.4469 Bohr (=   1.8240 Ang.)
 Radius for H  used is    2.4944 Bohr (=   1.3200 Ang.)
Calculating surface                               ...        done! (  0.0s)
GEPOL surface points                              ...         2221
GEPOL Volume                                      ...    2723.8081
GEPOL Surface-area                                ...    1318.7929
Calculating surface distance matrix               ...        done! (  0.1s)
Performing Cholesky decomposition & store         ...        done! (  0.3s)
Overall time for CPCM initialization              ...                 0.4s
--------------
SCF ITERATIONS
--------------
ITER       Energy         Delta-E        Max-DP      RMS-DP      [F,P]     Damp
               ***  Starting incremental Fock matrix formation  ***
  0  -1306.1902577836   0.000000000000 0.21552347  0.00077081  0.2630284 0.7000
  1  -1306.4544921011  -0.264234317502 0.14964870  0.00058978  0.1053245 0.7000
                               ***Turning on DIIS***
  2  -1306.5578761359  -0.103384034742 0.15426001  0.00099699  0.0330736 0.0000
  3  -1306.7320084565  -0.174132320603 0.13182933  0.00047813  0.0536805 0.0000
  4  -1306.7623111247  -0.030302668272 0.02758157  0.00016615  0.0144849 0.0000
  5  -1306.7645522834  -0.002241158629 0.01737312  0.00005666  0.0049665 0.0000
                      *** Initiating the SOSCF procedure ***
                           *** Shutting down DIIS ***
                      *** Re-Reading the Fockian *** 
                      *** Removing any level shift *** 
ITER      Energy       Delta-E        Grad      Rot      Max-DP    RMS-DP
  6  -1306.76472075  -0.0001684622  0.000524  0.000524  0.005750  0.000022
               *** Restarting incremental Fock matrix formation ***
  7  -1306.76475537  -0.0000346217  0.000383  0.001355  0.001792  0.000021
  8  -1306.76474144   0.0000139289  0.001030  0.001046  0.001711  0.000008
  9  -1306.76476092  -0.0000194811  0.000062  0.000185  0.001723  0.000005
 10  -1306.76476019   0.0000007244  0.000097  0.000138  0.001078  0.000003
 11  -1306.76476134  -0.0000011430  0.000011  0.000033  0.000205  0.000001
 12  -1306.76476131   0.0000000259  0.000021  0.000024  0.000696  0.000001
                  ***Gradient check signals convergence***
              ***Rediagonalizing the Fockian in SOSCF/NRSCF***

               *****************************************************
               *                     SUCCESS                       *
               *           SCF CONVERGED AFTER  13 CYCLES          *
               *****************************************************

Old exchange energy                            =    -42.063450400 Eh
New exchange energy                            =    -42.063461168 Eh
Exchange energy change after final integration =     -0.000010768 Eh
Total energy after final integration           =  -1306.764772109 Eh
Final COS-X integration done in                =    20.980 sec

----------------
TOTAL SCF ENERGY
----------------

Total Energy       :        -1306.76477211 Eh          -35558.87723 eV

Components:
Nuclear Repulsion  :         2743.85181927 Eh           74664.00385 eV
Electronic Energy  :        -4050.61659138 Eh         -110222.88107 eV
One Electron Energy:        -7239.15203403 Eh         -196987.34149 eV
Two Electron Energy:         3188.53544265 Eh           86764.46041 eV
Max COSX asymmetry :            0.00000251 Eh               0.00007 eV
CPCM Dielectric    :           -0.02980212 Eh              -0.81096 eV

Virial components:
Potential Energy   :        -2607.51989697 Eh          -70954.22364 eV
Kinetic Energy     :         1300.75512486 Eh           35395.34641 eV
Virial Ratio       :            2.00462012


DFT components:
N(Alpha)           :       97.000065228395 electrons
N(Beta)            :       97.000065228395 electrons
N(Total)           :      194.000130456789 electrons
E(X)               :     -126.061204150779 Eh       
E(C)               :       -6.594723446244 Eh       
E(XC)              :     -132.655927597023 Eh       
DFET-embed. en.    :        0.000000000000 Eh       
CPCM Solvation Model Properties:
Surface-charge          :           -0.03064805
Charge-correction       :            0.00000309 Eh               0.00008 eV
Free-energy (cav+disp)  :  This term is not implemented in the current solvation scheme

---------------
SCF CONVERGENCE
---------------

  Last Energy change         ...   -2.8523e-08  Tolerance :   1.0000e-08
  Last MAX-Density change    ...    3.2196e-15  Tolerance :   1.0000e-07
  Last RMS-Density change    ...    1.5591e-17  Tolerance :   5.0000e-09
  Last Orbital Gradient      ...    2.2800e-06  Tolerance :   1.0000e-05
  Last Orbital Rotation      ...    5.0790e-06  Tolerance :   1.0000e-05

             **** THE GBW FILE WAS UPDATED (3_N3/3_N3.gbw) ****
             **** DENSITY 3_N3/3_N3.scfp WAS UPDATED ****
             **** ENERGY FILE WAS UPDATED (3_N3/3_N3.en.tmp) ****
             **** THE GBW FILE WAS UPDATED (3_N3/3_N3.gbw) ****
             **** DENSITY 3_N3/3_N3.scfp WAS UPDATED ****
----------------
ORBITAL ENERGIES
----------------

  NO   OCC          E(Eh)            E(eV) 
   0   2.0000     -19.263806      -524.1948 
   1   2.0000     -19.257813      -524.0317 
   2   2.0000     -19.257504      -524.0233 
   3   2.0000     -19.249913      -523.8168 
   4   2.0000     -19.202494      -522.5264 
   5   2.0000     -14.627223      -398.0270 
   6   2.0000     -14.574562      -396.5940 
   7   2.0000     -14.468860      -393.7177 
   8   2.0000     -14.448507      -393.1639 
   9   2.0000     -14.430482      -392.6734 
  10   2.0000     -10.360144      -281.9138 
  11   2.0000     -10.347409      -281.5673 
  12   2.0000     -10.295820      -280.1635 
  13   2.0000     -10.294394      -280.1247 
  14   2.0000     -10.292645      -280.0771 
  15   2.0000     -10.272983      -279.5421 
  16   2.0000     -10.271157      -279.4924 
  17   2.0000     -10.271027      -279.4888 
  18   2.0000     -10.270559      -279.4761 
  19   2.0000     -10.244524      -278.7677 
  20   2.0000     -10.236865      -278.5592 
  21   2.0000     -10.234301      -278.4895 
  22   2.0000     -10.233973      -278.4806 
  23   2.0000     -10.229842      -278.3682 
  24   2.0000     -10.229621      -278.3621 
  25   2.0000     -10.225085      -278.2387 
  26   2.0000     -10.212243      -277.8893 
  27   2.0000      -1.291019       -35.1304 
  28   2.0000      -1.195254       -32.5245 
  29   2.0000      -1.154890       -31.4262 
  30   2.0000      -1.115284       -30.3484 
  31   2.0000      -1.113842       -30.3092 
  32   2.0000      -1.062355       -28.9081 
  33   2.0000      -1.042604       -28.3707 
  34   2.0000      -1.019587       -27.7444 
  35   2.0000      -0.900138       -24.4940 
  36   2.0000      -0.877320       -23.8731 
  37   2.0000      -0.855132       -23.2693 
  38   2.0000      -0.811938       -22.0940 
  39   2.0000      -0.794258       -21.6129 
  40   2.0000      -0.783526       -21.3208 
  41   2.0000      -0.778380       -21.1808 
  42   2.0000      -0.748274       -20.3616 
  43   2.0000      -0.721843       -19.6423 
  44   2.0000      -0.711382       -19.3577 
  45   2.0000      -0.685819       -18.6621 
  46   2.0000      -0.671394       -18.2696 
  47   2.0000      -0.651601       -17.7310 
  48   2.0000      -0.632570       -17.2131 
  49   2.0000      -0.615329       -16.7439 
  50   2.0000      -0.604376       -16.4459 
  51   2.0000      -0.598152       -16.2765 
  52   2.0000      -0.581594       -15.8260 
  53   2.0000      -0.567284       -15.4366 
  54   2.0000      -0.556049       -15.1309 
  55   2.0000      -0.553380       -15.0582 
  56   2.0000      -0.548812       -14.9339 
  57   2.0000      -0.545655       -14.8480 
  58   2.0000      -0.539731       -14.6868 
  59   2.0000      -0.525542       -14.3007 
  60   2.0000      -0.520972       -14.1764 
  61   2.0000      -0.513708       -13.9787 
  62   2.0000      -0.504402       -13.7255 
  63   2.0000      -0.502173       -13.6648 
  64   2.0000      -0.491223       -13.3668 
  65   2.0000      -0.487683       -13.2705 
  66   2.0000      -0.482694       -13.1348 
  67   2.0000      -0.480410       -13.0726 
  68   2.0000      -0.463152       -12.6030 
  69   2.0000      -0.461604       -12.5609 
  70   2.0000      -0.452707       -12.3188 
  71   2.0000      -0.442010       -12.0277 
  72   2.0000      -0.440451       -11.9853 
  73   2.0000      -0.435755       -11.8575 
  74   2.0000      -0.424492       -11.5510 
  75   2.0000      -0.407361       -11.0849 
  76   2.0000      -0.402521       -10.9531 
  77   2.0000      -0.397782       -10.8242 
  78   2.0000      -0.388091       -10.5605 
  79   2.0000      -0.382458       -10.4072 
  80   2.0000      -0.379695       -10.3320 
  81   2.0000      -0.370844       -10.0912 
  82   2.0000      -0.369655       -10.0588 
  83   2.0000      -0.363022        -9.8783 
  84   2.0000      -0.353296        -9.6137 
  85   2.0000      -0.348095        -9.4722 
  86   2.0000      -0.344606        -9.3772 
  87   2.0000      -0.341845        -9.3021 
  88   2.0000      -0.333106        -9.0643 
  89   2.0000      -0.332082        -9.0364 
  90   2.0000      -0.328276        -8.9328 
  91   2.0000      -0.312232        -8.4963 
  92   2.0000      -0.299752        -8.1567 
  93   2.0000      -0.290436        -7.9032 
  94   2.0000      -0.271783        -7.3956 
  95   2.0000      -0.240686        -6.5494 
  96   2.0000      -0.202318        -5.5053 
  97   0.0000      -0.075353        -2.0505 
  98   0.0000      -0.039983        -1.0880 
  99   0.0000      -0.031586        -0.8595 
 100   0.0000      -0.017678        -0.4810 
 101   0.0000      -0.008207        -0.2233 
 102   0.0000       0.003096         0.0842 
 103   0.0000       0.004493         0.1223 
 104   0.0000       0.045600         1.2408 
 105   0.0000       0.053123         1.4455 
 106   0.0000       0.061556         1.6750 
 107   0.0000       0.071754         1.9525 
 108   0.0000       0.074719         2.0332 
 109   0.0000       0.084871         2.3095 
 110   0.0000       0.088112         2.3976 
 111   0.0000       0.089366         2.4318 
 112   0.0000       0.091918         2.5012 
 113   0.0000       0.099798         2.7156 
 114   0.0000       0.107293         2.9196 
 115   0.0000       0.110877         3.0171 
 116   0.0000       0.115437         3.1412 
 117   0.0000       0.120680         3.2839 
 118   0.0000       0.127127         3.4593 
 119   0.0000       0.128169         3.4877 
 120   0.0000       0.133786         3.6405 
 121   0.0000       0.140703         3.8287 
 122   0.0000       0.142435         3.8759 
 123   0.0000       0.144446         3.9306 
 124   0.0000       0.146250         3.9797 
 125   0.0000       0.149951         4.0804 
 126   0.0000       0.161943         4.4067 
 127   0.0000       0.163842         4.4584 
 128   0.0000       0.164532         4.4771 
 129   0.0000       0.176534         4.8037 
 130   0.0000       0.184942         5.0325 
 131   0.0000       0.187238         5.0950 
 132   0.0000       0.189322         5.1517 
 133   0.0000       0.196433         5.3452 
 134   0.0000       0.206455         5.6179 
 135   0.0000       0.211983         5.7683 
 136   0.0000       0.215244         5.8571 
 137   0.0000       0.217268         5.9122 
 138   0.0000       0.217875         5.9287 
 139   0.0000       0.220893         6.0108 
 140   0.0000       0.228330         6.2132 
 141   0.0000       0.234471         6.3803 
 142   0.0000       0.235995         6.4217 
 143   0.0000       0.245837         6.6896 
 144   0.0000       0.249730         6.7955 
 145   0.0000       0.250689         6.8216 
 146   0.0000       0.256797         6.9878 
 147   0.0000       0.258896         7.0449 
 148   0.0000       0.261241         7.1087 
 149   0.0000       0.264608         7.2003 
 150   0.0000       0.272421         7.4129 
 151   0.0000       0.275139         7.4869 
 152   0.0000       0.281751         7.6668 
 153   0.0000       0.282326         7.6825 
 154   0.0000       0.287495         7.8231 
 155   0.0000       0.294081         8.0023 
 156   0.0000       0.297417         8.0931 
 157   0.0000       0.303046         8.2463 
 158   0.0000       0.305916         8.3244 
 159   0.0000       0.309809         8.4303 
 160   0.0000       0.318069         8.6551 
 161   0.0000       0.320664         8.7257 
 162   0.0000       0.321486         8.7481 
 163   0.0000       0.323933         8.8147 
 164   0.0000       0.327400         8.9090 
 165   0.0000       0.332412         9.0454 
 166   0.0000       0.339025         9.2253 
 167   0.0000       0.340740         9.2720 
 168   0.0000       0.344439         9.3727 
 169   0.0000       0.348848         9.4926 
 170   0.0000       0.352169         9.5830 
 171   0.0000       0.356780         9.7085 
 172   0.0000       0.359547         9.7838 
 173   0.0000       0.362179         9.8554 
 174   0.0000       0.363062         9.8794 
 175   0.0000       0.366406         9.9704 
 176   0.0000       0.372291        10.1305 
 177   0.0000       0.379037        10.3141 
 178   0.0000       0.386618        10.5204 
 179   0.0000       0.389456        10.5976 
 180   0.0000       0.391022        10.6402 
 181   0.0000       0.394440        10.7333 
 182   0.0000       0.400379        10.8949 
 183   0.0000       0.403444        10.9783 
 184   0.0000       0.406888        11.0720 
 185   0.0000       0.410503        11.1703 
 186   0.0000       0.417593        11.3633 
 187   0.0000       0.419759        11.4222 
 188   0.0000       0.422458        11.4957 
 189   0.0000       0.427090        11.6217 
 190   0.0000       0.431825        11.7506 
 191   0.0000       0.432809        11.7773 
 192   0.0000       0.434711        11.8291 
 193   0.0000       0.441730        12.0201 
 194   0.0000       0.444723        12.1015 
 195   0.0000       0.446978        12.1629 
 196   0.0000       0.451280        12.2799 
 197   0.0000       0.453899        12.3512 
 198   0.0000       0.458129        12.4663 
 199   0.0000       0.460280        12.5249 
 200   0.0000       0.463243        12.6055 
 201   0.0000       0.470649        12.8070 
 202   0.0000       0.475939        12.9510 
 203   0.0000       0.478486        13.0203 
 204   0.0000       0.483916        13.1680 
 205   0.0000       0.485148        13.2016 
 206   0.0000       0.492728        13.4078 
 207   0.0000       0.494330        13.4514 
 208   0.0000       0.496036        13.4978 
 209   0.0000       0.502013        13.6605 
 210   0.0000       0.506911        13.7937 
 211   0.0000       0.508297        13.8315 
 212   0.0000       0.516609        14.0576 
 213   0.0000       0.518903        14.1201 
 214   0.0000       0.521697        14.1961 
 215   0.0000       0.523664        14.2496 
 216   0.0000       0.529732        14.4147 
 217   0.0000       0.531075        14.4513 
 218   0.0000       0.535874        14.5819 
 219   0.0000       0.540082        14.6964 
 220   0.0000       0.549252        14.9459 
 221   0.0000       0.552866        15.0443 
 222   0.0000       0.558029        15.1847 
 223   0.0000       0.561812        15.2877 
 224   0.0000       0.563150        15.3241 
 225   0.0000       0.576236        15.6802 
 226   0.0000       0.579798        15.7771 
 227   0.0000       0.587478        15.9861 
 228   0.0000       0.592069        16.1110 
 229   0.0000       0.595551        16.2058 
 230   0.0000       0.604939        16.4612 
 231   0.0000       0.613208        16.6863 
 232   0.0000       0.615759        16.7556 
 233   0.0000       0.618067        16.8185 
 234   0.0000       0.627038        17.0626 
 235   0.0000       0.630053        17.1446 
 236   0.0000       0.644934        17.5496 
 237   0.0000       0.651847        17.7377 
 238   0.0000       0.659048        17.9336 
 239   0.0000       0.661556        18.0019 
 240   0.0000       0.664843        18.0913 
 241   0.0000       0.675989        18.3946 
 242   0.0000       0.677208        18.4278 
 243   0.0000       0.681841        18.5538 
 244   0.0000       0.687668        18.7124 
 245   0.0000       0.696539        18.9538 
 246   0.0000       0.699936        19.0462 
 247   0.0000       0.707080        19.2406 
 248   0.0000       0.712228        19.3807 
 249   0.0000       0.717137        19.5143 
 250   0.0000       0.720284        19.5999 
 251   0.0000       0.724283        19.7087 
 252   0.0000       0.732108        19.9217 
 253   0.0000       0.738624        20.0990 
 254   0.0000       0.745398        20.2833 
 255   0.0000       0.748368        20.3641 
 256   0.0000       0.749043        20.3825 
 257   0.0000       0.758978        20.6528 
 258   0.0000       0.764976        20.8161 
 259   0.0000       0.770633        20.9700 
 260   0.0000       0.776302        21.1243 
 261   0.0000       0.783133        21.3101 
 262   0.0000       0.788511        21.4565 
 263   0.0000       0.792092        21.5539 
 264   0.0000       0.794453        21.6182 
 265   0.0000       0.805793        21.9268 
 266   0.0000       0.815695        22.1962 
 267   0.0000       0.822100        22.3705 
 268   0.0000       0.827523        22.5181 
 269   0.0000       0.836404        22.7597 
 270   0.0000       0.840268        22.8649 
 271   0.0000       0.846606        23.0373 
 272   0.0000       0.852333        23.1932 
 273   0.0000       0.858112        23.3504 
 274   0.0000       0.865632        23.5551 
 275   0.0000       0.869010        23.6470 
 276   0.0000       0.873986        23.7824 
 277   0.0000       0.879998        23.9460 
 278   0.0000       0.886910        24.1341 
 279   0.0000       0.894602        24.3434 
 280   0.0000       0.900887        24.5144 
 281   0.0000       0.907775        24.7018 
 282   0.0000       0.913588        24.8600 
 283   0.0000       0.921812        25.0838 
 284   0.0000       0.931019        25.3343 
[...]
 24:    244.59   0.000380    1.92  0.000485  (-0.012973  0.016411  0.006863)
 25:    255.33   0.000260    1.31  0.000317  (-0.001280  0.012186  0.012936)
 26:    283.56   0.002570   12.99  0.002829  (-0.052151  0.007304  0.007448)
 27:    288.24   0.002612   13.20  0.002828  (-0.050081 -0.006813  0.016527)
 28:    300.94   0.000352    1.78  0.000365  (-0.000689  0.018668 -0.003977)
 29:    319.34   0.000130    0.66  0.000127  ( 0.003797 -0.009916 -0.003787)
 30:    361.11   0.001440    7.28  0.001245  ( 0.009371  0.032624 -0.009623)
 31:    369.56   0.002087   10.55  0.001763  ( 0.032522 -0.019880  0.017598)
 32:    381.99   0.001763    8.91  0.001440  ( 0.017525  0.012248 -0.031358)
 33:    424.70   0.007276   36.77  0.005346  (-0.003757  0.070839 -0.017713)
 34:    445.53   0.002118   10.70  0.001483  (-0.010266 -0.016040 -0.033478)
 35:    474.26   0.001484    7.50  0.000977  (-0.007569 -0.015236 -0.026214)
 36:    487.36   0.000907    4.58  0.000580  ( 0.003128 -0.020741 -0.011853)
 37:    507.58   0.000126    0.64  0.000077  ( 0.003775  0.001689  0.007765)
 38:    552.12   0.003807   19.24  0.002152  ( 0.003681 -0.044093 -0.013924)
 39:    560.80   0.004581   23.15  0.002549  (-0.017739 -0.009875 -0.046226)
 40:    565.46   0.006287   31.77  0.003470  (-0.053259 -0.015299  0.019978)
 41:    587.13   0.002723   13.76  0.001447  ( 0.002844 -0.028388 -0.025166)
 42:    599.27   0.002507   12.67  0.001305  ( 0.013411 -0.022506  0.024877)
 43:    608.60   0.003567   18.03  0.001829  (-0.029745  0.020385  0.022994)
 44:    619.28   0.002531   12.79  0.001275  ( 0.016290  0.004155  0.031508)
 45:    645.24   0.003326   16.81  0.001609  (-0.009602  0.036755 -0.012866)
 46:    666.41   0.010396   52.54  0.004868  (-0.030889  0.051776 -0.035116)
 47:    701.08   0.004752   24.02  0.002115  (-0.027716  0.013989  0.033933)
 48:    711.32   0.011255   56.88  0.004938  (-0.007479 -0.037793  0.058768)
 49:    714.75   0.008026   40.56  0.003504  (-0.000559 -0.027283  0.052533)
 50:    755.23   0.001182    5.97  0.000489  (-0.006181  0.007878  0.019704)
 51:    766.15   0.016776   84.78  0.006833  (-0.034480  0.071444  0.023239)
 52:    773.74   0.006332   32.00  0.002554  (-0.011187  0.048837  0.006605)
 53:    789.05   0.006878   34.76  0.002720  ( 0.034362 -0.037271  0.012261)
 54:    799.16   0.000665    3.36  0.000259  ( 0.003075  0.015792 -0.000813)
 55:    834.31   0.004288   21.67  0.001604  ( 0.025223 -0.030378 -0.006705)
 56:    841.67   0.028286  142.95  0.010488  ( 0.043445  0.082649 -0.042064)
 57:    867.71   0.003826   19.33  0.001376  ( 0.030177 -0.021528 -0.001334)
 58:    871.97   0.003946   19.94  0.001412  ( 0.026172 -0.019000  0.019136)
 59:    882.37   0.005042   25.48  0.001783  ( 0.006986  0.008409  0.040788)
 60:    924.82   0.006590   33.30  0.002224  ( 0.003521 -0.046408 -0.007581)
 61:    942.73   0.002839   14.35  0.000940  (-0.024256  0.017699 -0.006188)
 62:    956.47   0.002150   10.86  0.000701  ( 0.002369 -0.023605  0.011772)
 63:    958.41   0.004563   23.06  0.001486  ( 0.006954 -0.036898  0.008707)
 64:    988.73   0.000024    0.12  0.000008  ( 0.000691  0.002307 -0.001313)
 65:    995.09   0.000736    3.72  0.000231  ( 0.002035  0.014562  0.003817)
 66:   1001.00   0.000508    2.57  0.000158  (-0.003389  0.012117 -0.000269)
 67:   1018.56   0.002063   10.43  0.000632  ( 0.017881 -0.002505  0.017494)
 68:   1021.97   0.002022   10.22  0.000618  (-0.018040 -0.016918 -0.002426)
 69:   1039.48   0.015882   80.26  0.004768  (-0.051211  0.045589  0.008191)
 70:   1060.30   0.004420   22.34  0.001301  ( 0.015863  0.015914  0.028213)
 71:   1071.69   0.009405   47.53  0.002739  (-0.029704  0.002046 -0.043036)
 72:   1085.10   0.009131   46.14  0.002626  ( 0.000171  0.016384 -0.048553)
 73:   1092.80   0.002560   12.93  0.000731  (-0.015676  0.006662  0.020996)
 74:   1146.72   0.013014   65.77  0.003542  (-0.012593  0.015613 -0.056029)
 75:   1157.97   0.004287   21.66  0.001155  (-0.018979  0.028122  0.002027)
 76:   1170.87   0.000014    0.07  0.000004  (-0.000040  0.001746  0.000803)
 77:   1171.89   0.001171    5.92  0.000312  ( 0.002190 -0.015453 -0.008254)
 78:   1172.53   0.011502   58.13  0.003061  (-0.005686 -0.041192 -0.036498)
 79:   1173.33   0.000727    3.68  0.000193  ( 0.003680 -0.012115  0.005757)
 80:   1205.84   0.003042   15.37  0.000787  ( 0.026247  0.003512 -0.009275)
 81:   1206.91   0.005588   28.24  0.001445  ( 0.032963 -0.007219  0.017495)
 82:   1207.41   0.003275   16.55  0.000847  ( 0.016288  0.018223  0.015784)
 83:   1237.18   0.004087   20.65  0.001031  ( 0.029573 -0.004676 -0.011592)
 84:   1244.06   0.009453   47.77  0.002371  (-0.028816 -0.037860  0.010362)
 85:   1249.85   0.072578  366.78  0.018121  (-0.121485  0.057320  0.008778)
 86:   1265.23   0.052652  266.08  0.012986  ( 0.108030 -0.035059 -0.009322)
 87:   1274.82   0.012452   62.93  0.003048  ( 0.051667  0.003378  0.019166)
 88:   1308.26   0.063030  318.53  0.015035  ( 0.054104  0.049278 -0.098383)
 89:   1322.38   0.004910   24.81  0.001159  ( 0.014808  0.005142 -0.030214)
 90:   1327.23   0.008782   44.38  0.002065  ( 0.037539  0.022739 -0.011772)
 91:   1353.38   0.023630  119.42  0.005449  (-0.068537  0.022996 -0.014919)
 92:   1359.46   0.008497   42.94  0.001950  (-0.029219 -0.028110  0.017509)
 93:   1370.14   0.011971   60.50  0.002727  ( 0.051595 -0.003141 -0.007393)
 94:   1389.09   0.013379   67.61  0.003006  ( 0.011523  0.013504  0.051871)
 95:   1393.75   0.066057  333.83  0.014790  ( 0.038269 -0.062178 -0.097261)
 96:   1401.45   0.007358   37.19  0.001639  (-0.008366 -0.001390  0.039580)
 97:   1432.53   0.034770  175.71  0.007574  (-0.039610  0.052642 -0.056871)
 98:   1444.04   0.019411   98.09  0.004195  (-0.058245 -0.002598 -0.028204)
 99:   1465.27   0.002833   14.32  0.000603  ( 0.002876 -0.006461 -0.023522)
100:   1465.46   0.005297   26.77  0.001128  ( 0.001548 -0.031615  0.011225)
101:   1468.94   0.005632   28.46  0.001196  (-0.034385  0.001270 -0.003546)
102:   1472.24   0.004529   22.89  0.000960  (-0.020640  0.016234  0.016447)
103:   1474.66   0.002903   14.67  0.000614  ( 0.007076  0.013441 -0.019585)
104:   1483.58   0.003342   16.89  0.000703  ( 0.018672  0.012169 -0.014358)
105:   1499.80   0.010881   54.99  0.002264  ( 0.012916  0.018293 -0.041983)
106:   1503.73   0.030054  151.88  0.006237  ( 0.063090  0.042999  0.020193)
107:   1541.54   0.031622  159.81  0.006401  ( 0.037553  0.036361 -0.060573)
108:   1620.41   0.030759  155.44  0.005924  (-0.070052  0.026455  0.017787)
109:   1649.74   0.051962  262.59  0.009829  ( 0.029063 -0.088779 -0.033207)
110:   1653.99   0.078765  398.05  0.014861  (-0.032029  0.080230  0.086013)
111:   1665.19   0.014696   74.27  0.002754  ( 0.037567  0.018845 -0.031427)
112:   1708.06   0.037749  190.77  0.006897  (-0.076640 -0.031046 -0.007695)
113:   1794.11   0.104778  529.51  0.018225  (-0.069170 -0.068013  0.093886)
114:   2295.05   0.249203  1259.37  0.033885  (-0.075112  0.081720  0.146850)
115:   2991.30   0.006498   32.84  0.000678  (-0.013042 -0.012999 -0.018406)
116:   3040.62   0.011872   60.00  0.001218  ( 0.010244 -0.003318  0.033203)
117:   3072.76   0.006547   33.08  0.000665  (-0.019146  0.014207 -0.009821)
118:   3087.84   0.002195   11.09  0.000222  ( 0.013606 -0.005667 -0.002140)
119:   3113.30   0.007350   37.14  0.000737  ( 0.011465 -0.023931 -0.005708)
120:   3143.10   0.000170    0.86  0.000017  (-0.003763 -0.001073 -0.001242)
121:   3156.23   0.003929   19.86  0.000388  (-0.004394 -0.015676 -0.011109)
122:   3167.79   0.003317   16.77  0.000327  (-0.014109 -0.008466  0.007489)
123:   3186.15   0.000820    4.15  0.000080  ( 0.004679  0.000565  0.007626)
124:   3189.04   0.002262   11.43  0.000221  ( 0.011307  0.002544 -0.009329)
125:   3189.62   0.002690   13.59  0.000263  (-0.014919  0.004274  0.004727)
126:   3196.15   0.001725    8.72  0.000168  (-0.010350 -0.003243 -0.007123)
127:   3213.06   0.000213    1.07  0.000021  (-0.002820 -0.003547 -0.000328)
128:   3214.31   0.003130   15.82  0.000304  (-0.011223 -0.006977  0.011367)
129:   3219.02   0.000548    2.77  0.000053  (-0.005760  0.002383  0.003782)
130:   3230.11   0.000313    1.58  0.000030  (-0.003048  0.000023 -0.004579)
131:   3247.86   0.000558    2.82  0.000054  ( 0.000511  0.006293  0.003710)

* The epsilon (eps) is given for a Dirac delta lineshape.
** The dipole moment derivative (T) already includes vibrational overlap.

The first frequency considered to be a vibration is 6
The total number of vibrations considered is 126


--------------------------
THERMOCHEMISTRY AT 298.15K
--------------------------

Temperature         ... 298.15 K
Pressure            ... 1.00 atm
Total Mass          ... 371.35 AMU

Throughout the following assumptions are being made:
  (1) The electronic state is orbitally nondegenerate
  (2) There are no thermally accessible electronically excited states
  (3) Hindered rotations indicated by low frequency modes are not
      treated as such but are treated as vibrations and this may
      cause some error
  (4) All equations used are the standard statistical mechanics
      equations for an ideal gas
  (5) All vibrations are strictly harmonic

freq.      23.31  E(vib)   ...       0.56 
freq.      32.27  E(vib)   ...       0.55 
freq.      48.40  E(vib)   ...       0.53 
freq.      61.01  E(vib)   ...       0.51 
freq.      71.17  E(vib)   ...       0.50 
freq.      74.13  E(vib)   ...       0.49 
freq.      87.12  E(vib)   ...       0.48 
freq.      98.33  E(vib)   ...       0.46 
freq.      99.43  E(vib)   ...       0.46 
freq.     112.78  E(vib)   ...       0.45 
freq.     119.44  E(vib)   ...       0.44 
freq.     122.22  E(vib)   ...       0.43 
freq.     146.91  E(vib)   ...       0.41 
freq.     152.88  E(vib)   ...       0.40 
freq.     177.25  E(vib)   ...       0.37 
freq.     198.30  E(vib)   ...       0.35 
freq.     205.13  E(vib)   ...       0.35 
freq.     233.18  E(vib)   ...       0.32 
freq.     244.59  E(vib)   ...       0.31 
freq.     255.33  E(vib)   ...       0.30 
freq.     283.56  E(vib)   ...       0.28 
freq.     288.24  E(vib)   ...       0.27 
freq.     300.94  E(vib)   ...       0.26 
freq.     319.34  E(vib)   ...       0.25 
freq.     361.11  E(vib)   ...       0.22 
freq.     369.56  E(vib)   ...       0.21 
freq.     381.99  E(vib)   ...       0.21 
freq.     424.70  E(vib)   ...       0.18 
freq.     445.53  E(vib)   ...       0.17 
freq.     474.26  E(vib)   ...       0.15 
freq.     487.36  E(vib)   ...       0.15 
freq.     507.58  E(vib)   ...       0.14 
freq.     552.12  E(vib)   ...       0.12 
freq.     560.80  E(vib)   ...       0.11 
freq.     565.46  E(vib)   ...       0.11 
freq.     587.13  E(vib)   ...       0.10 
freq.     599.27  E(vib)   ...       0.10 
freq.     608.60  E(vib)   ...       0.10 
freq.     619.28  E(vib)   ...       0.09 
freq.     645.24  E(vib)   ...       0.09 
freq.     666.41  E(vib)   ...       0.08 
freq.     701.08  E(vib)   ...       0.07 
freq.     711.32  E(vib)   ...       0.07 
freq.     714.75  E(vib)   ...       0.07 
freq.     755.23  E(vib)   ...       0.06 
freq.     766.15  E(vib)   ...       0.06 
freq.     773.74  E(vib)   ...       0.05 
freq.     789.05  E(vib)   ...       0.05 
freq.     799.16  E(vib)   ...       0.05 
freq.     834.31  E(vib)   ...       0.04 
freq.     841.67  E(vib)   ...       0.04 
freq.     867.71  E(vib)   ...       0.04 
freq.     871.97  E(vib)   ...       0.04 
freq.     882.37  E(vib)   ...       0.04 
freq.     924.82  E(vib)   ...       0.03 
freq.     942.73  E(vib)   ...       0.03 
freq.     956.47  E(vib)   ...       0.03 
freq.     958.41  E(vib)   ...       0.03 
freq.     988.73  E(vib)   ...       0.02 
freq.     995.09  E(vib)   ...       0.02 
freq.    1001.00  E(vib)   ...       0.02 
freq.    1018.56  E(vib)   ...       0.02 
freq.    1021.97  E(vib)   ...       0.02 
freq.    1039.48  E(vib)   ...       0.02 
freq.    1060.30  E(vib)   ...       0.02 
freq.    1071.69  E(vib)   ...       0.02 
freq.    1085.10  E(vib)   ...       0.02 
freq.    1092.80  E(vib)   ...       0.02 
freq.    1146.72  E(vib)   ...       0.01 
freq.    1157.97  E(vib)   ...       0.01 
freq.    1170.87  E(vib)   ...       0.01 
freq.    1171.89  E(vib)   ...       0.01 
freq.    1172.53  E(vib)   ...       0.01 
freq.    1173.33  E(vib)   ...       0.01 
freq.    1205.84  E(vib)   ...       0.01 
freq.    1206.91  E(vib)   ...       0.01 
freq.    1207.41  E(vib)   ...       0.01 
freq.    1237.18  E(vib)   ...       0.01 
freq.    1244.06  E(vib)   ...       0.01 
freq.    1249.85  E(vib)   ...       0.01 
freq.    1265.23  E(vib)   ...       0.01 
freq.    1274.82  E(vib)   ...       0.01 
freq.    1308.26  E(vib)   ...       0.01 
freq.    1322.38  E(vib)   ...       0.01 
freq.    1327.23  E(vib)   ...       0.01 
freq.    1353.38  E(vib)   ...       0.01 
freq.    1359.46  E(vib)   ...       0.01 
freq.    1370.14  E(vib)   ...       0.01 
freq.    1389.09  E(vib)   ...       0.00 
freq.    1393.75  E(vib)   ...       0.00 
freq.    1401.45  E(vib)   ...       0.00 
freq.    1432.53  E(vib)   ...       0.00 
freq.    1444.04  E(vib)   ...       0.00 
freq.    1465.27  E(vib)   ...       0.00 
freq.    1465.46  E(vib)   ...       0.00 
freq.    1468.94  E(vib)   ...       0.00 
freq.    1472.24  E(vib)   ...       0.00 
freq.    1474.66  E(vib)   ...       0.00 
freq.    1483.58  E(vib)   ...       0.00 
freq.    1499.80  E(vib)   ...       0.00 
freq.    1503.73  E(vib)   ...       0.00 
freq.    1541.54  E(vib)   ...       0.00 
freq.    1620.41  E(vib)   ...       0.00 
freq.    1649.74  E(vib)   ...       0.00 
freq.    1653.99  E(vib)   ...       0.00 
freq.    1665.19  E(vib)   ...       0.00 
freq.    1708.06  E(vib)   ...       0.00 
freq.    1794.11  E(vib)   ...       0.00 
freq.    2295.05  E(vib)   ...       0.00 
freq.    2991.30  E(vib)   ...       0.00 
freq.    3040.62  E(vib)   ...       0.00 
freq.    3072.76  E(vib)   ...       0.00 
freq.    3087.84  E(vib)   ...       0.00 
freq.    3113.30  E(vib)   ...       0.00 
freq.    3143.10  E(vib)   ...       0.00 
freq.    3156.23  E(vib)   ...       0.00 
freq.    3167.79  E(vib)   ...       0.00 
freq.    3186.15  E(vib)   ...       0.00 
freq.    3189.04  E(vib)   ...       0.00 
freq.    3189.62  E(vib)   ...       0.00 
freq.    3196.15  E(vib)   ...       0.00 
freq.    3213.06  E(vib)   ...       0.00 
freq.    3214.31  E(vib)   ...       0.00 
freq.    3219.02  E(vib)   ...       0.00 
freq.    3230.11  E(vib)   ...       0.00 
freq.    3247.86  E(vib)   ...       0.00 

------------
INNER ENERGY
------------

The inner energy is: U= E(el) + E(ZPE) + E(vib) + E(rot) + E(trans)
    E(el)   - is the total energy from the electronic structure calculation
              = E(kin-el) + E(nuc-el) + E(el-el) + E(nuc-nuc)
    E(ZPE)  - the the zero temperature vibrational energy from the frequency calculation
    E(vib)  - the the finite temperature correction to E(ZPE) due to population
              of excited vibrational states
    E(rot)  - is the rotational thermal energy
    E(trans)- is the translational thermal energy

Summary of contributions to the inner energy U:
Electronic energy                ...  -1306.82827207 Eh
Zero point energy                ...      0.33827059 Eh     212.27 kcal/mol
Thermal vibrational correction   ...      0.02117599 Eh      13.29 kcal/mol
Thermal rotational correction    ...      0.00141627 Eh       0.89 kcal/mol
Thermal translational correction ...      0.00141627 Eh       0.89 kcal/mol
-----------------------------------------------------------------------
Total thermal energy                  -1306.46599294 Eh


Summary of corrections to the electronic energy:
(perhaps to be used in another calculation)
Total thermal correction                  0.02400853 Eh      15.07 kcal/mol
Non-thermal (ZPE) correction              0.33827059 Eh     212.27 kcal/mol
-----------------------------------------------------------------------
Total correction                          0.36227912 Eh     227.33 kcal/mol


--------
ENTHALPY
--------

The enthalpy is H = U + kB*T
                kB is Boltzmann's constant
Total free energy                 ...  -1306.46599294 Eh 
Thermal Enthalpy correction       ...      0.00094421 Eh       0.59 kcal/mol
-----------------------------------------------------------------------
Total Enthalpy                    ...  -1306.46504874 Eh


Note: Only C1 symmetry has been detected, increase convergence thresholds 
      if your molecule has a higher symmetry. Symmetry factor of 1.0 is   
      used for the rotational entropy correction. 
 

Note: Rotational entropy computed according to Herzberg 
Infrared and Raman Spectra, Chapter V,1, Van Nostrand Reinhold, 1945 
Point Group:  C1, Symmetry Number:   1  
Rotational constants in cm-1:     0.010072     0.006523     0.005410 

Vibrational entropy computed according to the QRRHO of S. Grimme
Chem.Eur.J. 2012 18 9955


-------
ENTROPY
-------

The entropy contributions are T*S = T*(S(el)+S(vib)+S(rot)+S(trans))
     S(el)   - electronic entropy
     S(vib)  - vibrational entropy
     S(rot)  - rotational entropy
     S(trans)- translational entropy
The entropies will be listed as multiplied by the temperature to get
units of energy

Electronic entropy                ...      0.00000000 Eh      0.00 kcal/mol
Vibrational entropy               ...      0.03790349 Eh     23.78 kcal/mol
Rotational entropy                ...      0.01652133 Eh     10.37 kcal/mol
Translational entropy             ...      0.02072937 Eh     13.01 kcal/mol
-----------------------------------------------------------------------
Final entropy term                ...      0.07515418 Eh     47.16 kcal/mol

In case the symmetry of your molecule has not been determined correctly
or in case you have a reason to use a different symmetry number we print 
out the resulting rotational entropy values for sn=1,12 :
 --------------------------------------------------------
|  sn= 1 | S(rot)=       0.01652133 Eh     10.37 kcal/mol|
|  sn= 2 | S(rot)=       0.01586687 Eh      9.96 kcal/mol|
|  sn= 3 | S(rot)=       0.01548404 Eh      9.72 kcal/mol|
|  sn= 4 | S(rot)=       0.01521241 Eh      9.55 kcal/mol|
|  sn= 5 | S(rot)=       0.01500173 Eh      9.41 kcal/mol|
|  sn= 6 | S(rot)=       0.01482958 Eh      9.31 kcal/mol|
|  sn= 7 | S(rot)=       0.01468404 Eh      9.21 kcal/mol|
|  sn= 8 | S(rot)=       0.01455796 Eh      9.14 kcal/mol|
|  sn= 9 | S(rot)=       0.01444675 Eh      9.07 kcal/mol|
|  sn=10 | S(rot)=       0.01434727 Eh      9.00 kcal/mol|
|  sn=11 | S(rot)=       0.01425728 Eh      8.95 kcal/mol|
|  sn=12 | S(rot)=       0.01417512 Eh      8.90 kcal/mol|
 --------------------------------------------------------


-------------------
GIBBS FREE ENERGY
-------------------

The Gibbs free energy is G = H - T*S

Total enthalpy                    ...  -1306.46504874 Eh 
Total entropy correction          ...     -0.07515418 Eh    -47.16 kcal/mol
-----------------------------------------------------------------------
Final Gibbs free energy         ...  -1306.54020292 Eh

For completeness - the Gibbs free energy minus the electronic energy
G-E(el)                           ...      0.28806915 Eh    180.77 kcal/mol


Timings for individual modules:

Sum of individual times         ...     7229.461 sec (= 120.491 min)
GTO integral calculation        ...       45.862 sec (=   0.764 min)   0.6 %
SCF iterations                  ...     2449.915 sec (=  40.832 min)  33.9 %
SCF Gradient evaluation         ...      621.086 sec (=  10.351 min)   8.6 %
Geometry relaxation             ...        2.718 sec (=   0.045 min)   0.0 %
Analytical frequency calculation...     4109.880 sec (=  68.498 min)  56.8 %
                             ****ORCA TERMINATED NORMALLY****
TOTAL RUN TIME: 0 days 2 hours 1 minutes 15 seconds 58 msec
