
                                 *****************
                                 * O   R   C   A *
                                 *****************

                                            #,                                       
                                            ###                                      
                                            ####                                     
                                            #####                                    
                                            ######                                   
                                           ########,                                 
                                     ,,################,,,,,                         
                               ,,#################################,,                 
                          ,,##########################################,,             
                       ,#########################################, ''#####,          
                    ,#############################################,,   '####,        
                  ,##################################################,,,,####,       
                ,###########''''           ''''###############################       
              ,#####''   ,,,,##########,,,,          '''####'''          '####       
            ,##' ,,,,###########################,,,                        '##       
           ' ,,###''''                  '''############,,,                           
         ,,##''                                '''############,,,,        ,,,,,,###''
      ,#''                                            '''#######################'''  
     '                                                          ''''####''''         
             ,#######,   #######,   ,#######,      ##                                
            ,#'     '#,  ##    ##  ,#'     '#,    #''#        ######   ,####,        
            ##       ##  ##   ,#'  ##            #'  '#       #        #'  '#        
            ##       ##  #######   ##           ,######,      #####,   #    #        
            '#,     ,#'  ##    ##  '#,     ,#' ,#      #,         ##   #,  ,#        
             '#######'   ##     ##  '#######'  #'      '#     #####' # '####'        



                  #######################################################
                  #                        -***-                        #
                  #          Department of theory and spectroscopy      #
                  #    Directorship and core code : Frank Neese         #
                  #        Max Planck Institute fuer Kohlenforschung    #
                  #                Kaiser Wilhelm Platz 1               #
                  #                 D-45470 Muelheim/Ruhr               #
                  #                      Germany                        #
                  #                                                     #
                  #                  All rights reserved                #
                  #                        -***-                        #
                  #######################################################


                         Program Version 5.0.4 -  RELEASE  -


 With contributions from (in alphabetic order):
   Daniel Aravena         : Magnetic Suceptibility
   Michael Atanasov       : Ab Initio Ligand Field Theory (pilot matlab implementation)
   Alexander A. Auer      : GIAO ZORA, VPT2 properties, NMR spectrum
   Ute Becker             : Parallelization
   Giovanni Bistoni       : ED, misc. LED, open-shell LED, HFLD
   Martin Brehm           : Molecular dynamics
   Dmytro Bykov           : SCF Hessian
   Vijay G. Chilkuri      : MRCI spin determinant printing, contributions to CSF-ICE
   Dipayan Datta          : RHF DLPNO-CCSD density
   Achintya Kumar Dutta   : EOM-CC, STEOM-CC
   Dmitry Ganyushin       : Spin-Orbit,Spin-Spin,Magnetic field MRCI
   Miquel Garcia          : C-PCM and meta-GGA Hessian, CC/C-PCM, Gaussian charge scheme
   Yang Guo               : DLPNO-NEVPT2, F12-NEVPT2, CIM, IAO-localization
   Andreas Hansen         : Spin unrestricted coupled pair/coupled cluster methods
   Benjamin Helmich-Paris : MC-RPA, TRAH-SCF, COSX integrals
   Lee Huntington         : MR-EOM, pCC
   Robert Izsak           : Overlap fitted RIJCOSX, COSX-SCS-MP3, EOM
   Marcus Kettner         : VPT2
   Christian Kollmar      : KDIIS, OOCD, Brueckner-CCSD(T), CCSD density, CASPT2, CASPT2-K
   Simone Kossmann        : Meta GGA functionals, TD-DFT gradient, OOMP2, MP2 Hessian
   Martin Krupicka        : Initial AUTO-CI
   Lucas Lang             : DCDCAS
   Marvin Lechner         : AUTO-CI (C++ implementation), FIC-MRCC
   Dagmar Lenk            : GEPOL surface, SMD
   Dimitrios Liakos       : Extrapolation schemes; Compound Job, initial MDCI parallelization
   Dimitrios Manganas     : Further ROCIS development; embedding schemes
   Dimitrios Pantazis     : SARC Basis sets
   Anastasios Papadopoulos: AUTO-CI, single reference methods and gradients
   Taras Petrenko         : DFT Hessian,TD-DFT gradient, ASA, ECA, R-Raman, ABS, FL, XAS/XES, NRVS
   Peter Pinski           : DLPNO-MP2, DLPNO-MP2 Gradient
   Christoph Reimann      : Effective Core Potentials
   Marius Retegan         : Local ZFS, SOC
   Christoph Riplinger    : Optimizer, TS searches, QM/MM, DLPNO-CCSD(T), (RO)-DLPNO pert. Triples
   Tobias Risthaus        : Range-separated hybrids, TD-DFT gradient, RPA, STAB
   Michael Roemelt        : Original ROCIS implementation
   Masaaki Saitow         : Open-shell DLPNO-CCSD energy and density
   Barbara Sandhoefer     : DKH picture change effects
   Avijit Sen             : IP-ROCIS
   Kantharuban Sivalingam : CASSCF convergence, NEVPT2, FIC-MRCI
   Bernardo de Souza      : ESD, SOC TD-DFT
   Georgi Stoychev        : AutoAux, RI-MP2 NMR, DLPNO-MP2 response
   Willem Van den Heuvel  : Paramagnetic NMR
   Boris Wezisla          : Elementary symmetry handling
   Frank Wennmohs         : Technical directorship


 We gratefully acknowledge several colleagues who have allowed us to
 interface, adapt or use parts of their codes:
   Stefan Grimme, W. Hujo, H. Kruse, P. Pracht,  : VdW corrections, initial TS optimization,
                  C. Bannwarth, S. Ehlert          DFT functionals, gCP, sTDA/sTD-DF
   Ed Valeev, F. Pavosevic, A. Kumar             : LibInt (2-el integral package), F12 methods
   Garnet Chan, S. Sharma, J. Yang, R. Olivares  : DMRG
   Ulf Ekstrom                                   : XCFun DFT Library
   Mihaly Kallay                                 : mrcc  (arbitrary order and MRCC methods)
   Jiri Pittner, Ondrej Demel                    : Mk-CCSD
   Frank Weinhold                                : gennbo (NPA and NBO analysis)
   Christopher J. Cramer and Donald G. Truhlar   : smd solvation model
   Lars Goerigk                                  : TD-DFT with DH, B97 family of functionals
   V. Asgeirsson, H. Jonsson                     : NEB implementation
   FAccTs GmbH                                   : IRC, NEB, NEB-TS, DLPNO-Multilevel, CI-OPT
                                                   MM, QMMM, 2- and 3-layer-ONIOM, Crystal-QMMM,
                                                   LR-CPCM, SF, NACMEs, symmetry and pop. for TD-DFT,
                                                   nearIR, NL-DFT gradient (VV10), updates on ESD,
                                                   ML-optimized integration grids
   S Lehtola, MJT Oliveira, MAL Marques          : LibXC Library
   Liviu Ungur et al                             : ANISO software


 Your calculation uses the libint2 library for the computation of 2-el integrals
 For citations please refer to: http://libint.valeyev.net

 Your ORCA version has been built with support for libXC version: 5.1.0
 For citations please refer to: https://tddft.org/programs/libxc/

 This ORCA versions uses:
   CBLAS   interface :  Fast vector & matrix operations
   LAPACKE interface :  Fast linear algebra routines
   SCALAPACK package :  Parallel linear algebra routines
   Shared memory     :  Shared parallel matrices
   BLAS/LAPACK       :  OpenBLAS 0.3.15  USE64BITINT DYNAMIC_ARCH NO_AFFINITY Haswell SINGLE_THREADED
        Core in use  :  Haswell
   Copyright (c) 2011-2014, The OpenBLAS Project


Your calculation utilizes the atom-pairwise dispersion correction
with the Becke-Johnson damping scheme (D3BJ)
Cite in your paper:
S.Grimme, S.Ehrlich, L.Goerigk, J Comput Chem, (2011), 32, 1456–1465 
S.Grimme, J.Antony, S.Ehrlich and H.Krieg, J.Chem.Phys., 132, (2010), 154104 
   

================================================================================

----- Orbital basis set information -----
Your calculation utilizes the basis: def2-TZVP
   F. Weigend and R. Ahlrichs, Phys. Chem. Chem. Phys. 7, 3297 (2005).

----- AuxJ basis set information -----
Your calculation utilizes the auxiliary basis: def2/J
   F. Weigend, Phys. Chem. Chem. Phys. 8, 1057 (2006).

================================================================================
                                        WARNINGS
                       Please study these warnings very carefully!
================================================================================


WARNING: Geometry Optimization
  ===> : Switching off AutoStart
         For restart on a previous wavefunction, please use MOREAD

INFO   : the flag for use of the SHARK integral package has been found!

================================================================================
                                       INPUT FILE
================================================================================
NAME = 4_4-NO2Ph_free/4_4-NO2Ph_free.inp
|  1> %pal nprocs 24 end
|  2> %maxcore 3500
|  3> ! PBE0 D3BJ def2-TZVP TightSCF OPT FREQ TightOpt
|  4> ! CPCM(dmso)
|  5> %scf
|  6> MaxIter 800
|  7> end
|  8> %geom
|  9> MaxIter 800
| 10> MaxStep 0.2
| 11> end
| 12> *xyz 0 1
| 13> C        2.188164000     -1.712442000      1.097145000
| 14> C        3.260603000     -0.643327000      0.956765000
| 15> O        3.466752000      0.222523000      1.766204000
| 16> O        3.908962000     -0.799679000     -0.182777000
| 17> C        4.883994000      0.202030000     -0.498351000
| 18> H        2.582464000     -2.683129000      0.799630000
| 19> H        5.661242000      0.222413000      0.265200000
| 20> H        4.398481000      1.175206000     -0.566948000
| 21> C       -3.174226000      1.825126000      0.683821000
| 22> C       -2.742714000      1.668331000      1.991405000
| 23> C       -1.677869000      0.831210000      2.253460000
| 24> C       -1.033841000      0.153234000      1.207444000
| 25> C       -1.508543000      0.321055000     -0.102047000
| 26> C       -2.572063000      1.153366000     -0.368371000
| 27> C        0.125819000     -0.683294000      1.398759000
| 28> C        0.916197000     -1.331843000      0.309902000
| 29> C        0.213620000     -2.500307000     -0.332486000
| 30> C       -0.651680000     -3.316064000      0.379865000
| 31> C       -1.288691000     -4.391854000     -0.224044000
| 32> C       -1.056975000     -4.648187000     -1.565373000
| 33> C       -0.196284000     -3.845018000     -2.302550000
| 34> C        0.445117000     -2.773931000     -1.688613000
| 35> O        1.300909000     -1.945635000     -2.323890000
| 36> C        1.516590000     -2.139217000     -3.709305000
| 37> N        0.631366000     -0.981013000      2.567849000
| 38> O        0.302706000     -0.725490000      3.713852000
| 39> H       -3.231940000      2.205636000      2.791934000
| 40> H       -1.329944000      0.713111000      3.268269000
| 41> H       -1.030710000     -0.191940000     -0.925443000
| 42> H       -2.926962000      1.294073000     -1.379425000
| 43> H        1.175053000     -0.600198000     -0.456349000
| 44> H       -0.839290000     -3.101186000      1.426823000
| 45> H       -1.962452000     -5.017163000      0.348949000
| 46> H       -1.550156000     -5.480493000     -2.054746000
| 47> H       -0.028721000     -4.058696000     -3.349576000
| 48> H        1.961596000     -3.118468000     -3.906313000
| 49> H        2.207670000     -1.357062000     -4.016543000
| 50> H        0.582388000     -2.044061000     -4.269836000
| 51> O        1.778247000     -1.799583000      2.449016000
| 52> H        5.300528000     -0.087651000     -1.459246000
| 53> N       -4.276512000      2.728252000      0.403685000
| 54> O       -4.601390000      2.892908000     -0.757274000
| 55> O       -4.819287000      3.281484000      1.341198000
| 56> *
| 57> 
| 58>                          ****END OF INPUT****
================================================================================

                       *****************************
                       * Geometry Optimization Run *
                       *****************************

Geometry optimization settings:
Update method            Update   .... BFGS
Choice of coordinates    CoordSys .... Z-matrix Internals
Initial Hessian          InHess   .... Almoef's Model

Convergence Tolerances:
Energy Change            TolE     ....  1.0000e-06 Eh
Max. Gradient            TolMAXG  ....  1.0000e-04 Eh/bohr
RMS Gradient             TolRMSG  ....  3.0000e-05 Eh/bohr
Max. Displacement        TolMAXD  ....  1.0000e-03 bohr
RMS Displacement         TolRMSD  ....  6.0000e-04 bohr
Strict Convergence                ....  False
------------------------------------------------------------------------------
                        ORCA OPTIMIZATION COORDINATE SETUP
------------------------------------------------------------------------------

The optimization will be done in new redundant internal coordinates
Making redundant internal coordinates   ...  (new redundants) done
Evaluating the initial hessian          ...  (Almloef) done
Evaluating the coordinates              ...  done
Calculating the B-matrix                .... done
Calculating the G-matrix                .... done
Diagonalizing the G-matrix              .... done
Small eigenvalue found = 3.270e-03
Small eigenvalue found = 4.393e-03
Small eigenvalue found = 7.539e-03
Small eigenvalue found = 1.095e-02
Small eigenvalue found = 1.433e-02
Small eigenvalue found = 2.047e-02
The first mode is                       ....   99
The number of degrees of freedom        ....  123

    -----------------------------------------------------------------
                    Redundant Internal Coordinates


    -----------------------------------------------------------------
         Definition                    Initial Value    Approx d2E/dq
    -----------------------------------------------------------------
      1. B(C   1,C   0)                  1.5208         0.386413   
      2. B(O   2,C   1)                  1.2031         1.112001   
      3. B(O   3,C   1)                  1.3204         0.722718   
      4. B(C   4,O   3)                  1.4331         0.477702   
      5. B(H   5,C   0)                  1.0891         0.361243   
      6. B(H   6,C   4)                  1.0897         0.360440   
      7. B(H   7,C   4)                  1.0897         0.360464   
      8. B(C   9,C   8)                  1.3858         0.634409   
      9. B(C  10,C   9)                  1.3796         0.649092   
     10. B(C  11,C  10)                  1.4031         0.595531   
     11. B(C  12,C  11)                  1.4030         0.595766   
     12. B(C  13,C  12)                  1.3765         0.656570   
     13. B(C  13,C   8)                  1.3860         0.634067   
     14. B(C  14,C  11)                  1.4426         0.514950   
     15. B(C  15,C   0)                  1.5435         0.355451   
     16. B(C  15,C  14)                  1.4936         0.426980   
     17. B(C  16,C  15)                  1.5072         0.406246   
     18. B(C  17,C  16)                  1.3862         0.633498   
     19. B(C  18,C  17)                  1.3885         0.628348   
     20. B(C  19,C  18)                  1.3851         0.636094   
     21. B(C  20,C  19)                  1.3890         0.627114   
     22. B(C  21,C  20)                  1.3912         0.621963   
     23. B(C  21,C  16)                  1.4027         0.596336   
     24. B(O  22,C  21)                  1.3498         0.648590   
     25. B(C  23,O  22)                  1.4154         0.509737   
     26. B(N  24,C  14)                  1.3080         0.756183   
     27. B(O  25,N  24)                  1.2193         0.938410   
     28. B(H  26,C   9)                  1.0812         0.372000   
     29. B(H  27,C  10)                  1.0793         0.374570   
     30. B(H  28,C  12)                  1.0814         0.371631   
     31. B(H  29,C  13)                  1.0807         0.372571   
     32. B(H  30,C  15)                  1.0906         0.359281   
     33. B(H  31,C  17)                  1.0851         0.366610   
     34. B(H  32,C  18)                  1.0832         0.369231   
     35. B(H  33,C  19)                  1.0842         0.367882   
     36. B(H  34,C  20)                  1.0817         0.371297   
     37. B(H  35,C  23)                  1.0935         0.355480   
     38. B(H  36,C  23)                  1.0880         0.362750   
     39. B(H  37,C  23)                  1.0936         0.355356   
     40. B(O  38,N  24)                  1.4140         0.458834   
     41. B(O  38,C   0)                  1.4153         0.509860   
     42. B(H  39,C   4)                  1.0866         0.364604   
     43. B(N  40,C   8)                  1.4523         0.445139   
     44. B(O  41,N  40)                  1.2168         0.947153   
     45. B(O  42,N  40)                  1.2164         0.948415   
     46. A(C   1,C   0,H   5)          110.2446         0.326295   
     47. A(C  15,C   0,O  38)          105.2878         0.377671   
     48. A(C   1,C   0,O  38)          109.6144         0.383180   
     49. A(C   1,C   0,C  15)          111.1426         0.362363   
     50. A(H   5,C   0,C  15)          112.2576         0.321852   
     51. A(H   5,C   0,O  38)          108.1132         0.339583   
     52. A(C   0,C   1,O   2)          124.3796         0.439964   
     53. A(O   2,C   1,O   3)          125.5737         0.490069   
     54. A(C   0,C   1,O   3)          110.0411         0.407351   
     55. A(C   1,O   3,C   4)          116.1916         0.420257   
     56. A(O   3,C   4,H   7)          109.5703         0.335795   
     57. A(O   3,C   4,H   6)          110.1241         0.335791   
     58. A(H   6,C   4,H   7)          110.1926         0.290929   
     59. A(O   3,C   4,H  39)          105.6164         0.336433   
     60. A(H   6,C   4,H  39)          110.5597         0.291451   
     61. A(H   7,C   4,H  39)          110.6832         0.291454   
     62. A(C   9,C   8,C  13)          121.7474         0.437631   
     63. A(C  13,C   8,N  40)          118.9944         0.408117   
     64. A(C   9,C   8,N  40)          119.2544         0.408156   
     65. A(C  10,C   9,H  26)          120.6752         0.357632   
     66. A(C   8,C   9,H  26)          120.0995         0.356244   
     67. A(C   8,C   9,C  10)          119.2225         0.439484   
     68. A(C   9,C  10,C  11)          120.3898         0.434503   
     69. A(C  11,C  10,H  27)          120.0097         0.352857   
     70. A(C   9,C  10,H  27)          119.5917         0.358051   
     71. A(C  10,C  11,C  14)          123.3882         0.416865   
     72. A(C  10,C  11,C  12)          118.8649         0.427864   
     73. A(C  12,C  11,C  14)          117.7189         0.416894   
     74. A(C  11,C  12,C  13)          120.9537         0.435431   
     75. A(C  13,C  12,H  28)          118.7447         0.358269   
     76. A(C  11,C  12,H  28)          120.2935         0.352410   
     77. A(C   8,C  13,C  12)          118.8071         0.440351   
     78. A(C   8,C  13,H  29)          120.2943         0.356304   
     79. A(C  12,C  13,H  29)          120.8940         0.358423   
     80. A(C  11,C  14,C  15)          125.4840         0.393082   
     81. A(C  15,C  14,N  24)          110.3780         0.417980   
     82. A(C  11,C  14,N  24)          124.1379         0.432228   
     83. A(C  14,C  15,H  30)          110.2727         0.331419   
     84. A(C   0,C  15,H  30)          109.1573         0.321565   
     85. A(C  14,C  15,C  16)          113.6201         0.377193   
     86. A(C   0,C  15,C  16)          114.2274         0.365478   
     87. A(C   0,C  15,C  14)           99.8647         0.368610   
     88. A(C  16,C  15,H  30)          109.3462         0.328703   
     89. A(C  17,C  16,C  21)          119.0151         0.432712   
     90. A(C  15,C  16,C  21)          119.1022         0.399828   
     91. A(C  15,C  16,C  17)          121.8822         0.404111   
     92. A(C  18,C  17,H  31)          119.5880         0.354785   
     93. A(C  16,C  17,H  31)          119.1562         0.355276   
     94. A(C  16,C  17,C  18)          121.2534         0.436803   
     95. A(C  19,C  18,H  32)          120.6297         0.355953   
     96. A(C  17,C  18,H  32)          120.1709         0.355214   
     97. A(C  17,C  18,C  19)          119.1984         0.437126   
     98. A(C  20,C  19,H  33)          119.0923         0.354875   
     99. A(C  18,C  19,H  33)          120.2037         0.355732   
    100. A(C  18,C  19,C  20)          120.7038         0.436971   
    101. A(C  19,C  20,C  21)          119.7785         0.435206   
    102. A(C  21,C  20,H  34)          120.5190         0.354934   
    103. A(C  19,C  20,H  34)          119.7024         0.355431   
    104. A(C  16,C  21,O  22)          116.1004         0.431705   
    105. A(C  16,C  21,C  20)          120.0485         0.431285   
    106. A(C  20,C  21,O  22)          123.8507         0.434984   
    107. A(C  21,O  22,C  23)          118.2519         0.417026   
    108. A(H  36,C  23,H  37)          109.5912         0.290569   
    109. A(H  35,C  23,H  37)          109.4637         0.289647   
    110. A(O  22,C  23,H  37)          111.0770         0.338639   
    111. A(H  35,C  23,H  36)          109.5366         0.290585   
    112. A(O  22,C  23,H  36)          105.9544         0.339806   
    113. A(O  22,C  23,H  35)          111.1513         0.338659   
    114. A(C  14,N  24,O  25)          133.4860         0.475656   
    115. A(O  25,N  24,O  38)          114.7671         0.431417   
    116. A(C  14,N  24,O  38)          111.7228         0.417846   
    117. A(C   0,O  38,N  24)          106.2323         0.389780   
    118. A(O  41,N  40,O  42)          123.6903         0.493427   
    119. A(C   8,N  40,O  42)          118.2190         0.432779   
    120. A(C   8,N  40,O  41)          118.0899         0.432675   
    121. D(O   3,C   1,C   0,H   5)     43.6610         0.011120   
    122. D(O   3,C   1,C   0,O  38)    162.5563         0.011120   
    123. D(O   3,C   1,C   0,C  15)    -81.4720         0.011120   
    124. D(O   2,C   1,C   0,H   5)   -137.1607         0.011120   
    125. D(O   2,C   1,C   0,C  15)     97.7064         0.011120   
    126. D(O   2,C   1,C   0,O  38)    -18.2653         0.011120   
    127. D(C   4,O   3,C   1,C   0)    175.3802         0.039363   
    128. D(C   4,O   3,C   1,O   2)     -3.7861         0.039363   
    129. D(H   7,C   4,O   3,C   1)    -60.3669         0.017998   
    130. D(H  39,C   4,O   3,C   1)   -179.6149         0.017998   
    131. D(H   6,C   4,O   3,C   1)     60.9937         0.017998   
    132. D(H  26,C   9,C   8,N  40)      0.7108         0.027931   
    133. D(H  26,C   9,C   8,C  13)    179.9959         0.027931   
    134. D(C  10,C   9,C   8,N  40)   -178.6853         0.027931   
    135. D(C  10,C   9,C   8,C  13)      0.5997         0.027931   
    136. D(H  27,C  10,C   9,H  26)     -0.0629         0.029329   
    137. D(C  11,C  10,C   9,H  26)   -178.9849         0.029329   
    138. D(C  11,C  10,C   9,C   8)      0.4077         0.029329   
    139. D(H  27,C  10,C   9,C   8)    179.3297         0.029329   
    140. D(C  14,C  11,C  10,H  27)     -2.1544         0.024430   
    141. D(C  14,C  11,C  10,C   9)    176.7632         0.024430   
    142. D(C  12,C  11,C  10,C   9)     -1.2672         0.024430   
    143. D(C  12,C  11,C  10,H  27)    179.8152         0.024430   
    144. D(H  28,C  12,C  11,C  10)   -179.8842         0.024450   
    145. D(C  13,C  12,C  11,C  10)      1.1614         0.024450   
    146. D(C  13,C  12,C  11,C  14)   -176.9809         0.024450   
    147. D(H  28,C  12,C  11,C  14)      1.9734         0.024450   
    148. D(H  29,C  13,C   8,N  40)     -0.6378         0.027899   
    149. D(H  29,C  13,C   8,C   9)   -179.9246         0.027899   
    150. D(C  12,C  13,C   8,N  40)    178.5790         0.027899   
    151. D(C  12,C  13,C   8,C   9)     -0.7079         0.027899   
    152. D(H  29,C  13,C  12,H  28)      0.0509         0.030058   
    153. D(H  29,C  13,C  12,C  11)    179.0211         0.030058   
    154. D(C   8,C  13,C  12,H  28)   -179.1610         0.030058   
    155. D(C   8,C  13,C  12,C  11)     -0.1908         0.030058   
    156. D(N  24,C  14,C  11,C  12)   -176.3279         0.018077   
    157. D(N  24,C  14,C  11,C  10)      5.6206         0.018077   
    158. D(C  15,C  14,C  11,C  12)      3.5503         0.018077   
    159. D(C  15,C  14,C  11,C  10)   -174.5012         0.018077   
    160. D(H  30,C  15,C  14,N  24)   -130.2573         0.013469   
    161. D(H  30,C  15,C  14,C  11)     49.8503         0.013469   
    162. D(C  16,C  15,C  14,N  24)    106.5832         0.013469   
    163. D(C  16,C  15,C  14,C  11)    -73.3092         0.013469   
    164. D(C   0,C  15,C  14,N  24)    -15.4660         0.013469   
    165. D(C   0,C  15,C  14,C  11)    164.6416         0.013469   
    166. D(H  30,C  15,C   0,O  38)    139.6668         0.010155   
    167. D(H  30,C  15,C   0,H   5)   -102.9385         0.010155   
    168. D(H  30,C  15,C   0,C   1)     21.0581         0.010155   
    169. D(C  16,C  15,C   0,O  38)    -97.5886         0.010155   
    170. D(C  16,C  15,C   0,H   5)     19.8062         0.010155   
    171. D(C  16,C  15,C   0,C   1)    143.8027         0.010155   
    172. D(C  14,C  15,C   0,O  38)     24.0266         0.010155   
    173. D(C  14,C  15,C   0,H   5)    141.4214         0.010155   
    174. D(C  14,C  15,C   0,C   1)    -94.5821         0.010155   
    175. D(C  21,C  16,C  15,H  30)     24.7497         0.012232   
    176. D(C  21,C  16,C  15,C  14)    148.4151         0.012232   
    177. D(C  21,C  16,C  15,C   0)    -97.8922         0.012232   
    178. D(C  17,C  16,C  15,H  30)   -155.4911         0.012232   
    179. D(C  17,C  16,C  15,C  14)    -31.8257         0.012232   
    180. D(C  17,C  16,C  15,C   0)     81.8670         0.012232   
    181. D(H  31,C  17,C  16,C  15)      0.7822         0.027846   
    182. D(C  18,C  17,C  16,C  21)     -0.0259         0.027846   
    183. D(C  18,C  17,C  16,C  15)   -179.7853         0.027846   
    184. D(H  31,C  17,C  16,C  21)   -179.4584         0.027846   
    185. D(H  32,C  18,C  17,H  31)     -0.4917         0.027366   
    186. D(H  32,C  18,C  17,C  16)   -179.9217         0.027366   
    187. D(C  19,C  18,C  17,H  31)    179.1533         0.027366   
    188. D(C  19,C  18,C  17,C  16)     -0.2767         0.027366   
    189. D(H  33,C  19,C  18,H  32)     -0.0077         0.028089   
    190. D(H  33,C  19,C  18,C  17)   -179.6510         0.028089   
    191. D(C  20,C  19,C  18,H  32)    179.8132         0.028089   
    192. D(C  20,C  19,C  18,C  17)      0.1699         0.028089   
    193. D(H  34,C  20,C  19,H  33)     -0.0484         0.027252   
    194. D(H  34,C  20,C  19,C  18)   -179.8713         0.027252   
    195. D(C  21,C  20,C  19,H  33)   -179.9385         0.027252   
    196. D(C  21,C  20,C  19,C  18)      0.2386         0.027252   
    197. D(O  22,C  21,C  20,H  34)     -0.1940         0.026778   
    198. D(O  22,C  21,C  20,C  19)    179.6952         0.026778   
    199. D(C  16,C  21,C  20,H  34)    179.5669         0.026778   
    200. D(C  16,C  21,C  20,C  19)     -0.5439         0.026778   
    201. D(O  22,C  21,C  16,C  17)   -179.7836         0.024499   
    202. D(O  22,C  21,C  16,C  15)     -0.0174         0.024499   
    203. D(C  20,C  21,C  16,C  17)      0.4375         0.024499   
    204. D(C  20,C  21,C  16,C  15)   -179.7963         0.024499   
    205. D(C  23,O  22,C  21,C  20)      2.8551         0.031078   
    206. D(C  23,O  22,C  21,C  16)   -176.9144         0.031078   
    207. D(H  37,C  23,O  22,C  21)     59.4977         0.020568   
    208. D(H  36,C  23,O  22,C  21)    178.4397         0.020568   
    209. D(H  35,C  23,O  22,C  21)    -62.6435         0.020568   
    210. D(O  38,N  24,C  14,C  15)      1.0811         0.048107   
    211. D(O  38,N  24,C  14,C  11)   -179.0247         0.048107   
    212. D(O  25,N  24,C  14,C  15)   -176.9911         0.048107   
    213. D(O  25,N  24,C  14,C  11)      2.9032         0.048107   
    214. D(C   0,O  38,N  24,O  25)   -165.9715         0.017522   
    215. D(C   0,O  38,N  24,C  14)     15.5688         0.017522   
    216. D(N  24,O  38,C   0,C  15)    -24.6222         0.020579   
    217. D(N  24,O  38,C   0,H   5)   -144.7912         0.020579   
    218. D(N  24,O  38,C   0,C   1)     95.0057         0.020579   
    219. D(O  42,N  40,C   8,C  13)    177.9560         0.015604   
    220. D(O  42,N  40,C   8,C   9)     -2.7391         0.015604   
    221. D(O  41,N  40,C   8,C  13)     -2.3407         0.015604   
    222. D(O  41,N  40,C   8,C   9)    176.9642         0.015604   
    -----------------------------------------------------------------

Number of atoms                         .... 43
Number of degrees of freedom            .... 222

         *************************************************************
         *                GEOMETRY OPTIMIZATION CYCLE   1            *
         *************************************************************
---------------------------------
CARTESIAN COORDINATES (ANGSTROEM)
---------------------------------
  C      2.188164   -1.712442    1.097145
  C      3.260603   -0.643327    0.956765
  O      3.466752    0.222523    1.766204
  O      3.908962   -0.799679   -0.182777
  C      4.883994    0.202030   -0.498351
  H      2.582464   -2.683129    0.799630
  H      5.661242    0.222413    0.265200
  H      4.398481    1.175206   -0.566948
  C     -3.174226    1.825126    0.683821
  C     -2.742714    1.668331    1.991405
  C     -1.677869    0.831210    2.253460
  C     -1.033841    0.153234    1.207444
  C     -1.508543    0.321055   -0.102047
  C     -2.572063    1.153366   -0.368371
  C      0.125819   -0.683294    1.398759
  C      0.916197   -1.331843    0.309902
  C      0.213620   -2.500307   -0.332486
  C     -0.651680   -3.316064    0.379865
  C     -1.288691   -4.391854   -0.224044
  C     -1.056975   -4.648187   -1.565373
  C     -0.196284   -3.845018   -2.302550
  C      0.445117   -2.773931   -1.688613
  O      1.300909   -1.945635   -2.323890
  C      1.516590   -2.139217   -3.709305
  N      0.631366   -0.981013    2.567849
  O      0.302706   -0.725490    3.713852
  H     -3.231940    2.205636    2.791934
  H     -1.329944    0.713111    3.268269
  H     -1.030710   -0.191940   -0.925443
  H     -2.926962    1.294073   -1.379425
  H      1.175053   -0.600198   -0.456349
  H     -0.839290   -3.101186    1.426823
  H     -1.962452   -5.017163    0.348949
  H     -1.550156   -5.480493   -2.054746
  H     -0.028721   -4.058696   -3.349576
  H      1.961596   -3.118468   -3.906313
  H      2.207670   -1.357062   -4.016543
  H      0.582388   -2.044061   -4.269836
  O      1.778247   -1.799583    2.449016
  H      5.300528   -0.087651   -1.459246
  N     -4.276512    2.728252    0.403685
  O     -4.601390    2.892908   -0.757274
  O     -4.819287    3.281484    1.341198

----------------------------
CARTESIAN COORDINATES (A.U.)
----------------------------
  NO LB      ZA    FRAG     MASS         X           Y           Z
   0 C     6.0000    0    12.011    4.135031   -3.236046    2.073304
   1 C     6.0000    0    12.011    6.161647   -1.215712    1.808024
   2 O     8.0000    0    15.999    6.551212    0.420508    3.337642
   3 O     8.0000    0    15.999    7.386868   -1.511174   -0.345398
   4 C     6.0000    0    12.011    9.229411    0.381781   -0.941747
   5 H     1.0000    0     1.008    4.880150   -5.070379    1.511082
   6 H     1.0000    0     1.008   10.698197    0.420300    0.501155
   7 H     1.0000    0     1.008    8.311924    2.220817   -1.071376
   8 C     6.0000    0    12.011   -5.998418    3.448988    1.292234
   9 C     6.0000    0    12.011   -5.182978    3.152689    3.763210
  10 C     6.0000    0    12.011   -3.170713    1.570759    4.258422
  11 C     6.0000    0    12.011   -1.953676    0.289570    2.281738
  12 C     6.0000    0    12.011   -2.850733    0.606706   -0.192841
  13 C     6.0000    0    12.011   -4.860495    2.179546   -0.696120
  14 C     6.0000    0    12.011    0.237763   -1.291239    2.643271
  15 C     6.0000    0    12.011    1.731361   -2.516819    0.585630
  16 C     6.0000    0    12.011    0.403683   -4.724895   -0.628307
  17 C     6.0000    0    12.011   -1.231497   -6.266453    0.717841
  18 C     6.0000    0    12.011   -2.435273   -8.299401   -0.423382
  19 C     6.0000    0    12.011   -1.997393   -8.783800   -2.958126
  20 C     6.0000    0    12.011   -0.370923   -7.266031   -4.351189
  21 C     6.0000    0    12.011    0.841149   -5.241970   -3.191016
  22 O     8.0000    0    15.999    2.458362   -3.676717   -4.391516
  23 C     6.0000    0    12.011    2.865940   -4.042534   -7.009571
  24 N     7.0000    0    14.007    1.193109   -1.853846    4.852531
  25 O     8.0000    0    15.999    0.572031   -1.370977    7.018163
  26 H     1.0000    0     1.008   -6.107481    4.168048    5.275991
  27 H     1.0000    0     1.008   -2.513230    1.347584    6.176133
  28 H     1.0000    0     1.008   -1.947760   -0.362714   -1.748834
  29 H     1.0000    0     1.008   -5.531157    2.445444   -2.606735
  30 H     1.0000    0     1.008    2.220528   -1.134210   -0.862375
  31 H     1.0000    0     1.008   -1.586028   -5.860392    2.696305
  32 H     1.0000    0     1.008   -3.708497   -9.481064    0.659418
  33 H     1.0000    0     1.008   -2.929370  -10.356631   -3.882907
  34 H     1.0000    0     1.008   -0.054275   -7.669824   -6.329781
  35 H     1.0000    0     1.008    3.706879   -5.893050   -7.381862
  36 H     1.0000    0     1.008    4.171892   -2.564476   -7.590166
  37 H     1.0000    0     1.008    1.100554   -3.862715   -8.068821
  38 O     8.0000    0    15.999    3.360400   -3.400719    4.627970
  39 H     1.0000    0     1.008   10.016546   -0.165636   -2.757575
  40 N     7.0000    0    14.007   -8.081436    5.155649    0.762854
  41 O     8.0000    0    15.999   -8.695367    5.466804   -1.431040
  42 O     8.0000    0    15.999   -9.107133    6.201106    2.534497

--------------------------------
INTERNAL COORDINATES (ANGSTROEM)
--------------------------------
 C      0   0   0     0.000000000000     0.00000000     0.00000000
 C      1   0   0     1.520802037198     0.00000000     0.00000000
 O      2   1   0     1.203073201190   124.37959662     0.00000000
 O      2   1   3     1.320367869402   110.04110283   180.82162075
 C      4   2   1     1.433071969993   116.19162704   175.38018739
 H      1   2   3     1.089137694322   110.24457104   222.83933143
 H      5   4   2     1.089743111836   110.12407109    60.99374298
 H      5   4   2     1.089724712280   109.57027194   299.63308507
 C      1   2   3     6.437425773995   101.25478973    66.73092183
 C      9   1   2     1.385843856726    67.53445173   268.63192162
 C     10   9   1     1.379615622444   119.22246445   353.96575006
 C     11  10   9     1.403058442694   120.38984588     0.40765480
 C     12  11  10     1.402951373329   118.86491268   358.73277469
 C     13  12  11     1.376497317141   120.95373037     1.16140815
 C     12  11  10     1.442633647053   123.38824120   176.76317090
 C     15  12  11     1.493627381489   125.48401847   185.49878863
 C     16  15  12     1.507177794014   113.62007948   286.69076890
 C     17  16  15     1.386235016240   121.88221069   328.17430102
 C     18  17  16     1.388457135997   121.25335316   180.21465589
 C     19  18  17     1.385121798899   119.19837742   359.72332246
 C     20  19  18     1.388992213575   120.70376076     0.16988325
 C     21  20  19     1.391237306982   119.77848965     0.23861755
 O     22  21  20     1.349826313867   123.85065868   179.69517800
 C     23  22  21     1.415403478415   118.25193415     2.85514721
 N     15  12  11     1.308046558908   124.13791009     5.62056834
 O     25  15  12     1.219275307360   133.48604679     2.90316362
 H     10   9   1     1.081150045989   120.09952108   173.36191635
 H     11  10   9     1.079275908147   119.59170891   179.32972463
 H     13  12  11     1.081420001077   120.29348213   180.11575185
 H     14  13  12     1.080732136547   120.89395708   179.02110982
 H     16  15  12     1.090619745724   110.27274400    49.85026779
 H     18  17  16     1.085122629359   119.15623119     0.78222892
 H     19  18  17     1.083183367972   120.17091227   180.07831531
 H     20  19  18     1.084180201593   120.20370062   180.34899270
 H     21  20  19     1.081664962606   119.70240623   180.12870092
 H     24  23  22     1.093514980739   111.15127845   297.35647333
 H     24  23  22     1.088004227505   105.95440876   178.43973721
 H     24  23  22     1.093610096470   111.07695257    59.49765576
 O     25  15  12     1.414041779775   111.72280623   180.97530850
 H      5   4   2     1.086616241339   105.61641359   180.38513549
 N      9   1   2     1.452290320896   170.52784909    45.93472885
 O     41   9  10     1.216751048038   118.08994066   176.96424363
 O     41   9  10     1.216388495349   118.21899709   357.26092524

---------------------------
INTERNAL COORDINATES (A.U.)
---------------------------
 C      0   0   0     0.000000000000     0.00000000     0.00000000
 C      1   0   0     2.873899354214     0.00000000     0.00000000
 O      2   1   0     2.273478869309   124.37959662     0.00000000
 O      2   1   3     2.495133669199   110.04110283   180.82162075
 C      4   2   1     2.708113553487   116.19162704   175.38018739
 H      1   2   3     2.058171964400   110.24457104   222.83933143
 H      5   4   2     2.059316037697   110.12407109    60.99374298
 H      5   4   2     2.059281267576   109.57027194   299.63308507
 C      1   2   3    12.164971720297   101.25478973    66.73092183
 C      9   1   2     2.618865353589    67.53445173   268.63192162
 C     10   9   1     2.607095696498   119.22246445   353.96575006
 C     11  10   9     2.651396206578   120.38984588     0.40765480
 C     12  11  10     2.651193874801   118.86491268   358.73277469
 C     13  12  11     2.601202953474   120.95373037     1.16140815
 C     12  11  10     2.726182504510   123.38824120   176.76317090
 C     15  12  11     2.822546697140   125.48401847   185.49878863
 C     16  15  12     2.848153265814   113.62007948   286.69076890
 C     17  16  15     2.619604537946   121.88221069   328.17430102
 C     18  17  16     2.623803735724   121.25335316   180.21465589
 C     19  18  17     2.617500862044   119.19837742   359.72332246
 C     20  19  18     2.624814885805   120.70376076     0.16988325
 C     21  20  19     2.629057497490   119.77848965     0.23861755
 O     22  21  20     2.550802061570   123.85065868   179.69517800
 C     23  22  21     2.674724943204   118.25193415     2.85514721
 N     15  12  11     2.471849766753   124.13791009     5.62056834
 O     25  15  12     2.304096412763   133.48604679     2.90316362
 H     10   9   1     2.043077496596   120.09952108   173.36191635
 H     11  10   9     2.039535889337   119.59170891   179.32972463
 H     13  12  11     2.043587637781   120.29348213   180.11575185
 H     14  13  12     2.042287762202   120.89395708   179.02110982
 H     16  15  12     2.060972635664   110.27274400    49.85026779
 H     18  17  16     2.050584591210   119.15623119     0.78222892
 H     19  18  17     2.046919918285   120.17091227   180.07831531
 H     20  19  18     2.048803660830   120.20370062   180.34899270
 H     21  20  19     2.044050547983   119.70240623   180.12870092
 H     24  23  22     2.066443836937   111.15127845   297.35647333
 H     24  23  22     2.056030022533   105.95440876   178.43973721
 H     24  23  22     2.066623579619   111.07695257    59.49765576
 O     25  15  12     2.672151705698   111.72280623   180.97530850
 H      5   4   2     2.053407108802   105.61641359   180.38513549
 N      9   1   2     2.744430973438   170.52784909    45.93472885
 O     41   9  10     2.299326253953   118.08994066   176.96424363
 O     41   9  10     2.298641128663   118.21899709   357.26092524

---------------------
BASIS SET INFORMATION
---------------------
There are 4 groups of distinct atoms

 Group   1 Type C   : 11s6p2d1f contracted to 5s3p2d1f pattern {62111/411/11/1}
 Group   2 Type O   : 11s6p2d1f contracted to 5s3p2d1f pattern {62111/411/11/1}
 Group   3 Type H   : 5s1p contracted to 3s1p pattern {311/1}
 Group   4 Type N   : 11s6p2d1f contracted to 5s3p2d1f pattern {62111/411/11/1}

Atom   0C    basis set group =>   1
Atom   1C    basis set group =>   1
Atom   2O    basis set group =>   2
Atom   3O    basis set group =>   2
Atom   4C    basis set group =>   1
Atom   5H    basis set group =>   3
Atom   6H    basis set group =>   3
Atom   7H    basis set group =>   3
Atom   8C    basis set group =>   1
Atom   9C    basis set group =>   1
Atom  10C    basis set group =>   1
Atom  11C    basis set group =>   1
Atom  12C    basis set group =>   1
Atom  13C    basis set group =>   1
Atom  14C    basis set group =>   1
Atom  15C    basis set group =>   1
Atom  16C    basis set group =>   1
Atom  17C    basis set group =>   1
Atom  18C    basis set group =>   1
Atom  19C    basis set group =>   1
Atom  20C    basis set group =>   1
Atom  21C    basis set group =>   1
Atom  22O    basis set group =>   2
Atom  23C    basis set group =>   1
Atom  24N    basis set group =>   4
Atom  25O    basis set group =>   2
Atom  26H    basis set group =>   3
Atom  27H    basis set group =>   3
Atom  28H    basis set group =>   3
Atom  29H    basis set group =>   3
Atom  30H    basis set group =>   3
Atom  31H    basis set group =>   3
Atom  32H    basis set group =>   3
Atom  33H    basis set group =>   3
Atom  34H    basis set group =>   3
Atom  35H    basis set group =>   3
Atom  36H    basis set group =>   3
Atom  37H    basis set group =>   3
Atom  38O    basis set group =>   2
Atom  39H    basis set group =>   3
Atom  40N    basis set group =>   4
Atom  41O    basis set group =>   2
Atom  42O    basis set group =>   2
---------------------------------
AUXILIARY/J BASIS SET INFORMATION
---------------------------------
There are 4 groups of distinct atoms

 Group   1 Type C   : 12s5p4d2f1g contracted to 6s4p3d1f1g pattern {711111/2111/211/2/1}
 Group   2 Type O   : 12s5p4d2f1g contracted to 6s4p3d1f1g pattern {711111/2111/211/2/1}
 Group   3 Type H   : 5s2p1d contracted to 3s1p1d pattern {311/2/1}
 Group   4 Type N   : 12s5p4d2f1g contracted to 6s4p3d1f1g pattern {711111/2111/211/2/1}

Atom   0C    basis set group =>   1
Atom   1C    basis set group =>   1
Atom   2O    basis set group =>   2
Atom   3O    basis set group =>   2
Atom   4C    basis set group =>   1
Atom   5H    basis set group =>   3
Atom   6H    basis set group =>   3
Atom   7H    basis set group =>   3
Atom   8C    basis set group =>   1
Atom   9C    basis set group =>   1
Atom  10C    basis set group =>   1
Atom  11C    basis set group =>   1
Atom  12C    basis set group =>   1
Atom  13C    basis set group =>   1
Atom  14C    basis set group =>   1
Atom  15C    basis set group =>   1
Atom  16C    basis set group =>   1
Atom  17C    basis set group =>   1
Atom  18C    basis set group =>   1
Atom  19C    basis set group =>   1
Atom  20C    basis set group =>   1
Atom  21C    basis set group =>   1
Atom  22O    basis set group =>   2
Atom  23C    basis set group =>   1
Atom  24N    basis set group =>   4
Atom  25O    basis set group =>   2
Atom  26H    basis set group =>   3
Atom  27H    basis set group =>   3
Atom  28H    basis set group =>   3
Atom  29H    basis set group =>   3
Atom  30H    basis set group =>   3
Atom  31H    basis set group =>   3
Atom  32H    basis set group =>   3
Atom  33H    basis set group =>   3
Atom  34H    basis set group =>   3
Atom  35H    basis set group =>   3
Atom  36H    basis set group =>   3
Atom  37H    basis set group =>   3
Atom  38O    basis set group =>   2
Atom  39H    basis set group =>   3
Atom  40N    basis set group =>   4
Atom  41O    basis set group =>   2
Atom  42O    basis set group =>   2


           ************************************************************
           *        Program running with 24 parallel MPI-processes    *
           *              working on a common directory               *
           ************************************************************
------------------------------------------------------------------------------
                           ORCA GTO INTEGRAL CALCULATION
                           -- RI-GTO INTEGRALS CHOSEN --
------------------------------------------------------------------------------
------------------------------------------------------------------------------
                   ___                                                        
                  /   \      - P O W E R E D   B Y -                         
                 /     \                                                     
                 |  |  |   _    _      __       _____    __    __             
                 |  |  |  | |  | |    /  \     |  _  \  |  |  /  |          
                  \  \/   | |  | |   /    \    | | | |  |  | /  /          
                 / \  \   | |__| |  /  /\  \   | |_| |  |  |/  /          
                |  |  |   |  __  | /  /__\  \  |    /   |      \           
                |  |  |   | |  | | |   __   |  |    \   |  |\   \          
                \     /   | |  | | |  |  |  |  | |\  \  |  | \   \       
                 \___/    |_|  |_| |__|  |__|  |_| \__\ |__|  \__/        
                                                                              
                      - O R C A' S   B I G   F R I E N D -                    
                                      &                                       
                       - I N T E G R A L  F E E D E R -                       
                                                                              
 v1 FN, 2020, v2 2021                                                         
------------------------------------------------------------------------------


Reading SHARK input file 4_4-NO2Ph_free/4_4-NO2Ph_free.SHARKINP.tmp ... ok
----------------------
SHARK INTEGRAL PACKAGE
----------------------

Number of atoms                             ...     43
Number of basis functions                   ...    933
Number of shells                            ...    361
Maximum angular momentum                    ...      3
Integral batch strategy                     ... SHARK/LIBINT Hybrid
RI-J (if used) integral strategy            ... SPLIT-RIJ (Revised 2003 algorithm where possible)
Printlevel                                  ...      1
Contraction scheme used                     ... SEGMENTED contraction
Coulomb Range Separation                    ... NOT USED
Exchange Range Separation                   ... NOT USED
Finite Nucleus Model                        ... NOT USED
Auxiliary Coulomb fitting basis             ... AVAILABLE
   # of basis functions in Aux-J            ...   1499
   # of shells in Aux-J                     ...    485
   Maximum angular momentum in Aux-J        ...      4
Auxiliary J/K fitting basis                 ... NOT available
Auxiliary Correlation fitting basis         ... NOT available
Auxiliary 'external' fitting basis          ... NOT available
Integral threshold                          ...     2.500000e-11
Primitive cut-off                           ...     2.500000e-12
Primitive pair pre-selection threshold      ...     2.500000e-12

Calculating pre-screening integrals         ... done (  0.1 sec) Dimension = 361
Organizing shell pair data                  ... done (  3.8 sec)
Shell pair information
Total number of shell pairs                 ...     65341
Shell pairs after pre-screening             ...     42870
Total number of primitive shell pairs       ...    203208
Primitive shell pairs kept                  ...     86441
          la=0 lb=0:  10661 shell pairs
          la=1 lb=0:  12332 shell pairs
          la=1 lb=1:   3581 shell pairs
          la=2 lb=0:   6108 shell pairs
          la=2 lb=1:   3645 shell pairs
          la=2 lb=2:    936 shell pairs
          la=3 lb=0:   2867 shell pairs
          la=3 lb=1:   1714 shell pairs
          la=3 lb=2:    821 shell pairs
          la=3 lb=3:    205 shell pairs

Calculating one electron integrals          ... done (  1.0 sec)
Calculating RI/J V-Matrix + Cholesky decomp.... done (  0.6 sec)
Calculating Nuclear repulsion               ... done (  0.0 sec) ENN=   2507.147218376484 Eh

SHARK setup successfully completed in   7.6 seconds

Maximum memory used throughout the entire GTOINT-calculation: 66.7 MB


           ************************************************************
           *        Program running with 24 parallel MPI-processes    *
           *              working on a common directory               *
           ************************************************************
-------------------------------------------------------------------------------
                                 ORCA SCF
-------------------------------------------------------------------------------

------------
SCF SETTINGS
------------
Hamiltonian:
 Density Functional     Method          .... DFT(GTOs)
 Exchange Functional    Exchange        .... PBE
   PBE kappa parameter   XKappa         ....  0.804000
   PBE mue parameter    XMuePBE         ....  0.219520
 Correlation Functional Correlation     .... PBE
   PBE beta parameter  CBetaPBE         ....  0.066725
 LDA part of GGA corr.  LDAOpt          .... PW91-LDA
 Gradients option       PostSCFGGA      .... off
 Hybrid DFT is turned on
   Fraction HF Exchange ScalHFX         ....  0.250000
   Scaling of DF-GGA-X  ScalDFX         ....  0.750000
   Scaling of DF-GGA-C  ScalDFC         ....  1.000000
   Scaling of DF-LDA-C  ScalLDAC        ....  1.000000
   Perturbative correction              ....  0.000000
   Density functional embedding theory  .... OFF
   NL short-range parameter             ....  6.900000
 RI-approximation to the Coulomb term is turned on
   Number of AuxJ basis functions       .... 1499
   RIJ-COSX (HFX calculated with COS-X)).... on


General Settings:
 Integral files         IntName         .... 4_4-NO2Ph_free/4_4-NO2Ph_free
 Hartree-Fock type      HFTyp           .... RHF
 Total Charge           Charge          ....    0
 Multiplicity           Mult            ....    1
 Number of Electrons    NEL             ....  194
 Basis Dimension        Dim             ....  933
 Nuclear Repulsion      ENuc            ....   2507.1472183765 Eh

Convergence Acceleration:
 DIIS                   CNVDIIS         .... on
   Start iteration      DIISMaxIt       ....    12
   Startup error        DIISStart       ....  0.200000
   # of expansion vecs  DIISMaxEq       ....     5
   Bias factor          DIISBfac        ....   1.050
   Max. coefficient     DIISMaxC        ....  10.000
 Trust-Rad. Augm. Hess. CNVTRAH         .... auto
   Auto Start mean grad. ratio tolernc. ....  1.125000
   Auto Start start iteration           ....    20
   Auto Start num. interpolation iter.  ....    10
   Max. Number of Micro iterations      ....    16
   Max. Number of Macro iterations      .... Maxiter - #DIIS iter
   Number of Davidson start vectors     ....     2
   Converg. threshold I  (grad. norm)   ....   1.000e-05
   Converg. threshold II (energy diff.) ....   1.000e-08
   Grad. Scal. Fac. for Micro threshold ....   0.100
   Minimum threshold for Micro iter.    ....   0.010
   NR start threshold (gradient norm)   ....   0.001
   Initial trust radius                 ....   0.400
   Minimum AH scaling param. (alpha)    ....   1.000
   Maximum AH scaling param. (alpha)    .... 1000.000
   Orbital update algorithm             .... Taylor
   White noise on init. David. guess    .... on
   Maximum white noise                  ....   0.010
   Quad. conv. algorithm                .... NR
 SOSCF                  CNVSOSCF        .... on
   Start iteration      SOSCFMaxIt      ....   150
   Startup grad/error   SOSCFStart      ....  0.003300
 Level Shifting         CNVShift        .... on
   Level shift para.    LevelShift      ....    0.2500
   Turn off err/grad.   ShiftErr        ....    0.0010
 Zerner damping         CNVZerner       .... off
 Static damping         CNVDamp         .... on
   Fraction old density DampFac         ....    0.7000
   Max. Damping (<1)    DampMax         ....    0.9800
   Min. Damping (>=0)   DampMin         ....    0.0000
   Turn off err/grad.   DampErr         ....    0.1000
 Fernandez-Rico         CNVRico         .... off

SCF Procedure:
 Maximum # iterations   MaxIter         ....   800
 SCF integral mode      SCFMode         .... Direct
   Integral package                     .... SHARK and LIBINT hybrid scheme
 Reset frequency        DirectResetFreq ....    20
 Integral Threshold     Thresh          ....  2.500e-11 Eh
 Primitive CutOff       TCut            ....  2.500e-12 Eh

Convergence Tolerance:
 Convergence Check Mode ConvCheckMode   .... Total+1el-Energy
 Convergence forced     ConvForced      .... 0
 Energy Change          TolE            ....  1.000e-08 Eh
 1-El. energy change                    ....  1.000e-05 Eh
 Orbital Gradient       TolG            ....  1.000e-05
 Orbital Rotation angle TolX            ....  1.000e-05
 DIIS Error             TolErr          ....  5.000e-07


Diagonalization of the overlap matrix:
Smallest eigenvalue                        ... 5.954e-06
Time for diagonalization                   ...    0.367 sec
Threshold for overlap eigenvalues          ... 1.000e-08
Number of eigenvalues below threshold      ... 0
Time for construction of square roots      ...    2.241 sec
Total time needed                          ...    2.615 sec

Time for model grid setup =    1.708 sec

------------------------------
INITIAL GUESS: MODEL POTENTIAL
------------------------------
Loading Hartree-Fock densities                     ... done
Calculating cut-offs                               ... done
Initializing the effective Hamiltonian             ... done
Setting up the integral package (SHARK)            ... done
Starting the Coulomb interaction                   ... done (   1.3 sec)
Reading the grid                                   ... done
Mapping shells                                     ... done
Starting the XC term evaluation                    ... done (   1.6 sec)
  promolecular density results
     # of electrons  =    193.997861991
     EX              =   -167.077978919
     EC              =     -6.606859588
     EX+EC           =   -173.684838507
Transforming the Hamiltonian                       ... done (   2.2 sec)
Diagonalizing the Hamiltonian                      ... done (   0.3 sec)
Back transforming the eigenvectors                 ... done (   0.1 sec)
Now organizing SCF variables                       ... done
                      ------------------
                      INITIAL GUESS DONE (   8.2 sec)
                      ------------------
-------------------
DFT GRID GENERATION
-------------------

General Integration Accuracy     IntAcc      ... 4.388
Radial Grid Type                 RadialGrid  ... OptM3 with GC (2021)
Angular Grid (max. ang.)         AngularGrid ... 4 (Lebedev-302)
Angular grid pruning method      GridPruning ... 4 (adaptive)
Weight generation scheme         WeightScheme... Becke
Basis function cutoff            BFCut       ... 1.0000e-11
Integration weight cutoff        WCut        ... 1.0000e-14
Angular grids for H and He will be reduced by one unit
Partially contracted basis set               ... off
Rotationally invariant grid construction     ... off

Total number of grid points                  ...   212447
Total number of batches                      ...     3342
Average number of points per batch           ...       63
Average number of grid points per atom       ...     4941
Time for grid setup =    3.098 sec

--------------------
COSX GRID GENERATION
--------------------

GRIDX 1
-------
General Integration Accuracy     IntAcc      ... 3.816
Radial Grid Type                 RadialGrid  ... OptM3 with GC (2021)
Angular Grid (max. ang.)         AngularGrid ... 1 (Lebedev-50)
Angular grid pruning method      GridPruning ... 4 (adaptive)
Weight generation scheme         WeightScheme... Becke
Basis function cutoff            BFCut       ... 1.0000e-11
Integration weight cutoff        WCut        ... 1.0000e-14
Angular grids for H and He will be reduced by one unit
Partially contracted basis set               ... on
Rotationally invariant grid construction     ... off

Total number of grid points                  ...    26900
Total number of batches                      ...      440
Average number of points per batch           ...       61
Average number of grid points per atom       ...      626
UseSFitting                                  ... on

GRIDX 2
-------
General Integration Accuracy     IntAcc      ... 4.020
Radial Grid Type                 RadialGrid  ... OptM3 with GC (2021)
Angular Grid (max. ang.)         AngularGrid ... 2 (Lebedev-110)
Angular grid pruning method      GridPruning ... 4 (adaptive)
Weight generation scheme         WeightScheme... Becke
Basis function cutoff            BFCut       ... 1.0000e-11
Integration weight cutoff        WCut        ... 1.0000e-14
Angular grids for H and He will be reduced by one unit
Partially contracted basis set               ... on
Rotationally invariant grid construction     ... off

Total number of grid points                  ...    59117
Total number of batches                      ...      944
Average number of points per batch           ...       62
Average number of grid points per atom       ...     1375
UseSFitting                                  ... on

GRIDX 3
-------
General Integration Accuracy     IntAcc      ... 4.338
Radial Grid Type                 RadialGrid  ... OptM3 with GC (2021)
Angular Grid (max. ang.)         AngularGrid ... 3 (Lebedev-194)
Angular grid pruning method      GridPruning ... 4 (adaptive)
Weight generation scheme         WeightScheme... Becke
Basis function cutoff            BFCut       ... 1.0000e-11
Integration weight cutoff        WCut        ... 1.0000e-14
Angular grids for H and He will be reduced by one unit
Partially contracted basis set               ... on
Rotationally invariant grid construction     ... off

Total number of grid points                  ...   129494
Total number of batches                      ...     2045
Average number of points per batch           ...       63
Average number of grid points per atom       ...     3011
UseSFitting                                  ... on

Time for X-Grid setup             =   21.660 sec


--------------------
CPCM SOLVATION MODEL
--------------------
CPCM parameters:
  Epsilon                                         ...      47.2000
  Refrac                                          ...       1.4790
  Rsolv                                           ...       1.3000
  Surface type                                    ... GAUSSIAN VDW
  Epsilon function type                           ...         CPCM
Radii:
 Radius for C  used is    3.8550 Bohr (=   2.0400 Ang.)
 Radius for O  used is    3.4469 Bohr (=   1.8240 Ang.)
 Radius for H  used is    2.4944 Bohr (=   1.3200 Ang.)
 Radius for N  used is    3.5149 Bohr (=   1.8600 Ang.)
Calculating surface                               ...        done! (  0.0s)
GEPOL surface points                              ...         2235
GEPOL Volume                                      ...    2748.0965
GEPOL Surface-area                                ...    1395.2711
Calculating surface distance matrix               ...        done! (  0.1s)
Performing Cholesky decomposition & store         ...        done! (  3.5s)
Overall time for CPCM initialization              ...                 3.7s
--------------
SCF ITERATIONS
--------------
ITER       Energy         Delta-E        Max-DP      RMS-DP      [F,P]     Damp
               ***  Starting incremental Fock matrix formation  ***
  0  -1329.8785540218   0.000000000000 0.24040764  0.00075086  0.2700642 0.7000
  1  -1330.1553729698  -0.276818948075 0.21534140  0.00064328  0.1074056 0.7000
                               ***Turning on DIIS***
  2  -1330.2612162896  -0.105843319768 0.34727610  0.00120434  0.0314602 0.0000
  3  -1330.4439277264  -0.182711436792 0.12779811  0.00041757  0.0526328 0.0000
  4  -1330.4739453917  -0.030017665269 0.02307153  0.00015184  0.0187700 0.0000
  5  -1330.4763137495  -0.002368357806 0.01740410  0.00006495  0.0052207 0.0000
                      *** Initiating the SOSCF procedure ***
                           *** Shutting down DIIS ***
                      *** Re-Reading the Fockian *** 
                      *** Removing any level shift *** 
ITER      Energy       Delta-E        Grad      Rot      Max-DP    RMS-DP
  6  -1330.47644847  -0.0001347208  0.000393  0.000393  0.001745  0.000018
               *** Restarting incremental Fock matrix formation ***
  7  -1330.47645454  -0.0000060653  0.000404  0.002826  0.004701  0.000031
  8  -1330.47645372   0.0000008170  0.000473  0.001014  0.002840  0.000013
  9  -1330.47645944  -0.0000057225  0.000090  0.000284  0.001386  0.000009
 10  -1330.47645927   0.0000001686  0.000063  0.000093  0.000730  0.000002
 11  -1330.47645976  -0.0000004834  0.000007  0.000066  0.000252  0.000002
 12  -1330.47645977  -0.0000000186  0.000008  0.000018  0.000298  0.000001
                  ***Gradient check signals convergence***
              ***Rediagonalizing the Fockian in SOSCF/NRSCF***

               *****************************************************
               *                     SUCCESS                       *
               *           SCF CONVERGED AFTER  13 CYCLES          *
               *****************************************************

Old exchange energy                            =    -42.459054326 Eh
New exchange energy                            =    -42.459043985 Eh
Exchange energy change after final integration =      0.000010342 Eh
Total energy after final integration           =  -1330.476449377 Eh
Final COS-X integration done in                =    49.760 sec

----------------
TOTAL SCF ENERGY
----------------

Total Energy       :        -1330.47644938 Eh          -36204.10477 eV

Components:
Nuclear Repulsion  :         2507.14721838 Eh           68222.94420 eV
Electronic Energy  :        -3837.62366775 Eh         -104427.04897 eV
One Electron Energy:        -6799.42449670 Eh         -185021.74688 eV
Two Electron Energy:         2961.80082894 Eh           80594.69791 eV
Max COSX asymmetry :            0.00000249 Eh               0.00007 eV
CPCM Dielectric    :           -0.03337472 Eh              -0.90817 eV

Virial components:
Potential Energy   :        -2655.35554035 Eh          -72255.89767 eV
Kinetic Energy     :         1324.87909097 Eh           36051.79290 eV
Virial Ratio       :            2.00422481


DFT components:
N(Alpha)           :       97.000118084644 electrons
N(Beta)            :       97.000118084644 electrons
N(Total)           :      194.000236169288 electrons
E(X)               :     -127.256791687919 Eh       
E(C)               :       -6.598989371733 Eh       
E(XC)              :     -133.855781059652 Eh       
DFET-embed. en.    :        0.000000000000 Eh       
CPCM Solvation Model Properties:
Surface-charge          :           -0.02819458
Charge-correction       :            0.00002514 Eh               0.00068 eV
Free-energy (cav+disp)  :  This term is not implemented in the current solvation scheme

---------------
SCF CONVERGENCE
---------------

  Last Energy change         ...    5.5745e-08  Tolerance :   1.0000e-08
  Last MAX-Density change    ...    2.1094e-15  Tolerance :   1.0000e-07
  Last RMS-Density change    ...    1.5369e-17  Tolerance :   5.0000e-09
  Last Orbital Gradient      ...    2.2485e-06  Tolerance :   1.0000e-05
  Last Orbital Rotation      ...    3.8882e-06  Tolerance :   1.0000e-05

             **** THE GBW FILE WAS UPDATED (4_4-NO2Ph_free/4_4-NO2Ph_free.gbw) ****
             **** DENSITY 4_4-NO2Ph_free/4_4-NO2Ph_free.scfp WAS UPDATED ****
             **** ENERGY FILE WAS UPDATED (4_4-NO2Ph_free/4_4-NO2Ph_free.en.tmp) ****
             **** THE GBW FILE WAS UPDATED (4_4-NO2Ph_free/4_4-NO2Ph_free.gbw) ****
             **** DENSITY 4_4-NO2Ph_free/4_4-NO2Ph_free.scfp WAS UPDATED ****
----------------
ORBITAL ENERGIES
----------------

  NO   OCC          E(Eh)            E(eV) 
   0   2.0000     -19.291207      -524.9404 
   1   2.0000     -19.272098      -524.4205 
   2   2.0000     -19.248951      -523.7906 
   3   2.0000     -19.248452      -523.7770 
   4   2.0000     -19.248352      -523.7743 
   5   2.0000     -19.235569      -523.4264 
   6   2.0000     -19.212865      -522.8086 
   7   2.0000     -14.632921      -398.1820 
   8   2.0000     -14.599764      -397.2798 
   9   2.0000     -10.366355      -282.0829 
  10   2.0000     -10.316060      -280.7143 
  11   2.0000     -10.298515      -280.2368 
  12   2.0000     -10.295218      -280.1471 
  13   2.0000     -10.292940      -280.0851 
  14   2.0000     -10.277487      -279.6646 
  15   2.0000     -10.274291      -279.5777 
  16   2.0000     -10.273932      -279.5679 
  17   2.0000     -10.268130      -279.4100 
  18   2.0000     -10.255682      -279.0713 
  19   2.0000     -10.255662      -279.0707 
  20   2.0000     -10.251987      -278.9707 
  21   2.0000     -10.249280      -278.8971 
  22   2.0000     -10.245160      -278.7850 
  23   2.0000     -10.234616      -278.4981 
  24   2.0000     -10.232581      -278.4427 
  25   2.0000     -10.228856      -278.3413 
  26   2.0000     -10.224407      -278.2203 
  27   2.0000      -1.282918       -34.9100 
  28   2.0000      -1.247524       -33.9469 
  29   2.0000      -1.162837       -31.6424 
  30   2.0000      -1.112503       -30.2727 
  31   2.0000      -1.111413       -30.2431 
  32   2.0000      -1.101543       -29.9745 
  33   2.0000      -1.069315       -29.0976 
  34   2.0000      -0.943549       -25.6753 
  35   2.0000      -0.918095       -24.9826 
  36   2.0000      -0.894421       -24.3384 
  37   2.0000      -0.849410       -23.1136 
  38   2.0000      -0.843629       -22.9563 
  39   2.0000      -0.803193       -21.8560 
  40   2.0000      -0.795698       -21.6520 
  41   2.0000      -0.781950       -21.2779 
  42   2.0000      -0.759690       -20.6722 
  43   2.0000      -0.746945       -20.3254 
  44   2.0000      -0.724272       -19.7084 
  45   2.0000      -0.707729       -19.2583 
  46   2.0000      -0.657783       -17.8992 
  47   2.0000      -0.653191       -17.7742 
  48   2.0000      -0.632461       -17.2101 
  49   2.0000      -0.628622       -17.1057 
  50   2.0000      -0.616070       -16.7641 
  51   2.0000      -0.597991       -16.2722 
  52   2.0000      -0.590606       -16.0712 
  53   2.0000      -0.583062       -15.8659 
  54   2.0000      -0.571834       -15.5604 
  55   2.0000      -0.571539       -15.5524 
  56   2.0000      -0.554466       -15.0878 
  57   2.0000      -0.551599       -15.0098 
  58   2.0000      -0.545275       -14.8377 
  59   2.0000      -0.526082       -14.3154 
  60   2.0000      -0.523123       -14.2349 
  61   2.0000      -0.519473       -14.1356 
  62   2.0000      -0.508571       -13.8389 
  63   2.0000      -0.505153       -13.7459 
  64   2.0000      -0.494696       -13.4614 
  65   2.0000      -0.490928       -13.3588 
  66   2.0000      -0.480674       -13.0798 
  67   2.0000      -0.473102       -12.8737 
  68   2.0000      -0.463853       -12.6221 
  69   2.0000      -0.462248       -12.5784 
  70   2.0000      -0.458332       -12.4718 
  71   2.0000      -0.450812       -12.2672 
  72   2.0000      -0.445695       -12.1280 
  73   2.0000      -0.433723       -11.8022 
  74   2.0000      -0.427108       -11.6222 
  75   2.0000      -0.418071       -11.3763 
  76   2.0000      -0.410716       -11.1761 
  77   2.0000      -0.409516       -11.1435 
  78   2.0000      -0.390754       -10.6330 
  79   2.0000      -0.388165       -10.5625 
  80   2.0000      -0.386799       -10.5253 
  81   2.0000      -0.383175       -10.4267 
  82   2.0000      -0.371697       -10.1144 
  83   2.0000      -0.356344        -9.6966 
  84   2.0000      -0.348208        -9.4752 
  85   2.0000      -0.345508        -9.4018 
  86   2.0000      -0.344799        -9.3825 
  87   2.0000      -0.344159        -9.3650 
  88   2.0000      -0.338065        -9.1992 
  89   2.0000      -0.329051        -8.9539 
  90   2.0000      -0.324643        -8.8340 
  91   2.0000      -0.323861        -8.8127 
  92   2.0000      -0.311241        -8.4693 
  93   2.0000      -0.295607        -8.0439 
  94   2.0000      -0.273702        -7.4478 
  95   2.0000      -0.248408        -6.7595 
  96   2.0000      -0.243794        -6.6340 
  97   0.0000      -0.105474        -2.8701 
  98   0.0000      -0.045339        -1.2337 
  99   0.0000      -0.029929        -0.8144 
 100   0.0000      -0.022166        -0.6032 
 101   0.0000      -0.005170        -0.1407 
 102   0.0000       0.001896         0.0516 
 103   0.0000       0.031783         0.8648 
 104   0.0000       0.041581         1.1315 
 105   0.0000       0.055689         1.5154 
 106   0.0000       0.062970         1.7135 
 107   0.0000       0.066501         1.8096 
 108   0.0000       0.073380         1.9968 
 109   0.0000       0.080671         2.1952 
 110   0.0000       0.084730         2.3056 
 111   0.0000       0.089844         2.4448 
 112   0.0000       0.092558         2.5186 
 113   0.0000       0.098040         2.6678 
 114   0.0000       0.101695         2.7672 
 115   0.0000       0.110255         3.0002 
 116   0.0000       0.114944         3.1278 
 117   0.0000       0.123404         3.3580 
 118   0.0000       0.129542         3.5250 
 119   0.0000       0.133217         3.6250 
 120   0.0000       0.136463         3.7134 
 121   0.0000       0.136956         3.7268 
 122   0.0000       0.143492         3.9046 
 123   0.0000       0.146655         3.9907 
 124   0.0000       0.149667         4.0726 
 125   0.0000       0.152448         4.1483 
 126   0.0000       0.157389         4.2828 
 127   0.0000       0.161794         4.4026 
 128   0.0000       0.167774         4.5654 
 129   0.0000       0.173243         4.7142 
 130   0.0000       0.180564         4.9134 
 131   0.0000       0.189873         5.1667 
 132   0.0000       0.199392         5.4257 
 133   0.0000       0.203930         5.5492 
 134   0.0000       0.205022         5.5789 
 135   0.0000       0.207986         5.6596 
 136   0.0000       0.213234         5.8024 
 137   0.0000       0.218089         5.9345 
 138   0.0000       0.220413         5.9977 
 139   0.0000       0.220957         6.0126 
 140   0.0000       0.225922         6.1476 
 141   0.0000       0.229871         6.2551 
 142   0.0000       0.232710         6.3324 
 143   0.0000       0.239748         6.5239 
 144   0.0000       0.241527         6.5723 
 145   0.0000       0.244859         6.6629 
 146   0.0000       0.248167         6.7530 
 147   0.0000       0.248317         6.7571 
 148   0.0000       0.254771         6.9327 
 149   0.0000       0.259928         7.0730 
 150   0.0000       0.262369         7.1394 
 151   0.0000       0.270252         7.3539 
 152   0.0000       0.274783         7.4772 
 153   0.0000       0.284351         7.7376 
 154   0.0000       0.285547         7.7701 
 155   0.0000       0.292502         7.9594 
 156   0.0000       0.294872         8.0239 
 157   0.0000       0.298726         8.1287 
 158   0.0000       0.305237         8.3059 
 159   0.0000       0.307371         8.3640 
 160   0.0000       0.311756         8.4833 
 161   0.0000       0.314963         8.5706 
 162   0.0000       0.322129         8.7656 
 163   0.0000       0.323556         8.8044 
 164   0.0000       0.330267         8.9870 
 165   0.0000       0.331152         9.0111 
 166   0.0000       0.336306         9.1513 
 167   0.0000       0.338319         9.2061 
 168   0.0000       0.341835         9.3018 
 169   0.0000       0.349125         9.5002 
 170   0.0000       0.354111         9.6359 
 171   0.0000       0.357817         9.7367 
 172   0.0000       0.364827         9.9275 
 173   0.0000       0.365359         9.9419 
 174   0.0000       0.368662        10.0318 
 175   0.0000       0.371488        10.1087 
 176   0.0000       0.376487        10.2447 
 177   0.0000       0.379019        10.3136 
 178   0.0000       0.382621        10.4117 
 179   0.0000       0.389488        10.5985 
 180   0.0000       0.390860        10.6358 
 181   0.0000       0.394795        10.7429 
 182   0.0000       0.397300        10.8111 
 183   0.0000       0.405005        11.0207 
 184   0.0000       0.406737        11.0679 
 185   0.0000       0.412456        11.2235 
 186   0.0000       0.416958        11.3460 
 187   0.0000       0.419928        11.4268 
 188   0.0000       0.424395        11.5484 
 189   0.0000       0.431450        11.7403 
 190   0.0000       0.432572        11.7709 
 191   0.0000       0.434023        11.8104 
 192   0.0000       0.436691        11.8830 
 193   0.0000       0.440209        11.9787 
 194   0.0000       0.442983        12.0542 
 195   0.0000       0.451738        12.2924 
 196   0.0000       0.455074        12.3832 
 197   0.0000       0.459117        12.4932 
 198   0.0000       0.461120        12.5477 
 199   0.0000       0.464218        12.6320 
 200   0.0000       0.465878        12.6772 
 201   0.0000       0.470157        12.7936 
 202   0.0000       0.474384        12.9086 
 203   0.0000       0.475294        12.9334 
 204   0.0000       0.484095        13.1729 
 205   0.0000       0.485948        13.2233 
 206   0.0000       0.491682        13.3794 
 207   0.0000       0.496125        13.5003 
 208   0.0000       0.499571        13.5940 
 209   0.0000       0.499808        13.6005 
 210   0.0000       0.504713        13.7339 
 211   0.0000       0.508913        13.8482 
 212   0.0000       0.512679        13.9507 
 213   0.0000       0.517239        14.0748 
 214   0.0000       0.520064        14.1517 
 215   0.0000       0.528807        14.3896 
 216   0.0000       0.534574        14.5465 
 217   0.0000       0.535735        14.5781 
 218   0.0000       0.540009        14.6944 
 219   0.0000       0.546239        14.8639 
 220   0.0000       0.553359        15.0577 
 221   0.0000       0.557234        15.1631 
 222   0.0000       0.564720        15.3668 
 223   0.0000       0.569382        15.4937 
 224   0.0000       0.571659        15.5556 
 225   0.0000       0.580374        15.7928 
 226   0.0000       0.587202        15.9786 
 227   0.0000       0.591472        16.0948 
 228   0.0000       0.601795        16.3757 
 229   0.0000       0.602473        16.3941 
 230   0.0000       0.609106        16.5746 
 231   0.0000       0.612813        16.6755 
 232   0.0000       0.619677        16.8623 
 233   0.0000       0.622655        16.9433 
 234   0.0000       0.625820        17.0294 
 235   0.0000       0.634149        17.2561 
 236   0.0000       0.640016        17.4157 
 237   0.0000       0.646648        17.5962 
 238   0.0000       0.650610        17.7040 
 239   0.0000       0.656350        17.8602 
 240   0.0000       0.661300        17.9949 
 241   0.0000       0.665156        18.0998 
 242   0.0000       0.665900        18.1201 
 243   0.0000       0.674443        18.3525 
 244   0.0000       0.678591        18.4654 
 245   0.0000       0.679504        18.4902 
 246   0.0000       0.682296        18.5662 
 247   0.0000       0.694400        18.8956 
 248   0.0000       0.695429        18.9236 
 249   0.0000       0.704613        19.1735 
 250   0.0000       0.708055        19.2671 
 251   0.0000       0.712069        19.3764 
 252   0.0000       0.718202        19.5433 
 253   0.0000       0.729067        19.8389 
 254   0.0000       0.731269        19.8988 
 255   0.0000       0.736579        20.0433 
 256   0.0000       0.740787        20.1578 
 257   0.0000       0.742800        20.2126 
 258   0.0000       0.753071        20.4921 
 259   0.0000       0.756365        20.5817 
 260   0.0000       0.759987        20.6803 
 261   0.0000       0.765182        20.8217 
 262   0.0000       0.765894        20.8410 
 263   0.0000       0.778987        21.1973 
 264   0.0000       0.783836        21.3293 
 265   0.0000       0.789226        21.4759 
 266   0.0000       0.803332        21.8598 
 267   0.0000       0.807280        21.9672 
 268   0.0000       0.813346        22.1323 
 269   0.0000       0.815344        22.1866 
 270   0.0000       0.818418        22.2703 
 271   0.0000       0.827893        22.5281 
 272   0.0000       0.832882        22.6639 
 273   0.0000       0.838846        22.8262 
 274   0.0000       0.848457        23.0877 
 275   0.0000       0.854472        23.2514 
 276   0.0000       0.860308        23.4102 
 277   0.0000       0.862650        23.4739 
 278   0.0000       0.868289        23.6274 
 279   0.0000       0.874450        23.7950 
 280   0.0000       0.881196        23.9785 
 281   0.0000       0.890930        24.2434 
 282   0.0000       0.895777        24.3753 
 283   0.0000       0.903410        24.5830 
 284   0.0000       0.904287        24.6069 
 285   0.0000       0.910836        24.7851 
 286   0.0000       0.919690        25.0260 
 287   0.0000       0.921483        25.0748 
 288   0.0000       0.930533        25.3211 
 289   0.0000       0.939966        25.5778 
 290   0.0000       0.942656        25.6510 
 291   0.0000       0.953742        25.9526 
 292   0.0000       0.962583        26.1932 
 293   0.0000       0.969551        26.3828 
 294   0.0000       0.971845        26.4453 
 295   0.0000       0.983177        26.7536 
 296   0.0000       0.987001        26.8577 
 297   0.0000       0.994335        27.0572 
 298   0.0000       0.997494        27.1432 
 299   0.0000       1.011943        27.5364 
 300   0.0000       1.017676        27.6924 
 301   0.0000       1.020078        27.7577 
 302   0.0000       1.027237        27.9525 
 303   0.0000       1.033710        28.1287 
 304   0.0000       1.037576        28.2339 
 305   0.0000       1.046736        28.4831 
 306   0.0000       1.052532        28.6409 
 307   0.0000       1.061658        28.8892 
 308   0.0000       1.067265        29.0418 
 309   0.0000       1.071848        29.1665 
 310   0.0000       1.079691        29.3799 
 311   0.0000       1.086279        29.5592 
 312   0.0000       1.088108        29.6089 
 313   0.0000       1.095900        29.8210 
 314   0.0000       1.102853        30.0101 
 315   0.0000       1.118408        30.4334 
[...]
 19:    158.06   0.000446    2.25  0.000880  (-0.003565 -0.008785  0.028113)
 20:    176.79   0.001436    7.26  0.002535  ( 0.037149 -0.033743 -0.004034)
 21:    200.51   0.000718    3.63  0.001118  ( 0.021554 -0.025039  0.005130)
 22:    237.73   0.000472    2.39  0.000620  ( 0.003130  0.008259 -0.023271)
 23:    244.09   0.000701    3.54  0.000896  ( 0.024686 -0.016725 -0.002549)
 24:    247.70   0.001483    7.49  0.001868  ( 0.016195 -0.013192  0.037839)
 25:    258.55   0.000408    2.06  0.000492  (-0.018574 -0.010398  0.006247)
 26:    279.36   0.000819    4.14  0.000915  (-0.023341  0.010123 -0.016375)
 27:    306.51   0.000396    2.00  0.000403  (-0.016605 -0.006655  0.009122)
 28:    328.85   0.003060   15.46  0.002904  ( 0.046126 -0.023050 -0.015647)
 29:    345.27   0.003598   18.18  0.003252  ( 0.043145  0.001171 -0.037269)
 30:    372.63   0.001510    7.63  0.001265  (-0.034795  0.006760 -0.002914)
 31:    386.19   0.001457    7.36  0.001178  ( 0.019559 -0.021467  0.018279)
 32:    419.97   0.000307    1.55  0.000228  (-0.008210  0.012462 -0.002375)
 33:    420.86   0.000432    2.18  0.000320  (-0.002832  0.017345 -0.003350)
 34:    472.15   0.002374   12.00  0.001569  ( 0.033403 -0.017385  0.012283)
 35:    491.02   0.001702    8.60  0.001081  (-0.003678  0.029700  0.013632)
 36:    510.43   0.000160    0.81  0.000098  ( 0.005683 -0.006547  0.004761)
 37:    524.81   0.007360   37.20  0.004377  (-0.036187 -0.055060  0.005960)
 38:    542.43   0.000499    2.52  0.000287  ( 0.011537 -0.000867  0.012389)
 39:    563.86   0.001647    8.32  0.000911  (-0.025897  0.013431  0.007768)
 40:    577.81   0.003552   17.95  0.001918  (-0.013112  0.041789 -0.000124)
 41:    597.25   0.007569   38.25  0.003955  (-0.048340  0.038228  0.012512)
 42:    615.42   0.001841    9.31  0.000934  ( 0.024926 -0.007128  0.016172)
 43:    642.57   0.000686    3.46  0.000333  (-0.012035  0.012589  0.005439)
 44:    688.56   0.000726    3.67  0.000329  (-0.008055 -0.011876 -0.011090)
 45:    719.03   0.006032   30.49  0.002618  ( 0.043908  0.022499 -0.013566)
 46:    723.44   0.001473    7.44  0.000635  ( 0.015365  0.019390 -0.004809)
 47:    726.98   0.002646   13.37  0.001136  ( 0.007652 -0.032674 -0.003137)
 48:    740.28   0.002069   10.46  0.000872  ( 0.010801  0.020462  0.018351)
 49:    768.01   0.013638   68.92  0.005542  (-0.031845  0.061281 -0.027789)
 50:    772.13   0.020182  101.99  0.008157  (-0.071356  0.037067 -0.041125)
 51:    782.15   0.001840    9.30  0.000734  ( 0.015801 -0.000218  0.022014)
 52:    792.98   0.013047   65.94  0.005135  ( 0.042825  0.057449 -0.000513)
 53:    815.81   0.008313   42.01  0.003180  ( 0.054878  0.009098 -0.009242)
 54:    840.30   0.000333    1.68  0.000124  (-0.002098 -0.008114 -0.007300)
 55:    846.83   0.005936   30.00  0.002187  ( 0.010682 -0.032623 -0.031765)
 56:    872.68   0.051348  259.49  0.018362  (-0.118124  0.065061  0.013239)
 57:    875.86   0.012321   62.26  0.004390  (-0.060728  0.026331 -0.002916)
 58:    888.26   0.010704   54.09  0.003760  ( 0.010377  0.059927 -0.007843)
 59:    895.47   0.004520   22.84  0.001575  (-0.018313  0.007557 -0.034388)
 60:    913.20   0.033038  166.96  0.011290  (-0.097792  0.040339  0.009969)
 61:    957.50   0.000764    3.86  0.000249  (-0.004073 -0.015156 -0.001612)
 62:    969.29   0.001257    6.35  0.000405  (-0.011601 -0.008943 -0.013791)
 63:    992.73   0.000069    0.35  0.000022  (-0.000567  0.003835  0.002554)
 64:    996.37   0.000078    0.39  0.000024  (-0.001807 -0.003731 -0.002679)
 65:    999.99   0.001596    8.07  0.000498  ( 0.003494 -0.017343 -0.013606)
 66:   1001.30   0.002837   14.34  0.000884  ( 0.003624 -0.024346 -0.016681)
 67:   1030.34   0.000261    1.32  0.000079  (-0.002083 -0.007267 -0.004680)
 68:   1050.56   0.005014   25.34  0.001489  (-0.034168 -0.015197  0.009540)
 69:   1071.23   0.012101   61.15  0.003525  ( 0.015242 -0.019128 -0.054101)
 70:   1083.43   0.009608   48.56  0.002768  ( 0.035205  0.019117 -0.034098)
 71:   1096.41   0.031367  158.51  0.008928  (-0.065023  0.003701  0.068454)
 72:   1108.08   0.002430   12.28  0.000684  (-0.002815  0.017412 -0.019320)
 73:   1138.23   0.025455  128.64  0.006979  (-0.065072  0.036376 -0.037700)
 74:   1139.24   0.013955   70.52  0.003823  (-0.001448  0.015919 -0.059725)
 75:   1141.52   0.035677  180.30  0.009753  ( 0.082316 -0.054421 -0.003960)
 76:   1171.12   0.000230    1.16  0.000061  (-0.006487  0.002604 -0.003508)
 77:   1171.91   0.000182    0.92  0.000049  ( 0.002923 -0.003753  0.005095)
 78:   1175.67   0.001650    8.34  0.000438  (-0.006825  0.007302  0.018387)
 79:   1196.24   0.000934    4.72  0.000244  (-0.002850 -0.004185 -0.014768)
 80:   1205.20   0.005771   29.16  0.001494  ( 0.032466  0.004449 -0.020503)
 81:   1212.54   0.000808    4.08  0.000208  ( 0.010821 -0.002499 -0.009192)
 82:   1216.85   0.000591    2.99  0.000152  (-0.000902  0.002762  0.011961)
 83:   1240.37   0.045668  230.79  0.011490  ( 0.078088 -0.000660 -0.073425)
 84:   1257.43   0.012133   61.32  0.003011  (-0.015247 -0.013922  0.050842)
 85:   1290.63   0.023119  116.83  0.005590  ( 0.059437  0.012962  0.043465)
 86:   1296.21   0.118340  598.04  0.028491  ( 0.134008  0.012332 -0.101885)
 87:   1307.79   0.005011   25.32  0.001196  (-0.007388 -0.031547  0.012076)
 88:   1315.56   0.008617   43.55  0.002044  (-0.030219 -0.028623  0.017654)
 89:   1333.71   0.012081   61.05  0.002827  ( 0.036576  0.003266 -0.038447)
 90:   1343.20   0.002584   13.06  0.000600  (-0.005406  0.008746 -0.022239)
 91:   1378.67   0.001448    7.32  0.000328  ( 0.001241  0.015984  0.008403)
 92:   1389.59   0.004473   22.60  0.001004  (-0.027725  0.002478  0.015155)
 93:   1399.60   0.060103  303.74  0.013401  ( 0.047508 -0.073327  0.075941)
 94:   1403.62   0.269914  1364.03  0.060009  (-0.207693  0.124722 -0.036298)
 95:   1446.77   0.012727   64.32  0.002745  ( 0.004824  0.009607  0.051281)
 96:   1456.31   0.004451   22.49  0.000954  (-0.012288 -0.003737  0.028084)
 97:   1465.97   0.005520   27.89  0.001175  ( 0.020814  0.016425 -0.021725)
 98:   1466.26   0.003337   16.86  0.000710  ( 0.018383 -0.010937  0.015893)
 99:   1470.32   0.010678   53.96  0.002266  ( 0.040288  0.017112 -0.018718)
100:   1472.94   0.002976   15.04  0.000631  (-0.018264  0.014576 -0.009194)
101:   1473.09   0.003067   15.50  0.000650  ( 0.007682 -0.016704 -0.017654)
102:   1482.76   0.005885   29.74  0.001239  (-0.025709 -0.017659  0.016303)
103:   1499.10   0.013269   67.06  0.002762  ( 0.033842  0.015839 -0.036961)
104:   1536.62   0.038814  196.15  0.007882  (-0.060839 -0.036486  0.053384)
105:   1546.14   0.006929   35.02  0.001399  (-0.026632  0.016865  0.020121)
106:   1596.98   0.110955  560.72  0.021681  ( 0.007947 -0.009475 -0.146726)
107:   1644.10   0.126699  640.28  0.024048  ( 0.098938 -0.058881  0.103888)
108:   1650.04   0.012666   64.01  0.002396  (-0.040670  0.024753  0.011348)
109:   1657.72   0.041864  211.56  0.007881  ( 0.014049 -0.005582  0.087477)
110:   1664.00   0.018295   92.46  0.003431  ( 0.040806  0.023779 -0.034648)
111:   1699.28   0.144818  731.85  0.026595  (-0.067523  0.018415 -0.147298)
112:   1804.90   0.098626  498.41  0.017052  (-0.002697 -0.082772 -0.100964)
113:   3038.95   0.012514   63.24  0.001285  ( 0.012646 -0.007611 -0.032668)
114:   3075.50   0.005169   26.12  0.000525  ( 0.017856  0.012714 -0.006634)
115:   3101.89   0.000530    2.68  0.000053  (-0.000828 -0.005725 -0.004459)
116:   3111.12   0.007234   36.56  0.000726  (-0.017755  0.017233 -0.010651)
117:   3149.17   0.000436    2.21  0.000043  (-0.004432  0.001413  0.004648)
118:   3160.86   0.003250   16.42  0.000321  (-0.012069  0.009202 -0.009516)
119:   3167.56   0.003639   18.39  0.000359  (-0.014073 -0.012162  0.003543)
120:   3189.59   0.000419    2.12  0.000041  ( 0.001192 -0.002770 -0.005650)
121:   3195.47   0.001793    9.06  0.000175  (-0.004864  0.005890  0.010805)
122:   3197.93   0.001528    7.72  0.000149  ( 0.003202  0.008431  0.008230)
123:   3215.97   0.002602   13.15  0.000253  ( 0.011571  0.009559 -0.005219)
124:   3228.47   0.000208    1.05  0.000020  ( 0.002248 -0.000912 -0.003769)
125:   3231.51   0.000341    1.73  0.000033  ( 0.001342 -0.002212 -0.005126)
126:   3241.74   0.000963    4.87  0.000093  (-0.006914  0.004930  0.004537)
127:   3247.40   0.000924    4.67  0.000089  (-0.005328  0.003000 -0.007166)
128:   3263.50   0.001039    5.25  0.000099  ( 0.004912 -0.003395  0.007979)

* The epsilon (eps) is given for a Dirac delta lineshape.
** The dipole moment derivative (T) already includes vibrational overlap.

The first frequency considered to be a vibration is 6
The total number of vibrations considered is 123


--------------------------
THERMOCHEMISTRY AT 298.15K
--------------------------

Temperature         ... 298.15 K
Pressure            ... 1.00 atm
Total Mass          ... 372.33 AMU

Throughout the following assumptions are being made:
  (1) The electronic state is orbitally nondegenerate
  (2) There are no thermally accessible electronically excited states
  (3) Hindered rotations indicated by low frequency modes are not
      treated as such but are treated as vibrations and this may
      cause some error
  (4) All equations used are the standard statistical mechanics
      equations for an ideal gas
  (5) All vibrations are strictly harmonic

freq.      10.21  E(vib)   ...       0.58 
freq.      21.88  E(vib)   ...       0.56 
freq.      30.96  E(vib)   ...       0.55 
freq.      35.08  E(vib)   ...       0.54 
freq.      48.89  E(vib)   ...       0.53 
freq.      55.13  E(vib)   ...       0.52 
freq.      59.36  E(vib)   ...       0.51 
freq.      86.95  E(vib)   ...       0.48 
freq.      94.77  E(vib)   ...       0.47 
freq.     100.18  E(vib)   ...       0.46 
freq.     116.38  E(vib)   ...       0.44 
freq.     135.08  E(vib)   ...       0.42 
freq.     146.67  E(vib)   ...       0.41 
freq.     158.06  E(vib)   ...       0.39 
freq.     176.79  E(vib)   ...       0.38 
freq.     200.51  E(vib)   ...       0.35 
freq.     237.73  E(vib)   ...       0.32 
freq.     244.09  E(vib)   ...       0.31 
freq.     247.70  E(vib)   ...       0.31 
freq.     258.55  E(vib)   ...       0.30 
freq.     279.36  E(vib)   ...       0.28 
freq.     306.51  E(vib)   ...       0.26 
freq.     328.85  E(vib)   ...       0.24 
freq.     345.27  E(vib)   ...       0.23 
freq.     372.63  E(vib)   ...       0.21 
freq.     386.19  E(vib)   ...       0.20 
freq.     419.97  E(vib)   ...       0.18 
freq.     420.86  E(vib)   ...       0.18 
freq.     472.15  E(vib)   ...       0.15 
freq.     491.02  E(vib)   ...       0.14 
freq.     510.43  E(vib)   ...       0.14 
freq.     524.81  E(vib)   ...       0.13 
freq.     542.43  E(vib)   ...       0.12 
freq.     563.86  E(vib)   ...       0.11 
freq.     577.81  E(vib)   ...       0.11 
freq.     597.25  E(vib)   ...       0.10 
freq.     615.42  E(vib)   ...       0.10 
freq.     642.57  E(vib)   ...       0.09 
freq.     688.56  E(vib)   ...       0.07 
freq.     719.03  E(vib)   ...       0.07 
freq.     723.44  E(vib)   ...       0.07 
freq.     726.98  E(vib)   ...       0.06 
freq.     740.28  E(vib)   ...       0.06 
freq.     768.01  E(vib)   ...       0.06 
freq.     772.13  E(vib)   ...       0.05 
freq.     782.15  E(vib)   ...       0.05 
freq.     792.98  E(vib)   ...       0.05 
freq.     815.81  E(vib)   ...       0.05 
freq.     840.30  E(vib)   ...       0.04 
freq.     846.83  E(vib)   ...       0.04 
freq.     872.68  E(vib)   ...       0.04 
freq.     875.86  E(vib)   ...       0.04 
freq.     888.26  E(vib)   ...       0.04 
freq.     895.47  E(vib)   ...       0.03 
freq.     913.20  E(vib)   ...       0.03 
freq.     957.50  E(vib)   ...       0.03 
freq.     969.29  E(vib)   ...       0.03 
freq.     992.73  E(vib)   ...       0.02 
freq.     996.37  E(vib)   ...       0.02 
freq.     999.99  E(vib)   ...       0.02 
freq.    1001.30  E(vib)   ...       0.02 
freq.    1030.34  E(vib)   ...       0.02 
freq.    1050.56  E(vib)   ...       0.02 
freq.    1071.23  E(vib)   ...       0.02 
freq.    1083.43  E(vib)   ...       0.02 
freq.    1096.41  E(vib)   ...       0.02 
freq.    1108.08  E(vib)   ...       0.02 
freq.    1138.23  E(vib)   ...       0.01 
freq.    1139.24  E(vib)   ...       0.01 
freq.    1141.52  E(vib)   ...       0.01 
freq.    1171.12  E(vib)   ...       0.01 
freq.    1171.91  E(vib)   ...       0.01 
freq.    1175.67  E(vib)   ...       0.01 
freq.    1196.24  E(vib)   ...       0.01 
freq.    1205.20  E(vib)   ...       0.01 
freq.    1212.54  E(vib)   ...       0.01 
freq.    1216.85  E(vib)   ...       0.01 
freq.    1240.37  E(vib)   ...       0.01 
freq.    1257.43  E(vib)   ...       0.01 
freq.    1290.63  E(vib)   ...       0.01 
freq.    1296.21  E(vib)   ...       0.01 
freq.    1307.79  E(vib)   ...       0.01 
freq.    1315.56  E(vib)   ...       0.01 
freq.    1333.71  E(vib)   ...       0.01 
freq.    1343.20  E(vib)   ...       0.01 
freq.    1378.67  E(vib)   ...       0.01 
freq.    1389.59  E(vib)   ...       0.00 
freq.    1399.60  E(vib)   ...       0.00 
freq.    1403.62  E(vib)   ...       0.00 
freq.    1446.77  E(vib)   ...       0.00 
freq.    1456.31  E(vib)   ...       0.00 
freq.    1465.97  E(vib)   ...       0.00 
freq.    1466.26  E(vib)   ...       0.00 
freq.    1470.32  E(vib)   ...       0.00 
freq.    1472.94  E(vib)   ...       0.00 
freq.    1473.09  E(vib)   ...       0.00 
freq.    1482.76  E(vib)   ...       0.00 
freq.    1499.10  E(vib)   ...       0.00 
freq.    1536.62  E(vib)   ...       0.00 
freq.    1546.14  E(vib)   ...       0.00 
freq.    1596.98  E(vib)   ...       0.00 
freq.    1644.10  E(vib)   ...       0.00 
freq.    1650.04  E(vib)   ...       0.00 
freq.    1657.72  E(vib)   ...       0.00 
freq.    1664.00  E(vib)   ...       0.00 
freq.    1699.28  E(vib)   ...       0.00 
freq.    1804.90  E(vib)   ...       0.00 
freq.    3038.95  E(vib)   ...       0.00 
freq.    3075.50  E(vib)   ...       0.00 
freq.    3101.89  E(vib)   ...       0.00 
freq.    3111.12  E(vib)   ...       0.00 
freq.    3149.17  E(vib)   ...       0.00 
freq.    3160.86  E(vib)   ...       0.00 
freq.    3167.56  E(vib)   ...       0.00 
freq.    3189.59  E(vib)   ...       0.00 
freq.    3195.47  E(vib)   ...       0.00 
freq.    3197.93  E(vib)   ...       0.00 
freq.    3215.97  E(vib)   ...       0.00 
freq.    3228.47  E(vib)   ...       0.00 
freq.    3231.51  E(vib)   ...       0.00 
freq.    3241.74  E(vib)   ...       0.00 
freq.    3247.40  E(vib)   ...       0.00 
freq.    3263.50  E(vib)   ...       0.00 

------------
INNER ENERGY
------------

The inner energy is: U= E(el) + E(ZPE) + E(vib) + E(rot) + E(trans)
    E(el)   - is the total energy from the electronic structure calculation
              = E(kin-el) + E(nuc-el) + E(el-el) + E(nuc-nuc)
    E(ZPE)  - the the zero temperature vibrational energy from the frequency calculation
    E(vib)  - the the finite temperature correction to E(ZPE) due to population
              of excited vibrational states
    E(rot)  - is the rotational thermal energy
    E(trans)- is the translational thermal energy

Summary of contributions to the inner energy U:
Electronic energy                ...  -1330.52868677 Eh
Zero point energy                ...      0.32681768 Eh     205.08 kcal/mol
Thermal vibrational correction   ...      0.02093390 Eh      13.14 kcal/mol
Thermal rotational correction    ...      0.00141627 Eh       0.89 kcal/mol
Thermal translational correction ...      0.00141627 Eh       0.89 kcal/mol
-----------------------------------------------------------------------
Total thermal energy                  -1330.17810264 Eh


Summary of corrections to the electronic energy:
(perhaps to be used in another calculation)
Total thermal correction                  0.02376645 Eh      14.91 kcal/mol
Non-thermal (ZPE) correction              0.32681768 Eh     205.08 kcal/mol
-----------------------------------------------------------------------
Total correction                          0.35058413 Eh     219.99 kcal/mol


--------
ENTHALPY
--------

The enthalpy is H = U + kB*T
                kB is Boltzmann's constant
Total free energy                 ...  -1330.17810264 Eh 
Thermal Enthalpy correction       ...      0.00094421 Eh       0.59 kcal/mol
-----------------------------------------------------------------------
Total Enthalpy                    ...  -1330.17715843 Eh


Note: Only C1 symmetry has been detected, increase convergence thresholds 
      if your molecule has a higher symmetry. Symmetry factor of 1.0 is   
      used for the rotational entropy correction. 
 

Note: Rotational entropy computed according to Herzberg 
Infrared and Raman Spectra, Chapter V,1, Van Nostrand Reinhold, 1945 
Point Group:  C1, Symmetry Number:   1  
Rotational constants in cm-1:     0.008385     0.004169     0.003515 

Vibrational entropy computed according to the QRRHO of S. Grimme
Chem.Eur.J. 2012 18 9955


-------
ENTROPY
-------

The entropy contributions are T*S = T*(S(el)+S(vib)+S(rot)+S(trans))
     S(el)   - electronic entropy
     S(vib)  - vibrational entropy
     S(rot)  - rotational entropy
     S(trans)- translational entropy
The entropies will be listed as multiplied by the temperature to get
units of energy

Electronic entropy                ...      0.00000000 Eh      0.00 kcal/mol
Vibrational entropy               ...      0.03827986 Eh     24.02 kcal/mol
Rotational entropy                ...      0.01702278 Eh     10.68 kcal/mol
Translational entropy             ...      0.02073310 Eh     13.01 kcal/mol
-----------------------------------------------------------------------
Final entropy term                ...      0.07603574 Eh     47.71 kcal/mol

In case the symmetry of your molecule has not been determined correctly
or in case you have a reason to use a different symmetry number we print 
out the resulting rotational entropy values for sn=1,12 :
 --------------------------------------------------------
|  sn= 1 | S(rot)=       0.01702278 Eh     10.68 kcal/mol|
|  sn= 2 | S(rot)=       0.01636833 Eh     10.27 kcal/mol|
|  sn= 3 | S(rot)=       0.01598550 Eh     10.03 kcal/mol|
|  sn= 4 | S(rot)=       0.01571387 Eh      9.86 kcal/mol|
|  sn= 5 | S(rot)=       0.01550318 Eh      9.73 kcal/mol|
|  sn= 6 | S(rot)=       0.01533104 Eh      9.62 kcal/mol|
|  sn= 7 | S(rot)=       0.01518549 Eh      9.53 kcal/mol|
|  sn= 8 | S(rot)=       0.01505941 Eh      9.45 kcal/mol|
|  sn= 9 | S(rot)=       0.01494821 Eh      9.38 kcal/mol|
|  sn=10 | S(rot)=       0.01484873 Eh      9.32 kcal/mol|
|  sn=11 | S(rot)=       0.01475874 Eh      9.26 kcal/mol|
|  sn=12 | S(rot)=       0.01467658 Eh      9.21 kcal/mol|
 --------------------------------------------------------


-------------------
GIBBS FREE ENERGY
-------------------

The Gibbs free energy is G = H - T*S

Total enthalpy                    ...  -1330.17715843 Eh 
Total entropy correction          ...     -0.07603574 Eh    -47.71 kcal/mol
-----------------------------------------------------------------------
Final Gibbs free energy         ...  -1330.25319417 Eh

For completeness - the Gibbs free energy minus the electronic energy
G-E(el)                           ...      0.27549259 Eh    172.87 kcal/mol


Timings for individual modules:

Sum of individual times         ...    39002.511 sec (= 650.042 min)
GTO integral calculation        ...      167.527 sec (=   2.792 min)   0.4 %
SCF iterations                  ...    10729.767 sec (= 178.829 min)  27.5 %
SCF Gradient evaluation         ...     2683.937 sec (=  44.732 min)   6.9 %
Geometry relaxation             ...        3.461 sec (=   0.058 min)   0.0 %
Analytical frequency calculation...    25417.819 sec (= 423.630 min)  65.2 %
                             ****ORCA TERMINATED NORMALLY****
TOTAL RUN TIME: 0 days 10 hours 51 minutes 3 seconds 38 msec
