
                                 *****************
                                 * O   R   C   A *
                                 *****************

                                            #,                                       
                                            ###                                      
                                            ####                                     
                                            #####                                    
                                            ######                                   
                                           ########,                                 
                                     ,,################,,,,,                         
                               ,,#################################,,                 
                          ,,##########################################,,             
                       ,#########################################, ''#####,          
                    ,#############################################,,   '####,        
                  ,##################################################,,,,####,       
                ,###########''''           ''''###############################       
              ,#####''   ,,,,##########,,,,          '''####'''          '####       
            ,##' ,,,,###########################,,,                        '##       
           ' ,,###''''                  '''############,,,                           
         ,,##''                                '''############,,,,        ,,,,,,###''
      ,#''                                            '''#######################'''  
     '                                                          ''''####''''         
             ,#######,   #######,   ,#######,      ##                                
            ,#'     '#,  ##    ##  ,#'     '#,    #''#        ######   ,####,        
            ##       ##  ##   ,#'  ##            #'  '#       #        #'  '#        
            ##       ##  #######   ##           ,######,      #####,   #    #        
            '#,     ,#'  ##    ##  '#,     ,#' ,#      #,         ##   #,  ,#        
             '#######'   ##     ##  '#######'  #'      '#     #####' # '####'        



                  #######################################################
                  #                        -***-                        #
                  #          Department of theory and spectroscopy      #
                  #    Directorship and core code : Frank Neese         #
                  #        Max Planck Institute fuer Kohlenforschung    #
                  #                Kaiser Wilhelm Platz 1               #
                  #                 D-45470 Muelheim/Ruhr               #
                  #                      Germany                        #
                  #                                                     #
                  #                  All rights reserved                #
                  #                        -***-                        #
                  #######################################################


                         Program Version 5.0.4 -  RELEASE  -


 With contributions from (in alphabetic order):
   Daniel Aravena         : Magnetic Suceptibility
   Michael Atanasov       : Ab Initio Ligand Field Theory (pilot matlab implementation)
   Alexander A. Auer      : GIAO ZORA, VPT2 properties, NMR spectrum
   Ute Becker             : Parallelization
   Giovanni Bistoni       : ED, misc. LED, open-shell LED, HFLD
   Martin Brehm           : Molecular dynamics
   Dmytro Bykov           : SCF Hessian
   Vijay G. Chilkuri      : MRCI spin determinant printing, contributions to CSF-ICE
   Dipayan Datta          : RHF DLPNO-CCSD density
   Achintya Kumar Dutta   : EOM-CC, STEOM-CC
   Dmitry Ganyushin       : Spin-Orbit,Spin-Spin,Magnetic field MRCI
   Miquel Garcia          : C-PCM and meta-GGA Hessian, CC/C-PCM, Gaussian charge scheme
   Yang Guo               : DLPNO-NEVPT2, F12-NEVPT2, CIM, IAO-localization
   Andreas Hansen         : Spin unrestricted coupled pair/coupled cluster methods
   Benjamin Helmich-Paris : MC-RPA, TRAH-SCF, COSX integrals
   Lee Huntington         : MR-EOM, pCC
   Robert Izsak           : Overlap fitted RIJCOSX, COSX-SCS-MP3, EOM
   Marcus Kettner         : VPT2
   Christian Kollmar      : KDIIS, OOCD, Brueckner-CCSD(T), CCSD density, CASPT2, CASPT2-K
   Simone Kossmann        : Meta GGA functionals, TD-DFT gradient, OOMP2, MP2 Hessian
   Martin Krupicka        : Initial AUTO-CI
   Lucas Lang             : DCDCAS
   Marvin Lechner         : AUTO-CI (C++ implementation), FIC-MRCC
   Dagmar Lenk            : GEPOL surface, SMD
   Dimitrios Liakos       : Extrapolation schemes; Compound Job, initial MDCI parallelization
   Dimitrios Manganas     : Further ROCIS development; embedding schemes
   Dimitrios Pantazis     : SARC Basis sets
   Anastasios Papadopoulos: AUTO-CI, single reference methods and gradients
   Taras Petrenko         : DFT Hessian,TD-DFT gradient, ASA, ECA, R-Raman, ABS, FL, XAS/XES, NRVS
   Peter Pinski           : DLPNO-MP2, DLPNO-MP2 Gradient
   Christoph Reimann      : Effective Core Potentials
   Marius Retegan         : Local ZFS, SOC
   Christoph Riplinger    : Optimizer, TS searches, QM/MM, DLPNO-CCSD(T), (RO)-DLPNO pert. Triples
   Tobias Risthaus        : Range-separated hybrids, TD-DFT gradient, RPA, STAB
   Michael Roemelt        : Original ROCIS implementation
   Masaaki Saitow         : Open-shell DLPNO-CCSD energy and density
   Barbara Sandhoefer     : DKH picture change effects
   Avijit Sen             : IP-ROCIS
   Kantharuban Sivalingam : CASSCF convergence, NEVPT2, FIC-MRCI
   Bernardo de Souza      : ESD, SOC TD-DFT
   Georgi Stoychev        : AutoAux, RI-MP2 NMR, DLPNO-MP2 response
   Willem Van den Heuvel  : Paramagnetic NMR
   Boris Wezisla          : Elementary symmetry handling
   Frank Wennmohs         : Technical directorship


 We gratefully acknowledge several colleagues who have allowed us to
 interface, adapt or use parts of their codes:
   Stefan Grimme, W. Hujo, H. Kruse, P. Pracht,  : VdW corrections, initial TS optimization,
                  C. Bannwarth, S. Ehlert          DFT functionals, gCP, sTDA/sTD-DF
   Ed Valeev, F. Pavosevic, A. Kumar             : LibInt (2-el integral package), F12 methods
   Garnet Chan, S. Sharma, J. Yang, R. Olivares  : DMRG
   Ulf Ekstrom                                   : XCFun DFT Library
   Mihaly Kallay                                 : mrcc  (arbitrary order and MRCC methods)
   Jiri Pittner, Ondrej Demel                    : Mk-CCSD
   Frank Weinhold                                : gennbo (NPA and NBO analysis)
   Christopher J. Cramer and Donald G. Truhlar   : smd solvation model
   Lars Goerigk                                  : TD-DFT with DH, B97 family of functionals
   V. Asgeirsson, H. Jonsson                     : NEB implementation
   FAccTs GmbH                                   : IRC, NEB, NEB-TS, DLPNO-Multilevel, CI-OPT
                                                   MM, QMMM, 2- and 3-layer-ONIOM, Crystal-QMMM,
                                                   LR-CPCM, SF, NACMEs, symmetry and pop. for TD-DFT,
                                                   nearIR, NL-DFT gradient (VV10), updates on ESD,
                                                   ML-optimized integration grids
   S Lehtola, MJT Oliveira, MAL Marques          : LibXC Library
   Liviu Ungur et al                             : ANISO software


 Your calculation uses the libint2 library for the computation of 2-el integrals
 For citations please refer to: http://libint.valeyev.net

 Your ORCA version has been built with support for libXC version: 5.1.0
 For citations please refer to: https://tddft.org/programs/libxc/

 This ORCA versions uses:
   CBLAS   interface :  Fast vector & matrix operations
   LAPACKE interface :  Fast linear algebra routines
   SCALAPACK package :  Parallel linear algebra routines
   Shared memory     :  Shared parallel matrices
   BLAS/LAPACK       :  OpenBLAS 0.3.15  USE64BITINT DYNAMIC_ARCH NO_AFFINITY Haswell SINGLE_THREADED
        Core in use  :  Haswell
   Copyright (c) 2011-2014, The OpenBLAS Project


Your calculation utilizes the atom-pairwise dispersion correction
with the Becke-Johnson damping scheme (D3BJ)
Cite in your paper:
S.Grimme, S.Ehrlich, L.Goerigk, J Comput Chem, (2011), 32, 1456–1465 
S.Grimme, J.Antony, S.Ehrlich and H.Krieg, J.Chem.Phys., 132, (2010), 154104 
   

================================================================================

----- Orbital basis set information -----
Your calculation utilizes the basis: def2-TZVP
   F. Weigend and R. Ahlrichs, Phys. Chem. Chem. Phys. 7, 3297 (2005).

----- AuxJ basis set information -----
Your calculation utilizes the auxiliary basis: def2/J
   F. Weigend, Phys. Chem. Chem. Phys. 8, 1057 (2006).

================================================================================
                                        WARNINGS
                       Please study these warnings very carefully!
================================================================================


WARNING: Geometry Optimization
  ===> : Switching off AutoStart
         For restart on a previous wavefunction, please use MOREAD

INFO   : the flag for use of the SHARK integral package has been found!

================================================================================
                                       INPUT FILE
================================================================================
NAME = 4_4-OMePh_free/4_4-OMePh_free.inp
|  1> %pal nprocs 24 end
|  2> %maxcore 3500
|  3> ! PBE0 D3BJ def2-TZVP TightSCF OPT FREQ TightOpt
|  4> ! CPCM(dmso)
|  5> %scf
|  6> MaxIter 800
|  7> end
|  8> %geom
|  9> MaxIter 800
| 10> MaxStep 0.2
| 11> end
| 12> *xyz 0 1
| 13> C        2.152029000      1.687241000     -0.883423000
| 14> C        3.217369000      1.108263000      0.033140000
| 15> O        3.481467000      1.619811000      1.092585000
| 16> O        3.790019000      0.026127000     -0.454402000
| 17> C        4.775415000     -0.592870000      0.380330000
| 18> H        2.297654000      2.766867000     -0.916123000
| 19> H        5.131379000     -1.454924000     -0.177199000
| 20> H        4.316467000     -0.902410000      1.318743000
| 21> C       -2.907799000     -2.402088000     -0.787087000
| 22> C       -2.636533000     -1.381261000      0.120284000
| 23> C       -1.550197000     -0.552328000     -0.087824000
| 24> C       -0.709911000     -0.705466000     -1.193837000
| 25> C       -1.004653000     -1.731834000     -2.105211000
| 26> C       -2.083801000     -2.563815000     -1.902050000
| 27> C        0.411822000      0.193926000     -1.333095000
| 28> C        0.730072000      1.318504000     -0.403309000
| 29> C       -0.257462000      2.455372000     -0.481167000
| 30> C       -0.930756000      2.759216000     -1.653979000
| 31> C       -1.839526000      3.807322000     -1.713891000
| 32> C       -2.079941000      4.559014000     -0.575649000
| 33> C       -1.417965000      4.276270000      0.612429000
| 34> C       -0.502596000      3.229557000      0.662126000
| 35> O       -3.930543000     -3.270414000     -0.667659000
| 36> C       -4.765755000     -3.156759000      0.471107000
| 37> O        0.189369000      2.887043000      1.770295000
| 38> C       -0.051873000      3.613162000      2.960560000
| 39> N        1.267788000      0.161176000     -2.313986000
| 40> O        1.386477000     -0.545697000     -3.312443000
| 41> H       -3.254385000     -1.231945000      0.994988000
| 42> H       -1.352531000      0.225480000      0.638624000
| 43> H       -0.375482000     -1.874835000     -2.971503000
| 44> H       -2.305308000     -3.359875000     -2.603516000
| 45> H        0.781400000      0.959125000      0.624377000
| 46> H       -0.749031000      2.155081000     -2.536931000
| 47> H       -2.357458000      4.026863000     -2.639684000
| 48> H       -2.791182000      5.376919000     -0.601456000
| 49> H       -1.619169000      4.872904000      1.491947000
| 50> H       -5.502127000     -3.952956000      0.385472000
| 51> H       -5.274674000     -2.189039000      0.492086000
| 52> H       -4.192241000     -3.286257000      1.393346000
| 53> H       -1.097127000      3.525895000      3.270325000
| 54> H        0.204077000      4.669212000      2.836769000
| 55> H        0.591052000      3.169598000      3.717927000
| 56> O        2.242032000      1.194337000     -2.205006000
| 57> H        5.592573000      0.101881000      0.573655000
| 58> *
| 59> 
| 60>                          ****END OF INPUT****
================================================================================

                       *****************************
                       * Geometry Optimization Run *
                       *****************************

Geometry optimization settings:
Update method            Update   .... BFGS
Choice of coordinates    CoordSys .... Z-matrix Internals
Initial Hessian          InHess   .... Almoef's Model

Convergence Tolerances:
Energy Change            TolE     ....  1.0000e-06 Eh
Max. Gradient            TolMAXG  ....  1.0000e-04 Eh/bohr
RMS Gradient             TolRMSG  ....  3.0000e-05 Eh/bohr
Max. Displacement        TolMAXD  ....  1.0000e-03 bohr
RMS Displacement         TolRMSD  ....  6.0000e-04 bohr
Strict Convergence                ....  False
------------------------------------------------------------------------------
                        ORCA OPTIMIZATION COORDINATE SETUP
------------------------------------------------------------------------------

The optimization will be done in new redundant internal coordinates
Making redundant internal coordinates   ...  (new redundants) done
Evaluating the initial hessian          ...  (Almloef) done
Evaluating the coordinates              ...  done
Calculating the B-matrix                .... done
Calculating the G-matrix                .... done
Diagonalizing the G-matrix              .... done
Small eigenvalue found = 2.411e-03
Small eigenvalue found = 4.717e-03
Small eigenvalue found = 6.337e-03
Small eigenvalue found = 9.947e-03
Small eigenvalue found = 1.256e-02
Small eigenvalue found = 1.715e-02
Small eigenvalue found = 2.151e-02
The first mode is                       ....  100
The number of degrees of freedom        ....  129

    -----------------------------------------------------------------
                    Redundant Internal Coordinates


    -----------------------------------------------------------------
         Definition                    Initial Value    Approx d2E/dq
    -----------------------------------------------------------------
      1. B(C   1,C   0)                  1.5200         0.387623   
      2. B(O   2,C   1)                  1.2058         1.101087   
      3. B(O   3,C   1)                  1.3178         0.729521   
      4. B(C   4,O   3)                  1.4321         0.479392   
      5. B(H   5,C   0)                  1.0899         0.360241   
      6. B(H   6,C   4)                  1.0866         0.364634   
      7. B(H   7,C   4)                  1.0895         0.360727   
      8. B(C   9,C   8)                  1.3925         0.619134   
      9. B(C  10,C   9)                  1.3822         0.642883   
     10. B(C  11,C  10)                  1.3974         0.607984   
     11. B(C  12,C  11)                  1.4039         0.593715   
     12. B(C  13,C  12)                  1.3777         0.653702   
     13. B(C  13,C   8)                  1.3958         0.611614   
     14. B(C  14,C  11)                  1.4445         0.511429   
     15. B(C  15,C   0)                  1.5455         0.352953   
     16. B(C  15,C  14)                  1.4935         0.427223   
     17. B(C  16,C  15)                  1.5079         0.405173   
     18. B(C  17,C  16)                  1.3860         0.633929   
     19. B(C  18,C  17)                  1.3885         0.628210   
     20. B(C  19,C  18)                  1.3851         0.636202   
     21. B(C  20,C  19)                  1.3891         0.626794   
     22. B(C  21,C  20)                  1.3914         0.621604   
     23. B(C  21,C  16)                  1.4023         0.597094   
     24. B(O  22,C   8)                  1.3469         0.655494   
     25. B(C  23,O  22)                  1.4168         0.507153   
     26. B(O  24,C  21)                  1.3506         0.646705   
     27. B(C  25,O  24)                  1.4150         0.510524   
     28. B(N  26,C  14)                  1.3023         0.772412   
     29. B(O  27,N  26)                  1.2291         0.905164   
     30. B(H  28,C   9)                  1.0813         0.371837   
     31. B(H  29,C  10)                  1.0825         0.370174   
     32. B(H  30,C  12)                  1.0802         0.373341   
     33. B(H  31,C  13)                  1.0839         0.368265   
     34. B(H  32,C  15)                  1.0899         0.360205   
     35. B(H  33,C  17)                  1.0852         0.366538   
     36. B(H  34,C  18)                  1.0833         0.369070   
     37. B(H  35,C  19)                  1.0842         0.367850   
     38. B(H  36,C  20)                  1.0817         0.371292   
     39. B(H  37,C  23)                  1.0879         0.362901   
     40. B(H  38,C  23)                  1.0936         0.355393   
     41. B(H  39,C  23)                  1.0937         0.355219   
     42. B(H  40,C  25)                  1.0937         0.355271   
     43. B(H  41,C  25)                  1.0937         0.355300   
     44. B(H  42,C  25)                  1.0880         0.362779   
     45. B(O  43,N  26)                  1.4242         0.441967   
     46. B(O  43,C   0)                  1.4134         0.513544   
     47. B(H  44,C   4)                  1.0899         0.360282   
     48. A(C  15,C   0,O  43)          105.4185         0.377680   
     49. A(H   5,C   0,C  15)          111.6295         0.321334   
     50. A(H   5,C   0,O  43)          107.9926         0.339834   
     51. A(C   1,C   0,H   5)          107.5641         0.326314   
     52. A(C   1,C   0,C  15)          111.5106         0.362120   
     53. A(C   1,C   0,O  43)          112.7295         0.383868   
     54. A(C   0,C   1,O   2)          121.4504         0.439429   
     55. A(O   2,C   1,O   3)          125.3289         0.490024   
     56. A(C   0,C   1,O   3)          113.2207         0.408253   
     57. A(C   1,O   3,C   4)          115.9945         0.421226   
     58. A(O   3,C   4,H   7)          109.5715         0.336033   
     59. A(O   3,C   4,H  44)          110.1064         0.335964   
     60. A(H   7,C   4,H  44)          110.1305         0.290942   
     61. A(H   6,C   4,H  44)          110.5563         0.291435   
     62. A(O   3,C   4,H   6)          105.6197         0.336636   
     63. A(H   6,C   4,H   7)          110.7648         0.291492   
     64. A(C   9,C   8,C  13)          119.3704         0.432895   
     65. A(C   9,C   8,O  22)          124.2459         0.435456   
     66. A(C  13,C   8,O  22)          116.3836         0.434499   
     67. A(C  10,C   9,H  28)          119.2139         0.357021   
     68. A(C   8,C   9,H  28)          121.1351         0.354748   
     69. A(C   8,C   9,C  10)          119.6462         0.436798   
     70. A(C   9,C  10,H  29)          118.2542         0.356750   
     71. A(C   9,C  10,C  11)          121.7376         0.435371   
     72. A(C  11,C  10,H  29)          120.0056         0.353388   
     73. A(C  10,C  11,C  14)          118.3606         0.417893   
     74. A(C  10,C  11,C  12)          117.8835         0.429189   
     75. A(C  12,C  11,C  14)          123.7555         0.416130   
     76. A(C  11,C  12,C  13)          120.6786         0.434818   
     77. A(C  13,C  12,H  30)          119.6415         0.358282   
     78. A(C  11,C  12,H  30)          119.6787         0.352479   
     79. A(C   8,C  13,C  12)          120.6797         0.437150   
     80. A(C   8,C  13,H  31)          118.7777         0.353435   
     81. A(C  12,C  13,H  31)          120.5420         0.357449   
     82. A(C  15,C  14,N  26)          110.3529         0.419607   
     83. A(C  11,C  14,C  15)          125.0505         0.392649   
     84. A(C  11,C  14,N  26)          124.5675         0.433347   
     85. A(C  16,C  15,H  32)          109.1550         0.328699   
     86. A(C  14,C  15,H  32)          110.4120         0.331592   
     87. A(C   0,C  15,H  32)          109.1635         0.321329   
     88. A(C  14,C  15,C  16)          113.3292         0.377057   
     89. A(C   0,C  15,C  16)          113.9943         0.364872   
     90. A(C   0,C  15,C  14)          100.5048         0.368200   
     91. A(C  17,C  16,C  21)          118.9412         0.432863   
     92. A(C  15,C  16,C  21)          119.2492         0.399732   
     93. A(C  15,C  16,C  17)          121.8095         0.403971   
     94. A(C  18,C  17,H  33)          119.6516         0.354760   
     95. A(C  16,C  17,H  33)          119.0180         0.355305   
     96. A(C  16,C  17,C  18)          121.3263         0.436840   
     97. A(C  19,C  18,H  34)          120.6194         0.355937   
     98. A(C  17,C  18,H  34)          120.1830         0.355174   
     99. A(C  17,C  18,C  19)          119.1962         0.437122   
    100. A(C  20,C  19,H  35)          119.1119         0.354839   
    101. A(C  18,C  19,H  35)          120.2461         0.355737   
    102. A(C  18,C  19,C  20)          120.6420         0.436944   
    103. A(C  19,C  20,C  21)          119.8131         0.435121   
    104. A(C  21,C  20,H  36)          120.5491         0.354899   
    105. A(C  19,C  20,H  36)          119.6378         0.355400   
    106. A(C  16,C  21,C  20)          120.0784         0.431339   
    107. A(C  20,C  21,O  24)          123.8578         0.434711   
    108. A(C  16,C  21,O  24)          116.0633         0.431577   
    109. A(C   8,O  22,C  23)          117.8509         0.417435   
    110. A(H  37,C  23,H  39)          109.5517         0.290570   
    111. A(O  22,C  23,H  39)          111.0466         0.338331   
    112. A(H  37,C  23,H  38)          109.5209         0.290592   
    113. A(O  22,C  23,H  38)          111.1461         0.338358   
    114. A(O  22,C  23,H  37)          106.0841         0.339541   
    115. A(H  38,C  23,H  39)          109.4282         0.289619   
    116. A(C  21,O  24,C  25)          118.2097         0.416924   
    117. A(H  41,C  25,H  42)          109.5223         0.290565   
    118. A(H  40,C  25,H  42)          109.5771         0.290561   
    119. A(O  24,C  25,H  42)          105.9980         0.339898   
    120. A(H  40,C  25,H  41)          109.4375         0.289613   
    121. A(O  24,C  25,H  41)          111.1251         0.338718   
    122. A(O  24,C  25,H  40)          111.1154         0.338713   
    123. A(C  14,N  26,O  27)          133.6154         0.474359   
    124. A(O  27,N  26,O  43)          114.4124         0.425766   
    125. A(C  14,N  26,O  43)          111.9464         0.416641   
    126. A(C   0,O  43,N  26)          106.3182         0.387728   
    127. D(O   2,C   1,C   0,C  15)    -78.2572         0.011186   
    128. D(O   3,C   1,C   0,O  43)    -16.5952         0.011186   
    129. D(O   2,C   1,C   0,O  43)    163.3875         0.011186   
    130. D(O   3,C   1,C   0,C  15)    101.7602         0.011186   
    131. D(O   3,C   1,C   0,H   5)   -135.5341         0.011186   
    132. D(O   2,C   1,C   0,H   5)     44.4485         0.011186   
    133. D(C   4,O   3,C   1,O   2)      1.8669         0.040184   
    134. D(C   4,O   3,C   1,C   0)   -178.1513         0.040184   
    135. D(H  44,C   4,O   3,C   1)    -60.6319         0.018128   
    136. D(H   7,C   4,O   3,C   1)     60.6412         0.018128   
    137. D(H   6,C   4,O   3,C   1)    179.9881         0.018128   
    138. D(H  28,C   9,C   8,O  22)      0.0665         0.026521   
    139. D(H  28,C   9,C   8,C  13)   -179.8254         0.026521   
    140. D(C  10,C   9,C   8,O  22)    179.2619         0.026521   
    141. D(C  10,C   9,C   8,C  13)     -0.6299         0.026521   
    142. D(C  11,C  10,C   9,C   8)      0.2219         0.028733   
    143. D(H  29,C  10,C   9,H  28)      0.0127         0.028733   
    144. D(C  11,C  10,C   9,H  28)    179.4328         0.028733   
    145. D(H  29,C  10,C   9,C   8)   -179.1983         0.028733   
    146. D(C  14,C  11,C  10,C   9)   -179.4332         0.025520   
    147. D(C  12,C  11,C  10,C   9)      0.3468         0.025520   
    148. D(C  12,C  11,C  10,H  29)    179.7570         0.025520   
    149. D(C  14,C  11,C  10,H  29)     -0.0230         0.025520   
    150. D(C  13,C  12,C  11,C  10)     -0.5112         0.024273   
    151. D(H  30,C  12,C  11,C  10)    179.8701         0.024273   
    152. D(C  13,C  12,C  11,C  14)    179.2559         0.024273   
    153. D(H  30,C  12,C  11,C  14)     -0.3627         0.024273   
    154. D(H  31,C  13,C   8,O  22)      0.2589         0.025843   
    155. D(H  31,C  13,C   8,C   9)   -179.8409         0.025843   
    156. D(C  12,C  13,C   8,O  22)   -179.4314         0.025843   
    157. D(C  12,C  13,C   8,C   9)      0.4688         0.025843   
    158. D(H  31,C  13,C  12,H  30)      0.0439         0.029777   
    159. D(H  31,C  13,C  12,C  11)   -179.5749         0.029777   
    160. D(C   8,C  13,C  12,H  30)    179.7287         0.029777   
    161. D(C   8,C  13,C  12,C  11)      0.1099         0.029777   
    162. D(N  26,C  14,C  11,C  12)      0.3327         0.017827   
    163. D(N  26,C  14,C  11,C  10)   -179.9012         0.017827   
    164. D(C  15,C  14,C  11,C  12)    178.1795         0.017827   
    165. D(C  15,C  14,C  11,C  10)     -2.0543         0.017827   
    166. D(H  32,C  15,C  14,N  26)   -128.7219         0.013484   
    167. D(H  32,C  15,C  14,C  11)     53.1691         0.013484   
    168. D(C  16,C  15,C  14,N  26)    108.4738         0.013484   
    169. D(C  16,C  15,C  14,C  11)    -69.6352         0.013484   
    170. D(C   0,C  15,C  14,N  26)    -13.5566         0.013484   
    171. D(C   0,C  15,C  14,C  11)    168.3344         0.013484   
    172. D(H  32,C  15,C   0,O  43)    137.9715         0.010024   
    173. D(H  32,C  15,C   0,H   5)   -105.0242         0.010024   
    174. D(H  32,C  15,C   0,C   1)     15.3213         0.010024   
    175. D(C  16,C  15,C   0,O  43)    -99.6902         0.010024   
    176. D(C  16,C  15,C   0,H   5)     17.3140         0.010024   
    177. D(C  16,C  15,C   0,C   1)    137.6595         0.010024   
    178. D(C  14,C  15,C   0,O  43)     21.8700         0.010024   
    179. D(C  14,C  15,C   0,H   5)    138.8743         0.010024   
    180. D(C  14,C  15,C   0,C   1)   -100.7802         0.010024   
    181. D(C  21,C  16,C  15,H  32)     26.3157         0.012170   
    182. D(C  21,C  16,C  15,C  14)    149.8122         0.012170   
    183. D(C  21,C  16,C  15,C   0)    -96.0272         0.012170   
    184. D(C  17,C  16,C  15,H  32)   -153.7620         0.012170   
    185. D(C  17,C  16,C  15,C  14)    -30.2655         0.012170   
    186. D(C  17,C  16,C  15,C   0)     83.8950         0.012170   
    187. D(H  33,C  17,C  16,C  15)      0.6499         0.027886   
    188. D(C  18,C  17,C  16,C  21)     -0.1685         0.027886   
    189. D(C  18,C  17,C  16,C  15)    179.9090         0.027886   
    190. D(H  33,C  17,C  16,C  21)   -179.4276         0.027886   
    191. D(H  34,C  18,C  17,H  33)     -0.5813         0.027353   
    192. D(H  34,C  18,C  17,C  16)   -179.8358         0.027353   
    193. D(C  19,C  18,C  17,H  33)    178.9879         0.027353   
    194. D(C  19,C  18,C  17,C  16)     -0.2666         0.027353   
    195. D(H  35,C  19,C  18,H  34)     -0.0103         0.028099   
    196. D(H  35,C  19,C  18,C  17)   -179.5776         0.028099   
    197. D(C  20,C  19,C  18,H  34)    179.8752         0.028099   
    198. D(C  20,C  19,C  18,C  17)      0.3079         0.028099   
    199. D(H  36,C  20,C  19,H  35)     -0.0273         0.027222   
    200. D(H  36,C  20,C  19,C  18)   -179.9142         0.027222   
    201. D(C  21,C  20,C  19,H  35)    179.9748         0.027222   
    202. D(C  21,C  20,C  19,C  18)      0.0880         0.027222   
    203. D(O  24,C  21,C  20,H  36)     -0.2575         0.026746   
    204. D(O  24,C  21,C  20,C  19)    179.7403         0.026746   
    205. D(C  16,C  21,C  20,H  36)    179.4730         0.026746   
    206. D(C  16,C  21,C  20,C  19)     -0.5292         0.026746   
    207. D(O  24,C  21,C  16,C  17)   -179.6825         0.024565   
    208. D(O  24,C  21,C  16,C  15)      0.2420         0.024565   
    209. D(C  20,C  21,C  16,C  17)      0.5666         0.024565   
    210. D(C  20,C  21,C  16,C  15)   -179.5088         0.024565   
    211. D(C  23,O  22,C   8,C  13)    178.3709         0.031799   
    212. D(C  23,O  22,C   8,C   9)     -1.5239         0.031799   
    213. D(H  39,C  23,O  22,C   8)    -59.8195         0.020353   
    214. D(H  38,C  23,O  22,C   8)     62.2515         0.020353   
    215. D(H  37,C  23,O  22,C   8)   -178.7755         0.020353   
    216. D(C  25,O  24,C  21,C  20)      1.5620         0.030883   
    217. D(C  25,O  24,C  21,C  16)   -178.1784         0.030883   
    218. D(H  42,C  25,O  24,C  21)    179.2706         0.020634   
    219. D(H  41,C  25,O  24,C  21)    -61.8178         0.020634   
    220. D(H  40,C  25,O  24,C  21)     60.2985         0.020634   
    221. D(O  43,N  26,C  14,C  15)      0.1492         0.050440   
    222. D(O  43,N  26,C  14,C  11)    178.2693         0.050440   
    223. D(O  27,N  26,C  14,C  15)   -177.8465         0.050440   
    224. D(O  27,N  26,C  14,C  11)      0.2735         0.050440   
    225. D(C   0,O  43,N  26,O  27)   -166.6176         0.016237   
    226. D(C   0,O  43,N  26,C  14)     14.9758         0.016237   
    227. D(N  26,O  43,C   0,C  15)    -22.7188         0.020888   
    228. D(N  26,O  43,C   0,H   5)   -142.1644         0.020888   
    229. D(N  26,O  43,C   0,C   1)     99.1464         0.020888   
    -----------------------------------------------------------------

Number of atoms                         .... 45
Number of degrees of freedom            .... 229

         *************************************************************
         *                GEOMETRY OPTIMIZATION CYCLE   1            *
         *************************************************************
---------------------------------
CARTESIAN COORDINATES (ANGSTROEM)
---------------------------------
  C      2.152029    1.687241   -0.883423
  C      3.217369    1.108263    0.033140
  O      3.481467    1.619811    1.092585
  O      3.790019    0.026127   -0.454402
  C      4.775415   -0.592870    0.380330
  H      2.297654    2.766867   -0.916123
  H      5.131379   -1.454924   -0.177199
  H      4.316467   -0.902410    1.318743
  C     -2.907799   -2.402088   -0.787087
  C     -2.636533   -1.381261    0.120284
  C     -1.550197   -0.552328   -0.087824
  C     -0.709911   -0.705466   -1.193837
  C     -1.004653   -1.731834   -2.105211
  C     -2.083801   -2.563815   -1.902050
  C      0.411822    0.193926   -1.333095
  C      0.730072    1.318504   -0.403309
  C     -0.257462    2.455372   -0.481167
  C     -0.930756    2.759216   -1.653979
  C     -1.839526    3.807322   -1.713891
  C     -2.079941    4.559014   -0.575649
  C     -1.417965    4.276270    0.612429
  C     -0.502596    3.229557    0.662126
  O     -3.930543   -3.270414   -0.667659
  C     -4.765755   -3.156759    0.471107
  O      0.189369    2.887043    1.770295
  C     -0.051873    3.613162    2.960560
  N      1.267788    0.161176   -2.313986
  O      1.386477   -0.545697   -3.312443
  H     -3.254385   -1.231945    0.994988
  H     -1.352531    0.225480    0.638624
  H     -0.375482   -1.874835   -2.971503
  H     -2.305308   -3.359875   -2.603516
  H      0.781400    0.959125    0.624377
  H     -0.749031    2.155081   -2.536931
  H     -2.357458    4.026863   -2.639684
  H     -2.791182    5.376919   -0.601456
  H     -1.619169    4.872904    1.491947
  H     -5.502127   -3.952956    0.385472
  H     -5.274674   -2.189039    0.492086
  H     -4.192241   -3.286257    1.393346
  H     -1.097127    3.525895    3.270325
  H      0.204077    4.669212    2.836769
  H      0.591052    3.169598    3.717927
  O      2.242032    1.194337   -2.205006
  H      5.592573    0.101881    0.573655

----------------------------
CARTESIAN COORDINATES (A.U.)
----------------------------
  NO LB      ZA    FRAG     MASS         X           Y           Z
   0 C     6.0000    0    12.011    4.066745    3.188423   -1.669428
   1 C     6.0000    0    12.011    6.079946    2.094314    0.062626
   2 O     8.0000    0    15.999    6.579019    3.060999    2.064686
   3 O     8.0000    0    15.999    7.162098    0.049373   -0.858695
   4 C     6.0000    0    12.011    9.024227   -1.120362    0.718720
   5 H     1.0000    0     1.008    4.341937    5.228621   -1.731222
   6 H     1.0000    0     1.008    9.696901   -2.749408   -0.334858
   7 H     1.0000    0     1.008    8.156940   -1.705308    2.492063
   8 C     6.0000    0    12.011   -5.494944   -4.539288   -1.487379
   9 C     6.0000    0    12.011   -4.982325   -2.610205    0.227304
  10 C     6.0000    0    12.011   -2.929448   -1.043749   -0.165963
  11 C     6.0000    0    12.011   -1.341537   -1.333138   -2.256025
  12 C     6.0000    0    12.011   -1.898519   -3.272692   -3.978272
  13 C     6.0000    0    12.011   -3.937813   -4.844908   -3.594354
  14 C     6.0000    0    12.011    0.778231    0.366467   -2.519184
  15 C     6.0000    0    12.011    1.379636    2.491611   -0.762144
  16 C     6.0000    0    12.011   -0.486533    4.639981   -0.909274
  17 C     6.0000    0    12.011   -1.758874    5.214163   -3.125567
  18 C     6.0000    0    12.011   -3.476200    7.194796   -3.238785
  19 C     6.0000    0    12.011   -3.930519    8.615288   -1.087819
  20 C     6.0000    0    12.011   -2.679566    8.080979    1.157323
  21 C     6.0000    0    12.011   -0.949769    6.102978    1.251237
  22 O     8.0000    0    15.999   -7.427650   -6.180187   -1.261693
  23 C     6.0000    0    12.011   -9.005972   -5.965410    0.890263
  24 O     8.0000    0    15.999    0.357856    5.455721    3.345373
  25 C     6.0000    0    12.011   -0.098026    6.827887    5.594648
  26 N     7.0000    0    14.007    2.395772    0.304578   -4.372800
  27 O     8.0000    0    15.999    2.620062   -1.031218   -6.259610
  28 H     1.0000    0     1.008   -6.149896   -2.328039    1.880255
  29 H     1.0000    0     1.008   -2.555913    0.426095    1.206824
  30 H     1.0000    0     1.008   -0.709558   -3.542925   -5.615327
  31 H     1.0000    0     1.008   -4.356401   -6.349244   -4.919932
  32 H     1.0000    0     1.008    1.476632    1.812484    1.179902
  33 H     1.0000    0     1.008   -1.415463    4.072513   -4.794105
  34 H     1.0000    0     1.008   -4.454950    7.609668   -4.988280
  35 H     1.0000    0     1.008   -5.274570   10.160904   -1.136587
  36 H     1.0000    0     1.008   -3.059786    9.208454    2.819371
  37 H     1.0000    0     1.008  -10.397513   -7.470004    0.728437
  38 H     1.0000    0     1.008   -9.967689   -4.136684    0.929908
  39 H     1.0000    0     1.008   -7.922187   -6.210126    2.633042
  40 H     1.0000    0     1.008   -2.073270    6.662976    6.180019
  41 H     1.0000    0     1.008    0.385650    8.823532    5.360717
  42 H     1.0000    0     1.008    1.116926    5.989672    7.025864
  43 O     8.0000    0    15.999    4.236826    2.256970   -4.166857
  44 H     1.0000    0     1.008   10.568431    0.192527    1.084051

--------------------------------
INTERNAL COORDINATES (ANGSTROEM)
--------------------------------
 C      0   0   0     0.000000000000     0.00000000     0.00000000
 C      1   0   0     1.519951503520     0.00000000     0.00000000
 O      2   1   0     1.205758192148   121.45041247     0.00000000
 O      2   1   3     1.317817721371   113.22065960   180.01735388
 C      4   2   1     1.432110357008   115.99454634   181.84873724
 H      1   2   3     1.089893678531   107.56406630    44.44852852
 H      5   4   2     1.086593785208   105.61968589   179.98807655
 H      5   4   2     1.089526152450   109.57154037    60.64115728
 C      1   2   3     6.506439247755   107.26133245   250.70846936
 C      9   1   2     1.392478056677    52.94331659    84.62253320
 C     10   9   1     1.382231805107   119.64618063     3.52316095
 C     11  10   9     1.397424976523   121.73763185     0.22186015
 C     12  11  10     1.403889841072   117.88350351     0.34681403
 C     13  12  11     1.377689073117   120.67864581   359.48875027
 C     12  11  10     1.444501188479   118.36064454   180.56677990
 C     15  12  11     1.493472713638   125.05053411   357.94566886
 C     16  15  12     1.507897250725   113.32917130   290.36481534
 C     17  16  15     1.386049773318   121.80953350   329.73451516
 C     18  17  16     1.388516671805   121.32625498   179.90896984
 C     19  18  17     1.385075841120   119.19618944   359.73343700
 C     20  19  18     1.389131285443   120.64196324     0.30793150
 C     21  20  19     1.391394373404   119.81305475     0.08799932
 O      9   1   2     1.346944089039   175.54107173    32.43218649
 C     23   9  10     1.416786697681   117.85086468   358.47607140
 O     22  21  20     1.350618352453   123.85781808   179.74034194
 C     25  22  21     1.414983135924   118.20969664     1.56196624
 N     15  12  11     1.302266297474   124.56751627   180.09884817
 O     27  15  12     1.229094340439   133.61535867     0.27352369
 H     10   9   1     1.081269369480   121.13508731   184.32771672
 H     11  10   9     1.082489643888   118.25423647   180.80170172
 H     13  12  11     1.080170015556   119.67874672   179.87007700
 H     14  13  12     1.083896408244   120.54196400   180.42512285
 H     16  15  12     1.089920338291   110.41200462    53.16908299
 H     18  17  16     1.085176164571   119.01800837     0.64987490
 H     19  18  17     1.083302582917   120.18303391   180.16422236
 H     20  19  18     1.084204016943   120.24607992   180.42238634
 H     21  20  19     1.081668660864   119.63781105   180.08584977
 H     24  23   9     1.087890958882   106.08410028   181.22448644
 H     24  23   9     1.093581576931   111.14609497    62.25149383
 H     24  23   9     1.093715142677   111.04664449   300.18046015
 H     26  25  22     1.093675367296   111.11542718    60.29849226
 H     26  25  22     1.093652694726   111.12511836   298.18215394
 H     26  25  22     1.087982697661   105.99803529   179.27062359
 O      1   2   3     1.413377698676   112.72952194   163.38748526
 H      5   4   2     1.089862699880   110.10643803   299.36805105

---------------------------
INTERNAL COORDINATES (A.U.)
---------------------------
 C      0   0   0     0.000000000000     0.00000000     0.00000000
 C      1   0   0     2.872292078495     0.00000000     0.00000000
 O      2   1   0     2.278552766892   121.45041247     0.00000000
 O      2   1   3     2.490314587820   113.22065960   180.01735388
 C      4   2   1     2.706296368297   115.99454634   181.84873724
 H      1   2   3     2.059600567515   107.56406630    44.44852852
 H      5   4   2     2.053364672864   105.61968589   179.98807655
 H      5   4   2     2.058906043876   109.57154037    60.64115728
 C      1   2   3    12.295388285253   107.26133245   250.70846936
 C      9   1   2     2.631402174614    52.94331659    84.62253320
 C     10   9   1     2.612039565248   119.64618063     3.52316095
 C     11  10   9     2.640750498329   121.73763185     0.22186015
 C     12  11  10     2.652967321820   117.88350351     0.34681403
 C     13  12  11     2.603455045887   120.67864581   359.48875027
 C     12  11  10     2.729711646349   118.36064454   180.56677990
 C     15  12  11     2.822254417259   125.05053411   357.94566886
 C     16  15  12     2.849512841963   113.32917130   290.36481534
 C     17  16  15     2.619254479555   121.80953350   329.73451516
 C     18  17  16     2.623916242095   121.32625498   179.90896984
 C     19  18  17     2.617414014427   119.19618944   359.73343700
 C     20  19  18     2.625077693549   120.64196324     0.30793150
 C     21  20  19     2.629354310012   119.81305475     0.08799932
 O      9   1   2     2.545355445987   175.54107173    32.43218649
 C     23   9  10     2.677338848799   117.85086468   358.47607140
 O     22  21  20     2.552298797583   123.85781808   179.74034194
 C     25  22  21     2.673930611014   118.20969664     1.56196624
 N     15  12  11     2.460926655662   124.56751627   180.09884817
 O     27  15  12     2.322651696182   133.61535867     0.27352369
 H     10   9   1     2.043302985315   121.13508731   184.32771672
 H     11  10   9     2.045608969754   118.25423647   180.80170172
 H     13  12  11     2.041225507474   119.67874672   179.87007700
 H     14  13  12     2.048267369123   120.54196400   180.42512285
 H     16  15  12     2.059650947161   110.41200462    53.16908299
 H     18  17  16     2.050685758099   119.01800837     0.64987490
 H     19  18  17     2.047145201882   120.18303391   180.16422236
 H     20  19  18     2.048848665319   120.24607992   180.42238634
 H     21  20  19     2.044057536679   119.63781105   180.08584977
 H     24  23   9     2.055815975857   106.08410028   181.22448644
 H     24  23   9     2.066569685501   111.14609497    62.25149383
 H     24  23   9     2.066822088182   111.04664449   300.18046015
 H     26  25  22     2.066746923605   111.11542718    60.29849226
 H     26  25  22     2.066704078657   111.12511836   298.18215394
 H     26  25  22     2.055989337024   105.99803529   179.27062359
 O      1   2   3     2.670896774289   112.72952194   163.38748526
 H      5   4   2     2.059542026349   110.10643803   299.36805105

---------------------
BASIS SET INFORMATION
---------------------
There are 4 groups of distinct atoms

 Group   1 Type C   : 11s6p2d1f contracted to 5s3p2d1f pattern {62111/411/11/1}
 Group   2 Type O   : 11s6p2d1f contracted to 5s3p2d1f pattern {62111/411/11/1}
 Group   3 Type H   : 5s1p contracted to 3s1p pattern {311/1}
 Group   4 Type N   : 11s6p2d1f contracted to 5s3p2d1f pattern {62111/411/11/1}

Atom   0C    basis set group =>   1
Atom   1C    basis set group =>   1
Atom   2O    basis set group =>   2
Atom   3O    basis set group =>   2
Atom   4C    basis set group =>   1
Atom   5H    basis set group =>   3
Atom   6H    basis set group =>   3
Atom   7H    basis set group =>   3
Atom   8C    basis set group =>   1
Atom   9C    basis set group =>   1
Atom  10C    basis set group =>   1
Atom  11C    basis set group =>   1
Atom  12C    basis set group =>   1
Atom  13C    basis set group =>   1
Atom  14C    basis set group =>   1
Atom  15C    basis set group =>   1
Atom  16C    basis set group =>   1
Atom  17C    basis set group =>   1
Atom  18C    basis set group =>   1
Atom  19C    basis set group =>   1
Atom  20C    basis set group =>   1
Atom  21C    basis set group =>   1
Atom  22O    basis set group =>   2
Atom  23C    basis set group =>   1
Atom  24O    basis set group =>   2
Atom  25C    basis set group =>   1
Atom  26N    basis set group =>   4
Atom  27O    basis set group =>   2
Atom  28H    basis set group =>   3
Atom  29H    basis set group =>   3
Atom  30H    basis set group =>   3
Atom  31H    basis set group =>   3
Atom  32H    basis set group =>   3
Atom  33H    basis set group =>   3
Atom  34H    basis set group =>   3
Atom  35H    basis set group =>   3
Atom  36H    basis set group =>   3
Atom  37H    basis set group =>   3
Atom  38H    basis set group =>   3
Atom  39H    basis set group =>   3
Atom  40H    basis set group =>   3
Atom  41H    basis set group =>   3
Atom  42H    basis set group =>   3
Atom  43O    basis set group =>   2
Atom  44H    basis set group =>   3
---------------------------------
AUXILIARY/J BASIS SET INFORMATION
---------------------------------
There are 4 groups of distinct atoms

 Group   1 Type C   : 12s5p4d2f1g contracted to 6s4p3d1f1g pattern {711111/2111/211/2/1}
 Group   2 Type O   : 12s5p4d2f1g contracted to 6s4p3d1f1g pattern {711111/2111/211/2/1}
 Group   3 Type H   : 5s2p1d contracted to 3s1p1d pattern {311/2/1}
 Group   4 Type N   : 12s5p4d2f1g contracted to 6s4p3d1f1g pattern {711111/2111/211/2/1}

Atom   0C    basis set group =>   1
Atom   1C    basis set group =>   1
Atom   2O    basis set group =>   2
Atom   3O    basis set group =>   2
Atom   4C    basis set group =>   1
Atom   5H    basis set group =>   3
Atom   6H    basis set group =>   3
Atom   7H    basis set group =>   3
Atom   8C    basis set group =>   1
Atom   9C    basis set group =>   1
Atom  10C    basis set group =>   1
Atom  11C    basis set group =>   1
Atom  12C    basis set group =>   1
Atom  13C    basis set group =>   1
Atom  14C    basis set group =>   1
Atom  15C    basis set group =>   1
Atom  16C    basis set group =>   1
Atom  17C    basis set group =>   1
Atom  18C    basis set group =>   1
Atom  19C    basis set group =>   1
Atom  20C    basis set group =>   1
Atom  21C    basis set group =>   1
Atom  22O    basis set group =>   2
Atom  23C    basis set group =>   1
Atom  24O    basis set group =>   2
Atom  25C    basis set group =>   1
Atom  26N    basis set group =>   4
Atom  27O    basis set group =>   2
Atom  28H    basis set group =>   3
Atom  29H    basis set group =>   3
Atom  30H    basis set group =>   3
Atom  31H    basis set group =>   3
Atom  32H    basis set group =>   3
Atom  33H    basis set group =>   3
Atom  34H    basis set group =>   3
Atom  35H    basis set group =>   3
Atom  36H    basis set group =>   3
Atom  37H    basis set group =>   3
Atom  38H    basis set group =>   3
Atom  39H    basis set group =>   3
Atom  40H    basis set group =>   3
Atom  41H    basis set group =>   3
Atom  42H    basis set group =>   3
Atom  43O    basis set group =>   2
Atom  44H    basis set group =>   3


           ************************************************************
           *        Program running with 24 parallel MPI-processes    *
           *              working on a common directory               *
           ************************************************************
------------------------------------------------------------------------------
                           ORCA GTO INTEGRAL CALCULATION
                           -- RI-GTO INTEGRALS CHOSEN --
------------------------------------------------------------------------------
------------------------------------------------------------------------------
                   ___                                                        
                  /   \      - P O W E R E D   B Y -                         
                 /     \                                                     
                 |  |  |   _    _      __       _____    __    __             
                 |  |  |  | |  | |    /  \     |  _  \  |  |  /  |          
                  \  \/   | |  | |   /    \    | | | |  |  | /  /          
                 / \  \   | |__| |  /  /\  \   | |_| |  |  |/  /          
                |  |  |   |  __  | /  /__\  \  |    /   |      \           
                |  |  |   | |  | | |   __   |  |    \   |  |\   \          
                \     /   | |  | | |  |  |  |  | |\  \  |  | \   \       
                 \___/    |_|  |_| |__|  |__|  |_| \__\ |__|  \__/        
                                                                              
                      - O R C A' S   B I G   F R I E N D -                    
                                      &                                       
                       - I N T E G R A L  F E E D E R -                       
                                                                              
 v1 FN, 2020, v2 2021                                                         
------------------------------------------------------------------------------


Reading SHARK input file 4_4-OMePh_free/4_4-OMePh_free.SHARKINP.tmp ... ok
----------------------
SHARK INTEGRAL PACKAGE
----------------------

Number of atoms                             ...     45
Number of basis functions                   ...    920
Number of shells                            ...    362
Maximum angular momentum                    ...      3
Integral batch strategy                     ... SHARK/LIBINT Hybrid
RI-J (if used) integral strategy            ... SPLIT-RIJ (Revised 2003 algorithm where possible)
Printlevel                                  ...      1
Contraction scheme used                     ... SEGMENTED contraction
Coulomb Range Separation                    ... NOT USED
Exchange Range Separation                   ... NOT USED
Finite Nucleus Model                        ... NOT USED
Auxiliary Coulomb fitting basis             ... AVAILABLE
   # of basis functions in Aux-J            ...   1483
   # of shells in Aux-J                     ...    485
   Maximum angular momentum in Aux-J        ...      4
Auxiliary J/K fitting basis                 ... NOT available
Auxiliary Correlation fitting basis         ... NOT available
Auxiliary 'external' fitting basis          ... NOT available
Integral threshold                          ...     2.500000e-11
Primitive cut-off                           ...     2.500000e-12
Primitive pair pre-selection threshold      ...     2.500000e-12

Calculating pre-screening integrals         ... done (  0.1 sec) Dimension = 362
Organizing shell pair data                  ... done (  0.5 sec)
Shell pair information
Total number of shell pairs                 ...     65703
Shell pairs after pre-screening             ...     43601
Total number of primitive shell pairs       ...    201924
Primitive shell pairs kept                  ...     87412
          la=0 lb=0:  11220 shell pairs
          la=1 lb=0:  12631 shell pairs
          la=1 lb=1:   3560 shell pairs
          la=2 lb=0:   6166 shell pairs
          la=2 lb=1:   3547 shell pairs
          la=2 lb=2:    903 shell pairs
          la=3 lb=0:   2891 shell pairs
          la=3 lb=1:   1683 shell pairs
          la=3 lb=2:    796 shell pairs
          la=3 lb=3:    204 shell pairs

Calculating one electron integrals          ... done (  0.1 sec)
Calculating RI/J V-Matrix + Cholesky decomp.... done (  0.3 sec)
Calculating Nuclear repulsion               ... done (  0.0 sec) ENN=   2388.408015955990 Eh

SHARK setup successfully completed in   1.8 seconds

Maximum memory used throughout the entire GTOINT-calculation: 66.8 MB


           ************************************************************
           *        Program running with 24 parallel MPI-processes    *
           *              working on a common directory               *
           ************************************************************
-------------------------------------------------------------------------------
                                 ORCA SCF
-------------------------------------------------------------------------------

------------
SCF SETTINGS
------------
Hamiltonian:
 Density Functional     Method          .... DFT(GTOs)
 Exchange Functional    Exchange        .... PBE
   PBE kappa parameter   XKappa         ....  0.804000
   PBE mue parameter    XMuePBE         ....  0.219520
 Correlation Functional Correlation     .... PBE
   PBE beta parameter  CBetaPBE         ....  0.066725
 LDA part of GGA corr.  LDAOpt          .... PW91-LDA
 Gradients option       PostSCFGGA      .... off
 Hybrid DFT is turned on
   Fraction HF Exchange ScalHFX         ....  0.250000
   Scaling of DF-GGA-X  ScalDFX         ....  0.750000
   Scaling of DF-GGA-C  ScalDFC         ....  1.000000
   Scaling of DF-LDA-C  ScalLDAC        ....  1.000000
   Perturbative correction              ....  0.000000
   Density functional embedding theory  .... OFF
   NL short-range parameter             ....  6.900000
 RI-approximation to the Coulomb term is turned on
   Number of AuxJ basis functions       .... 1483
   RIJ-COSX (HFX calculated with COS-X)).... on


General Settings:
 Integral files         IntName         .... 4_4-OMePh_free/4_4-OMePh_free
 Hartree-Fock type      HFTyp           .... RHF
 Total Charge           Charge          ....    0
 Multiplicity           Mult            ....    1
 Number of Electrons    NEL             ....  188
 Basis Dimension        Dim             ....  920
 Nuclear Repulsion      ENuc            ....   2388.4080159560 Eh

Convergence Acceleration:
 DIIS                   CNVDIIS         .... on
   Start iteration      DIISMaxIt       ....    12
   Startup error        DIISStart       ....  0.200000
   # of expansion vecs  DIISMaxEq       ....     5
   Bias factor          DIISBfac        ....   1.050
   Max. coefficient     DIISMaxC        ....  10.000
 Trust-Rad. Augm. Hess. CNVTRAH         .... auto
   Auto Start mean grad. ratio tolernc. ....  1.125000
   Auto Start start iteration           ....    20
   Auto Start num. interpolation iter.  ....    10
   Max. Number of Micro iterations      ....    16
   Max. Number of Macro iterations      .... Maxiter - #DIIS iter
   Number of Davidson start vectors     ....     2
   Converg. threshold I  (grad. norm)   ....   1.000e-05
   Converg. threshold II (energy diff.) ....   1.000e-08
   Grad. Scal. Fac. for Micro threshold ....   0.100
   Minimum threshold for Micro iter.    ....   0.010
   NR start threshold (gradient norm)   ....   0.001
   Initial trust radius                 ....   0.400
   Minimum AH scaling param. (alpha)    ....   1.000
   Maximum AH scaling param. (alpha)    .... 1000.000
   Orbital update algorithm             .... Taylor
   White noise on init. David. guess    .... on
   Maximum white noise                  ....   0.010
   Quad. conv. algorithm                .... NR
 SOSCF                  CNVSOSCF        .... on
   Start iteration      SOSCFMaxIt      ....   150
   Startup grad/error   SOSCFStart      ....  0.003300
 Level Shifting         CNVShift        .... on
   Level shift para.    LevelShift      ....    0.2500
   Turn off err/grad.   ShiftErr        ....    0.0010
 Zerner damping         CNVZerner       .... off
 Static damping         CNVDamp         .... on
   Fraction old density DampFac         ....    0.7000
   Max. Damping (<1)    DampMax         ....    0.9800
   Min. Damping (>=0)   DampMin         ....    0.0000
   Turn off err/grad.   DampErr         ....    0.1000
 Fernandez-Rico         CNVRico         .... off

SCF Procedure:
 Maximum # iterations   MaxIter         ....   800
 SCF integral mode      SCFMode         .... Direct
   Integral package                     .... SHARK and LIBINT hybrid scheme
 Reset frequency        DirectResetFreq ....    20
 Integral Threshold     Thresh          ....  2.500e-11 Eh
 Primitive CutOff       TCut            ....  2.500e-12 Eh

Convergence Tolerance:
 Convergence Check Mode ConvCheckMode   .... Total+1el-Energy
 Convergence forced     ConvForced      .... 0
 Energy Change          TolE            ....  1.000e-08 Eh
 1-El. energy change                    ....  1.000e-05 Eh
 Orbital Gradient       TolG            ....  1.000e-05
 Orbital Rotation angle TolX            ....  1.000e-05
 DIIS Error             TolErr          ....  5.000e-07


Diagonalization of the overlap matrix:
Smallest eigenvalue                        ... 5.960e-06
Time for diagonalization                   ...    0.276 sec
Threshold for overlap eigenvalues          ... 1.000e-08
Number of eigenvalues below threshold      ... 0
Time for construction of square roots      ...    0.147 sec
Total time needed                          ...    0.429 sec

Time for model grid setup =    0.478 sec

------------------------------
INITIAL GUESS: MODEL POTENTIAL
------------------------------
Loading Hartree-Fock densities                     ... done
Calculating cut-offs                               ... done
Initializing the effective Hamiltonian             ... done
Setting up the integral package (SHARK)            ... done
Starting the Coulomb interaction                   ... done (   0.5 sec)
Reading the grid                                   ... done
Mapping shells                                     ... done
Starting the XC term evaluation                    ... done (   0.2 sec)
  promolecular density results
     # of electrons  =    188.000292136
     EX              =   -158.384887120
     EC              =     -6.368982433
     EX+EC           =   -164.753869553
Transforming the Hamiltonian                       ... done (   0.1 sec)
Diagonalizing the Hamiltonian                      ... done (   0.3 sec)
Back transforming the eigenvectors                 ... done (   0.1 sec)
Now organizing SCF variables                       ... done
                      ------------------
                      INITIAL GUESS DONE (   1.9 sec)
                      ------------------
-------------------
DFT GRID GENERATION
-------------------

General Integration Accuracy     IntAcc      ... 4.388
Radial Grid Type                 RadialGrid  ... OptM3 with GC (2021)
Angular Grid (max. ang.)         AngularGrid ... 4 (Lebedev-302)
Angular grid pruning method      GridPruning ... 4 (adaptive)
Weight generation scheme         WeightScheme... Becke
Basis function cutoff            BFCut       ... 1.0000e-11
Integration weight cutoff        WCut        ... 1.0000e-14
Angular grids for H and He will be reduced by one unit
Partially contracted basis set               ... off
Rotationally invariant grid construction     ... off

Total number of grid points                  ...   216077
Total number of batches                      ...     3400
Average number of points per batch           ...       63
Average number of grid points per atom       ...     4802
Time for grid setup =    1.472 sec

--------------------
COSX GRID GENERATION
--------------------

GRIDX 1
-------
General Integration Accuracy     IntAcc      ... 3.816
Radial Grid Type                 RadialGrid  ... OptM3 with GC (2021)
Angular Grid (max. ang.)         AngularGrid ... 1 (Lebedev-50)
Angular grid pruning method      GridPruning ... 4 (adaptive)
Weight generation scheme         WeightScheme... Becke
Basis function cutoff            BFCut       ... 1.0000e-11
Integration weight cutoff        WCut        ... 1.0000e-14
Angular grids for H and He will be reduced by one unit
Partially contracted basis set               ... on
Rotationally invariant grid construction     ... off

Total number of grid points                  ...    27406
Total number of batches                      ...      449
Average number of points per batch           ...       61
Average number of grid points per atom       ...      609
UseSFitting                                  ... on

GRIDX 2
-------
General Integration Accuracy     IntAcc      ... 4.020
Radial Grid Type                 RadialGrid  ... OptM3 with GC (2021)
Angular Grid (max. ang.)         AngularGrid ... 2 (Lebedev-110)
Angular grid pruning method      GridPruning ... 4 (adaptive)
Weight generation scheme         WeightScheme... Becke
Basis function cutoff            BFCut       ... 1.0000e-11
Integration weight cutoff        WCut        ... 1.0000e-14
Angular grids for H and He will be reduced by one unit
Partially contracted basis set               ... on
Rotationally invariant grid construction     ... off

Total number of grid points                  ...    59585
Total number of batches                      ...      952
Average number of points per batch           ...       62
Average number of grid points per atom       ...     1324
UseSFitting                                  ... on

GRIDX 3
-------
General Integration Accuracy     IntAcc      ... 4.338
Radial Grid Type                 RadialGrid  ... OptM3 with GC (2021)
Angular Grid (max. ang.)         AngularGrid ... 3 (Lebedev-194)
Angular grid pruning method      GridPruning ... 4 (adaptive)
Weight generation scheme         WeightScheme... Becke
Basis function cutoff            BFCut       ... 1.0000e-11
Integration weight cutoff        WCut        ... 1.0000e-14
Angular grids for H and He will be reduced by one unit
Partially contracted basis set               ... on
Rotationally invariant grid construction     ... off

Total number of grid points                  ...   130215
Total number of batches                      ...     2057
Average number of points per batch           ...       63
Average number of grid points per atom       ...     2894
UseSFitting                                  ... on

Time for X-Grid setup             =    2.597 sec


--------------------
CPCM SOLVATION MODEL
--------------------
CPCM parameters:
  Epsilon                                         ...      47.2000
  Refrac                                          ...       1.4790
  Rsolv                                           ...       1.3000
  Surface type                                    ... GAUSSIAN VDW
  Epsilon function type                           ...         CPCM
Radii:
 Radius for C  used is    3.8550 Bohr (=   2.0400 Ang.)
 Radius for O  used is    3.4469 Bohr (=   1.8240 Ang.)
 Radius for H  used is    2.4944 Bohr (=   1.3200 Ang.)
 Radius for N  used is    3.5149 Bohr (=   1.8600 Ang.)
Calculating surface                               ...        done! (  0.0s)
GEPOL surface points                              ...         2322
GEPOL Volume                                      ...    2744.4931
GEPOL Surface-area                                ...    1398.4093
Calculating surface distance matrix               ...        done! (  0.1s)
Performing Cholesky decomposition & store         ...        done! (  0.3s)
Overall time for CPCM initialization              ...                 0.5s
--------------
SCF ITERATIONS
--------------
ITER       Energy         Delta-E        Max-DP      RMS-DP      [F,P]     Damp
               ***  Starting incremental Fock matrix formation  ***
  0  -1239.9895784121   0.000000000000 0.35848846  0.00095325  0.2704211 0.7000
  1  -1240.2352043548  -0.245625942685 0.32152694  0.00089049  0.1070429 0.7000
                               ***Turning on DIIS***
  2  -1240.3361051525  -0.100900797706 0.48565275  0.00165170  0.0308171 0.0000
  3  -1240.5013264400  -0.165221287421 0.21551229  0.00060536  0.0512092 0.0000
  4  -1240.5313661666  -0.030039726618 0.03430290  0.00020221  0.0160208 0.0000
  5  -1240.5333158326  -0.001949665984 0.02559372  0.00008641  0.0070172 0.0000
                      *** Initiating the SOSCF procedure ***
                           *** Shutting down DIIS ***
                      *** Re-Reading the Fockian *** 
                      *** Removing any level shift *** 
ITER      Energy       Delta-E        Grad      Rot      Max-DP    RMS-DP
  6  -1240.53349030  -0.0001744670  0.000423  0.000423  0.002973  0.000021
               *** Restarting incremental Fock matrix formation ***
  7  -1240.53346908   0.0000212221  0.000340  0.001452  0.003407  0.000041
  8  -1240.53346738   0.0000016945  0.000356  0.000623  0.003356  0.000012
  9  -1240.53347261  -0.0000052239  0.000061  0.000176  0.000775  0.000009
 10  -1240.53347237   0.0000002386  0.000061  0.000076  0.000940  0.000002
 11  -1240.53347279  -0.0000004216  0.000005  0.000016  0.000198  0.000002
 12  -1240.53347280  -0.0000000100  0.000005  0.000009  0.000157  0.000001
                  ***Gradient check signals convergence***
              ***Rediagonalizing the Fockian in SOSCF/NRSCF***

               *****************************************************
               *                     SUCCESS                       *
               *           SCF CONVERGED AFTER  13 CYCLES          *
               *****************************************************

Old exchange energy                            =    -40.341437222 Eh
New exchange energy                            =    -40.341479288 Eh
Exchange energy change after final integration =     -0.000042066 Eh
Total energy after final integration           =  -1240.533514804 Eh
Final COS-X integration done in                =    19.816 sec

----------------
TOTAL SCF ENERGY
----------------

Total Energy       :        -1240.53351480 Eh          -33756.63309 eV

Components:
Nuclear Repulsion  :         2388.40801596 Eh           64991.88624 eV
Electronic Energy  :        -3628.94153076 Eh          -98748.51933 eV
One Electron Energy:        -6441.15246900 Eh         -175272.66937 eV
Two Electron Energy:         2812.21093824 Eh           76524.15004 eV
Max COSX asymmetry :            0.00000306 Eh               0.00008 eV
CPCM Dielectric    :           -0.03079874 Eh              -0.83808 eV

Virial components:
Potential Energy   :        -2475.67388678 Eh          -67366.51131 eV
Kinetic Energy     :         1235.14037198 Eh           33609.87821 eV
Virial Ratio       :            2.00436642


DFT components:
N(Alpha)           :       93.999984650225 electrons
N(Beta)            :       93.999984650225 electrons
N(Total)           :      187.999969300450 electrons
E(X)               :     -120.817526026994 Eh       
E(C)               :       -6.363113022835 Eh       
E(XC)              :     -127.180639049830 Eh       
DFET-embed. en.    :        0.000000000000 Eh       
CPCM Solvation Model Properties:
Surface-charge          :           -0.03217291
Charge-correction       :           -0.00022249 Eh              -0.00605 eV
Free-energy (cav+disp)  :  This term is not implemented in the current solvation scheme

---------------
SCF CONVERGENCE
---------------

  Last Energy change         ...    6.1814e-08  Tolerance :   1.0000e-08
  Last MAX-Density change    ...    2.1094e-15  Tolerance :   1.0000e-07
  Last RMS-Density change    ...    1.4583e-17  Tolerance :   5.0000e-09
  Last Orbital Gradient      ...    1.5563e-06  Tolerance :   1.0000e-05
  Last Orbital Rotation      ...    3.7622e-06  Tolerance :   1.0000e-05

             **** THE GBW FILE WAS UPDATED (4_4-OMePh_free/4_4-OMePh_free.gbw) ****
             **** DENSITY 4_4-OMePh_free/4_4-OMePh_free.scfp WAS UPDATED ****
             **** ENERGY FILE WAS UPDATED (4_4-OMePh_free/4_4-OMePh_free.en.tmp) ****
             **** THE GBW FILE WAS UPDATED (4_4-OMePh_free/4_4-OMePh_free.gbw) ****
             **** DENSITY 4_4-OMePh_free/4_4-OMePh_free.scfp WAS UPDATED ****
----------------
ORBITAL ENERGIES
----------------

  NO   OCC          E(Eh)            E(eV) 
   0   2.0000     -19.280168      -524.6401 
   1   2.0000     -19.271400      -524.4015 
   2   2.0000     -19.248488      -523.7780 
   3   2.0000     -19.247426      -523.7491 
   4   2.0000     -19.217989      -522.9481 
   5   2.0000     -19.208716      -522.6957 
   6   2.0000     -14.579900      -396.7393 
   7   2.0000     -10.364123      -282.0221 
   8   2.0000     -10.311132      -280.5802 
   9   2.0000     -10.295087      -280.1435 
  10   2.0000     -10.293119      -280.0900 
  11   2.0000     -10.289413      -279.9892 
  12   2.0000     -10.273317      -279.5512 
  13   2.0000     -10.268452      -279.4188 
  14   2.0000     -10.267227      -279.3855 
  15   2.0000     -10.267221      -279.3853 
  16   2.0000     -10.250683      -278.9353 
  17   2.0000     -10.242446      -278.7111 
  18   2.0000     -10.239299      -278.6255 
  19   2.0000     -10.235275      -278.5160 
  20   2.0000     -10.232220      -278.4329 
  21   2.0000     -10.230981      -278.3992 
  22   2.0000     -10.230442      -278.3845 
  23   2.0000     -10.228507      -278.3318 
  24   2.0000     -10.227372      -278.3009 
  25   2.0000     -10.222884      -278.1788 
  26   2.0000      -1.227581       -33.4042 
  27   2.0000      -1.161266       -31.5996 
  28   2.0000      -1.110475       -30.2176 
  29   2.0000      -1.110098       -30.2073 
  30   2.0000      -1.095507       -29.8103 
  31   2.0000      -1.067445       -29.0466 
  32   2.0000      -0.929284       -25.2871 
  33   2.0000      -0.893962       -24.3259 
  34   2.0000      -0.884702       -24.0740 
  35   2.0000      -0.840781       -22.8788 
  36   2.0000      -0.797034       -21.6884 
  37   2.0000      -0.792344       -21.5608 
  38   2.0000      -0.782534       -21.2938 
  39   2.0000      -0.779567       -21.2131 
  40   2.0000      -0.756238       -20.5783 
  41   2.0000      -0.730376       -19.8745 
  42   2.0000      -0.722116       -19.6498 
  43   2.0000      -0.700725       -19.0677 
  44   2.0000      -0.654747       -17.8166 
  45   2.0000      -0.641307       -17.4509 
  46   2.0000      -0.627133       -17.0651 
  47   2.0000      -0.623370       -16.9628 
  48   2.0000      -0.613108       -16.6835 
  49   2.0000      -0.594991       -16.1905 
  50   2.0000      -0.572383       -15.5753 
  51   2.0000      -0.568530       -15.4705 
  52   2.0000      -0.552324       -15.0295 
  53   2.0000      -0.546329       -14.8664 
  54   2.0000      -0.539747       -14.6873 
  55   2.0000      -0.520834       -14.1726 
  56   2.0000      -0.515775       -14.0350 
  57   2.0000      -0.511629       -13.9221 
  58   2.0000      -0.508904       -13.8480 
  59   2.0000      -0.503262       -13.6945 
  60   2.0000      -0.495673       -13.4880 
  61   2.0000      -0.490235       -13.3400 
  62   2.0000      -0.488418       -13.2905 
  63   2.0000      -0.473691       -12.8898 
  64   2.0000      -0.464384       -12.6365 
  65   2.0000      -0.459285       -12.4978 
  66   2.0000      -0.458052       -12.4642 
  67   2.0000      -0.448544       -12.2055 
  68   2.0000      -0.444467       -12.0946 
  69   2.0000      -0.437216       -11.8973 
  70   2.0000      -0.432466       -11.7680 
  71   2.0000      -0.427832       -11.6419 
  72   2.0000      -0.420173       -11.4335 
  73   2.0000      -0.407248       -11.0818 
  74   2.0000      -0.404605       -11.0099 
  75   2.0000      -0.397387       -10.8135 
  76   2.0000      -0.387163       -10.5352 
  77   2.0000      -0.384396       -10.4600 
  78   2.0000      -0.382088       -10.3972 
  79   2.0000      -0.380926       -10.3655 
  80   2.0000      -0.369580       -10.0568 
  81   2.0000      -0.360042        -9.7972 
  82   2.0000      -0.354008        -9.6330 
  83   2.0000      -0.346942        -9.4408 
  84   2.0000      -0.345183        -9.3929 
  85   2.0000      -0.344001        -9.3607 
  86   2.0000      -0.336217        -9.1489 
  87   2.0000      -0.310869        -8.4592 
  88   2.0000      -0.305169        -8.3041 
  89   2.0000      -0.283176        -7.7056 
  90   2.0000      -0.280719        -7.6388 
  91   2.0000      -0.269701        -7.3389 
  92   2.0000      -0.242328        -6.5941 
  93   2.0000      -0.222098        -6.0436 
  94   0.0000      -0.049200        -1.3388 
  95   0.0000      -0.022163        -0.6031 
  96   0.0000      -0.014914        -0.4058 
  97   0.0000      -0.003359        -0.0914 
  98   0.0000       0.003642         0.0991 
  99   0.0000       0.040198         1.0938 
 100   0.0000       0.046686         1.2704 
 101   0.0000       0.057841         1.5739 
 102   0.0000       0.063487         1.7276 
 103   0.0000       0.065215         1.7746 
 104   0.0000       0.071935         1.9574 
 105   0.0000       0.077904         2.1199 
 106   0.0000       0.079365         2.1596 
 107   0.0000       0.087232         2.3737 
 108   0.0000       0.089197         2.4272 
 109   0.0000       0.092896         2.5278 
 110   0.0000       0.101521         2.7625 
 111   0.0000       0.106461         2.8969 
 112   0.0000       0.114203         3.1076 
 113   0.0000       0.119140         3.2420 
 114   0.0000       0.121756         3.3132 
 115   0.0000       0.128224         3.4891 
 116   0.0000       0.133663         3.6372 
 117   0.0000       0.134455         3.6587 
 118   0.0000       0.135169         3.6781 
 119   0.0000       0.137866         3.7515 
 120   0.0000       0.140625         3.8266 
 121   0.0000       0.143246         3.8979 
 122   0.0000       0.144668         3.9366 
 123   0.0000       0.150874         4.1055 
 124   0.0000       0.154833         4.2132 
 125   0.0000       0.156580         4.2608 
 126   0.0000       0.163157         4.4397 
 127   0.0000       0.167204         4.5498 
 128   0.0000       0.179597         4.8871 
 129   0.0000       0.189744         5.1632 
 130   0.0000       0.194528         5.2934 
 131   0.0000       0.199023         5.4157 
 132   0.0000       0.206370         5.6156 
 133   0.0000       0.209968         5.7135 
 134   0.0000       0.212396         5.7796 
 135   0.0000       0.215773         5.8715 
 136   0.0000       0.219176         5.9641 
 137   0.0000       0.222166         6.0454 
 138   0.0000       0.226879         6.1737 
 139   0.0000       0.229411         6.2426 
 140   0.0000       0.231889         6.3100 
 141   0.0000       0.235266         6.4019 
 142   0.0000       0.239165         6.5080 
 143   0.0000       0.244193         6.6448 
 144   0.0000       0.246166         6.6985 
 145   0.0000       0.250156         6.8071 
 146   0.0000       0.252903         6.8818 
 147   0.0000       0.260779         7.0962 
 148   0.0000       0.262279         7.1370 
 149   0.0000       0.265461         7.2236 
 150   0.0000       0.271145         7.3782 
 151   0.0000       0.278241         7.5713 
 152   0.0000       0.283710         7.7201 
 153   0.0000       0.292468         7.9585 
 154   0.0000       0.293943         7.9986 
 155   0.0000       0.295119         8.0306 
 156   0.0000       0.297521         8.0960 
 157   0.0000       0.302648         8.2355 
 158   0.0000       0.307829         8.3765 
 159   0.0000       0.309632         8.4255 
 160   0.0000       0.320502         8.7213 
 161   0.0000       0.322060         8.7637 
 162   0.0000       0.327956         8.9241 
 163   0.0000       0.330938         9.0053 
 164   0.0000       0.336028         9.1438 
 165   0.0000       0.340658         9.2698 
 166   0.0000       0.344025         9.3614 
 167   0.0000       0.348732         9.4895 
 168   0.0000       0.351601         9.5675 
 169   0.0000       0.357591         9.7306 
 170   0.0000       0.361594         9.8395 
 171   0.0000       0.365460         9.9447 
 172   0.0000       0.368263        10.0209 
 173   0.0000       0.373213        10.1556 
 174   0.0000       0.376117        10.2347 
 175   0.0000       0.377855        10.2820 
 176   0.0000       0.384702        10.4683 
 177   0.0000       0.388498        10.5716 
 178   0.0000       0.389864        10.6087 
 179   0.0000       0.396631        10.7929 
 180   0.0000       0.397268        10.8102 
 181   0.0000       0.398409        10.8413 
 182   0.0000       0.406380        11.0581 
 183   0.0000       0.409256        11.1364 
 184   0.0000       0.412021        11.2117 
 185   0.0000       0.416555        11.3351 
 186   0.0000       0.422202        11.4887 
 187   0.0000       0.424645        11.5552 
 188   0.0000       0.428541        11.6612 
 189   0.0000       0.431466        11.7408 
 190   0.0000       0.436901        11.8887 
 191   0.0000       0.438714        11.9380 
 192   0.0000       0.443531        12.0691 
 193   0.0000       0.449722        12.2375 
 194   0.0000       0.451545        12.2872 
 195   0.0000       0.455634        12.3984 
 196   0.0000       0.461628        12.5615 
 197   0.0000       0.464028        12.6268 
 198   0.0000       0.467369        12.7177 
 199   0.0000       0.468723        12.7546 
 200   0.0000       0.471321        12.8253 
 201   0.0000       0.475126        12.9288 
 202   0.0000       0.477856        13.0031 
 203   0.0000       0.480912        13.0863 
 204   0.0000       0.482790        13.1374 
 205   0.0000       0.487867        13.2755 
 206   0.0000       0.488550        13.2941 
 207   0.0000       0.490604        13.3500 
 208   0.0000       0.497848        13.5471 
 209   0.0000       0.500955        13.6317 
 210   0.0000       0.506916        13.7939 
 211   0.0000       0.508477        13.8364 
 212   0.0000       0.512730        13.9521 
 213   0.0000       0.515888        14.0380 
 214   0.0000       0.520272        14.1573 
 215   0.0000       0.522875        14.2282 
 216   0.0000       0.534348        14.5403 
 217   0.0000       0.542476        14.7615 
 218   0.0000       0.547309        14.8930 
 219   0.0000       0.551424        15.0050 
 220   0.0000       0.554410        15.0863 
 221   0.0000       0.563766        15.3408 
 222   0.0000       0.573975        15.6187 
 223   0.0000       0.578434        15.7400 
 224   0.0000       0.583874        15.8880 
 225   0.0000       0.592005        16.1093 
 226   0.0000       0.595260        16.1978 
 227   0.0000       0.604097        16.4383 
 228   0.0000       0.607694        16.5362 
 229   0.0000       0.612424        16.6649 
 230   0.0000       0.612855        16.6766 
 231   0.0000       0.622480        16.9386 
 232   0.0000       0.631218        17.1763 
 233   0.0000       0.634024        17.2527 
 234   0.0000       0.639591        17.4042 
 235   0.0000       0.645451        17.5636 
 236   0.0000       0.646877        17.6024 
 237   0.0000       0.651686        17.7333 
 238   0.0000       0.657916        17.9028 
 239   0.0000       0.667423        18.1615 
 240   0.0000       0.668104        18.1800 
 241   0.0000       0.671420        18.2703 
 242   0.0000       0.678224        18.4554 
 243   0.0000       0.682086        18.5605 
 244   0.0000       0.689903        18.7732 
 245   0.0000       0.692849        18.8534 
 246   0.0000       0.695068        18.9138 
 247   0.0000       0.700397        19.0588 
 248   0.0000       0.710567        19.3355 
 249   0.0000       0.711642        19.3648 
 250   0.0000       0.721725        19.6391 
 251   0.0000       0.723331        19.6828 
 252   0.0000       0.727803        19.8045 
 253   0.0000       0.733298        19.9541 
 254   0.0000       0.738720        20.1016 
 255   0.0000       0.740650        20.1541 
 256   0.0000       0.749648        20.3990 
 257   0.0000       0.752331        20.4720 
 258   0.0000       0.753160        20.4945 
 259   0.0000       0.761770        20.7288 
 260   0.0000       0.767183        20.8761 
 261   0.0000       0.774929        21.0869 
 262   0.0000       0.780366        21.2348 
 263   0.0000       0.789088        21.4722 
 264   0.0000       0.800013        21.7695 
 265   0.0000       0.804494        21.8914 
 266   0.0000       0.808583        22.0027 
 267   0.0000       0.813411        22.1340 
 268   0.0000       0.820216        22.3192 
 269   0.0000       0.823761        22.4157 
 270   0.0000       0.831745        22.6329 
 271   0.0000       0.842241        22.9185 
 272   0.0000       0.843298        22.9473 
 273   0.0000       0.847757        23.0686 
 274   0.0000       0.849955        23.1285 
 275   0.0000       0.853754        23.2318 
 276   0.0000       0.862912        23.4810 
 277   0.0000       0.869869        23.6703 
 278   0.0000       0.877809        23.8864 
 279   0.0000       0.879563        23.9341 
 280   0.0000       0.884380        24.0652 
 281   0.0000       0.895015        24.3546 
 282   0.0000       0.899315        24.4716 
 283   0.0000       0.902734        24.5646 
 284   0.0000       0.912040        24.8179 
 285   0.0000       0.918684        24.9987 
 286   0.0000       0.921324        25.0705 
 287   0.0000       0.930104        25.3094 
[...]
 28:    313.30   0.000629    3.18  0.000626  ( 0.022944  0.008863  0.004587)
 29:    337.75   0.005437   27.47  0.005023  (-0.040631  0.057978  0.003286)
 30:    346.58   0.001960    9.90  0.001764  (-0.031013 -0.027808  0.005422)
 31:    376.25   0.002771   14.00  0.002298  ( 0.039371  0.022918 -0.014931)
 32:    424.77   0.000257    1.30  0.000189  ( 0.009758 -0.006750  0.006941)
 33:    430.89   0.001671    8.45  0.001210  ( 0.030288 -0.010072  0.013844)
 34:    468.64   0.000135    0.68  0.000090  ( 0.003426  0.002129 -0.008567)
 35:    479.55   0.001995   10.08  0.001298  ( 0.027834  0.021109 -0.008813)
 36:    495.85   0.000914    4.62  0.000575  (-0.013954  0.017323  0.008953)
 37:    502.78   0.002398   12.12  0.001488  (-0.018348 -0.031948  0.011443)
 38:    538.46   0.009879   49.93  0.005726  (-0.038208  0.054224 -0.036406)
 39:    555.73   0.000781    3.95  0.000439  ( 0.001118 -0.020900  0.000830)
 40:    570.29   0.002288   11.56  0.001252  (-0.013234  0.030647 -0.011723)
 41:    586.36   0.000121    0.61  0.000064  (-0.001119 -0.003267  0.007230)
 42:    606.28   0.005786   29.24  0.002978  (-0.024073 -0.044936 -0.019485)
 43:    619.20   0.015555   78.61  0.007839  ( 0.071489  0.051601  0.008133)
 44:    649.94   0.004197   21.21  0.002015  ( 0.038227  0.022673 -0.006307)
 45:    665.57   0.003582   18.10  0.001679  ( 0.016086  0.037687  0.000660)
 46:    687.34   0.002388   12.07  0.001084  (-0.029824  0.013266  0.004307)
 47:    723.04   0.002112   10.68  0.000912  (-0.011679 -0.017665 -0.021524)
 48:    750.89   0.000472    2.38  0.000196  (-0.011015 -0.006897  0.005207)
 49:    767.44   0.013252   66.97  0.005389  (-0.047865 -0.043666  0.034507)
 50:    773.96   0.015491   78.29  0.006246  (-0.063583 -0.042102  0.020756)
 51:    783.90   0.002412   12.19  0.000960  ( 0.015826  0.006173 -0.025917)
 52:    808.76   0.004561   23.05  0.001760  ( 0.028753  0.019248  0.023718)
 53:    820.55   0.008875   44.85  0.003375  (-0.048692  0.007580 -0.030773)
 54:    826.74   0.001343    6.79  0.000507  (-0.015065  0.012912 -0.010644)
 55:    845.86   0.010367   52.39  0.003825  (-0.053998  0.018411 -0.023878)
 56:    861.21   0.015063   76.12  0.005458  (-0.022741  0.062574 -0.032025)
 57:    870.60   0.032603  164.76  0.011686  ( 0.063000  0.069398  0.053864)
 58:    875.04   0.007831   39.57  0.002793  ( 0.029159  0.034268  0.027714)
 59:    909.18   0.019247   97.27  0.006606  ( 0.074320  0.031241 -0.010341)
 60:    930.79   0.003057   15.45  0.001025  ( 0.016224 -0.017258  0.021541)
 61:    963.50   0.000377    1.91  0.000122  ( 0.008627  0.006905 -0.000076)
 62:    969.90   0.000086    0.44  0.000028  ( 0.001320 -0.003995  0.003180)
 63:    977.94   0.000006    0.03  0.000002  ( 0.001157  0.000038  0.000716)
 64:    993.03   0.000009    0.05  0.000003  (-0.000412 -0.001261 -0.001102)
 65:   1014.82   0.002383   12.05  0.000733  ( 0.003778  0.019259  0.018648)
 66:   1028.12   0.000458    2.32  0.000139  ( 0.009110 -0.006074 -0.004390)
 67:   1060.68   0.017535   88.62  0.005159  (-0.052211  0.030180 -0.039015)
 68:   1070.91   0.009196   46.47  0.002680  (-0.006976  0.037504  0.034993)
 69:   1074.94   0.022002  111.19  0.006387  ( 0.043670 -0.014876 -0.065262)
 70:   1084.51   0.008251   41.69  0.002374  ( 0.017926 -0.003963  0.045133)
 71:   1096.57   0.022506  113.73  0.006405  ( 0.048256  0.044722  0.045563)
 72:   1100.07   0.008705   43.99  0.002469  ( 0.041084  0.015522 -0.023250)
 73:   1137.66   0.002792   14.11  0.000766  ( 0.002004  0.003370  0.027394)
 74:   1139.25   0.016156   81.65  0.004426  (-0.004030 -0.037777 -0.054609)
 75:   1170.84   0.000157    0.80  0.000042  (-0.002798  0.004461 -0.003773)
 76:   1171.13   0.000311    1.57  0.000083  (-0.006512 -0.002747  0.005745)
 77:   1171.41   0.000137    0.69  0.000037  ( 0.003905  0.004190 -0.001932)
 78:   1174.96   0.001862    9.41  0.000494  (-0.001210  0.015345  0.016046)
 79:   1195.30   0.004018   20.31  0.001049  ( 0.021424  0.023900 -0.004343)
 80:   1201.73   0.015546   78.57  0.004037  (-0.050866 -0.024145  0.029441)
 81:   1205.73   0.005793   29.28  0.001499  ( 0.028807  0.008140 -0.024561)
 82:   1208.71   0.000465    2.35  0.000120  ( 0.004282 -0.001714 -0.009944)
 83:   1214.80   0.001187    6.00  0.000305  (-0.007918 -0.010556 -0.011437)
 84:   1235.46   0.003828   19.35  0.000967  ( 0.015417 -0.007632  0.025904)
 85:   1261.41   0.014297   72.25  0.003537  (-0.037740  0.022374  0.040150)
 86:   1282.31   0.032736  165.43  0.007967  (-0.000157 -0.005388  0.089093)
 87:   1300.25   0.056499  285.52  0.013560  ( 0.062784  0.053948  0.081901)
 88:   1307.66   0.100733  509.06  0.024039  (-0.122329 -0.050392  0.080843)
 89:   1312.15   0.048286  244.02  0.011484  ( 0.098430 -0.035810  0.022646)
 90:   1320.26   0.051980  262.69  0.012286  (-0.053557  0.095695  0.016138)
 91:   1329.75   0.011748   59.37  0.002757  ( 0.043630 -0.028809  0.004859)
 92:   1341.30   0.007079   35.77  0.001647  ( 0.010157  0.033640  0.020302)
 93:   1361.05   0.017669   89.29  0.004051  (-0.029447  0.044671  0.034474)
 94:   1370.76   0.036276  183.32  0.008258  ( 0.066850 -0.001140 -0.061548)
 95:   1390.07   0.010711   54.13  0.002405  (-0.005014 -0.001498  0.048756)
 96:   1431.35   0.047814  241.63  0.010424  (-0.083745 -0.019908  0.054909)
 97:   1464.76   0.010505   53.09  0.002238  ( 0.031304  0.017338  0.030942)
 98:   1465.91   0.004881   24.66  0.001039  (-0.024408 -0.019836  0.007056)
 99:   1466.30   0.003375   17.06  0.000718  (-0.008691 -0.022663  0.011366)
100:   1469.21   0.011061   55.90  0.002349  (-0.034051  0.034232 -0.004254)
101:   1471.16   0.003167   16.00  0.000672  (-0.009329  0.012195  0.020880)
102:   1473.30   0.004028   20.36  0.000853  (-0.023292 -0.009825  0.014632)
103:   1474.38   0.003434   17.36  0.000727  (-0.022053 -0.012720  0.008876)
104:   1474.43   0.003453   17.45  0.000731  ( 0.008113 -0.018901  0.017543)
105:   1484.10   0.005109   25.82  0.001074  (-0.021410  0.004419 -0.024420)
106:   1486.64   0.005162   26.09  0.001084  (-0.024139 -0.019146  0.011593)
107:   1498.77   0.014709   74.33  0.003063  (-0.013886 -0.000511 -0.053568)
108:   1537.09   0.036493  184.42  0.007409  (-0.035203  0.010288 -0.077871)
109:   1561.09   0.039394  199.08  0.007875  ( 0.064174  0.061280 -0.001223)
110:   1623.47   0.008670   43.82  0.001667  ( 0.017300  0.032868  0.016943)
111:   1649.32   0.009911   50.08  0.001875  (-0.011174  0.016610  0.038398)
112:   1663.93   0.016413   82.94  0.003078  ( 0.018159 -0.008103  0.051796)
113:   1668.35   0.057410  290.13  0.010739  ( 0.084121  0.052695 -0.029756)
114:   1711.12   0.146242  739.05  0.026671  ( 0.101028 -0.029855 -0.124791)
115:   1790.83   0.091428  462.04  0.015932  ( 0.002301  0.048691  0.116429)
116:   3037.91   0.012203   61.67  0.001254  (-0.002008  0.019205  0.029676)
117:   3038.85   0.014408   72.81  0.001480  ( 0.027144  0.003831 -0.026983)
118:   3075.38   0.005261   26.59  0.000534  (-0.017795  0.011645 -0.009035)
119:   3109.53   0.007337   37.08  0.000736  (-0.020328 -0.016065  0.008061)
120:   3110.79   0.007349   37.14  0.000737  ( 0.016056 -0.016963  0.013846)
121:   3124.46   0.000605    3.06  0.000060  ( 0.001477  0.007206  0.002520)
122:   3129.00   0.000787    3.98  0.000078  ( 0.004575  0.002926  0.007001)
123:   3160.88   0.003202   16.18  0.000316  (-0.012071 -0.012628  0.003309)
124:   3166.85   0.003806   19.23  0.000375  (-0.011824  0.007932 -0.013127)
125:   3169.08   0.003888   19.65  0.000383  ( 0.012562  0.014630  0.003324)
126:   3189.07   0.000299    1.51  0.000029  (-0.000924  0.003620  0.003912)
127:   3194.22   0.001887    9.53  0.000184  (-0.005513  0.007334  0.010006)
128:   3196.80   0.001692    8.55  0.000165  ( 0.006677 -0.010389 -0.003552)
129:   3206.24   0.001457    7.36  0.000142  ( 0.006965  0.009157  0.003068)
130:   3211.25   0.000710    3.59  0.000069  (-0.004241 -0.006458 -0.003053)
131:   3214.42   0.002886   14.59  0.000280  (-0.009196  0.005533 -0.012846)
132:   3231.27   0.000370    1.87  0.000036  ( 0.000931 -0.004060 -0.004287)
133:   3234.41   0.000469    2.37  0.000045  (-0.005215 -0.002632  0.003338)
134:   3248.22   0.000956    4.83  0.000092  ( 0.007472  0.005346 -0.002733)

* The epsilon (eps) is given for a Dirac delta lineshape.
** The dipole moment derivative (T) already includes vibrational overlap.

The first frequency considered to be a vibration is 6
The total number of vibrations considered is 129


--------------------------
THERMOCHEMISTRY AT 298.15K
--------------------------

Temperature         ... 298.15 K
Pressure            ... 1.00 atm
Total Mass          ... 357.36 AMU

Throughout the following assumptions are being made:
  (1) The electronic state is orbitally nondegenerate
  (2) There are no thermally accessible electronically excited states
  (3) Hindered rotations indicated by low frequency modes are not
      treated as such but are treated as vibrations and this may
      cause some error
  (4) All equations used are the standard statistical mechanics
      equations for an ideal gas
  (5) All vibrations are strictly harmonic

freq.       5.10  E(vib)   ...       0.59 
freq.      15.39  E(vib)   ...       0.57 
freq.      25.69  E(vib)   ...       0.56 
freq.      37.32  E(vib)   ...       0.54 
freq.      46.14  E(vib)   ...       0.53 
freq.      62.05  E(vib)   ...       0.51 
freq.      87.40  E(vib)   ...       0.48 
freq.      95.09  E(vib)   ...       0.47 
freq.      98.77  E(vib)   ...       0.46 
freq.     114.66  E(vib)   ...       0.44 
freq.     131.88  E(vib)   ...       0.42 
freq.     144.44  E(vib)   ...       0.41 
freq.     153.72  E(vib)   ...       0.40 
freq.     163.63  E(vib)   ...       0.39 
freq.     181.12  E(vib)   ...       0.37 
freq.     208.38  E(vib)   ...       0.34 
freq.     236.56  E(vib)   ...       0.32 
freq.     237.98  E(vib)   ...       0.32 
freq.     248.98  E(vib)   ...       0.31 
freq.     252.07  E(vib)   ...       0.30 
freq.     290.63  E(vib)   ...       0.27 
freq.     300.58  E(vib)   ...       0.26 
freq.     313.30  E(vib)   ...       0.25 
freq.     337.75  E(vib)   ...       0.24 
freq.     346.58  E(vib)   ...       0.23 
freq.     376.25  E(vib)   ...       0.21 
freq.     424.77  E(vib)   ...       0.18 
freq.     430.89  E(vib)   ...       0.18 
freq.     468.64  E(vib)   ...       0.16 
freq.     479.55  E(vib)   ...       0.15 
freq.     495.85  E(vib)   ...       0.14 
freq.     502.78  E(vib)   ...       0.14 
freq.     538.46  E(vib)   ...       0.12 
freq.     555.73  E(vib)   ...       0.12 
freq.     570.29  E(vib)   ...       0.11 
freq.     586.36  E(vib)   ...       0.11 
freq.     606.28  E(vib)   ...       0.10 
freq.     619.20  E(vib)   ...       0.09 
freq.     649.94  E(vib)   ...       0.08 
freq.     665.57  E(vib)   ...       0.08 
freq.     687.34  E(vib)   ...       0.07 
freq.     723.04  E(vib)   ...       0.07 
freq.     750.89  E(vib)   ...       0.06 
freq.     767.44  E(vib)   ...       0.06 
freq.     773.96  E(vib)   ...       0.05 
freq.     783.90  E(vib)   ...       0.05 
freq.     808.76  E(vib)   ...       0.05 
freq.     820.55  E(vib)   ...       0.05 
freq.     826.74  E(vib)   ...       0.04 
freq.     845.86  E(vib)   ...       0.04 
freq.     861.21  E(vib)   ...       0.04 
freq.     870.60  E(vib)   ...       0.04 
freq.     875.04  E(vib)   ...       0.04 
freq.     909.18  E(vib)   ...       0.03 
freq.     930.79  E(vib)   ...       0.03 
freq.     963.50  E(vib)   ...       0.03 
freq.     969.90  E(vib)   ...       0.03 
freq.     977.94  E(vib)   ...       0.03 
freq.     993.03  E(vib)   ...       0.02 
freq.    1014.82  E(vib)   ...       0.02 
freq.    1028.12  E(vib)   ...       0.02 
freq.    1060.68  E(vib)   ...       0.02 
freq.    1070.91  E(vib)   ...       0.02 
freq.    1074.94  E(vib)   ...       0.02 
freq.    1084.51  E(vib)   ...       0.02 
freq.    1096.57  E(vib)   ...       0.02 
freq.    1100.07  E(vib)   ...       0.02 
freq.    1137.66  E(vib)   ...       0.01 
freq.    1139.25  E(vib)   ...       0.01 
freq.    1170.84  E(vib)   ...       0.01 
freq.    1171.13  E(vib)   ...       0.01 
freq.    1171.41  E(vib)   ...       0.01 
freq.    1174.96  E(vib)   ...       0.01 
freq.    1195.30  E(vib)   ...       0.01 
freq.    1201.73  E(vib)   ...       0.01 
freq.    1205.73  E(vib)   ...       0.01 
freq.    1208.71  E(vib)   ...       0.01 
freq.    1214.80  E(vib)   ...       0.01 
freq.    1235.46  E(vib)   ...       0.01 
freq.    1261.41  E(vib)   ...       0.01 
freq.    1282.31  E(vib)   ...       0.01 
freq.    1300.25  E(vib)   ...       0.01 
freq.    1307.66  E(vib)   ...       0.01 
freq.    1312.15  E(vib)   ...       0.01 
freq.    1320.26  E(vib)   ...       0.01 
freq.    1329.75  E(vib)   ...       0.01 
freq.    1341.30  E(vib)   ...       0.01 
freq.    1361.05  E(vib)   ...       0.01 
freq.    1370.76  E(vib)   ...       0.01 
freq.    1390.07  E(vib)   ...       0.00 
freq.    1431.35  E(vib)   ...       0.00 
freq.    1464.76  E(vib)   ...       0.00 
freq.    1465.91  E(vib)   ...       0.00 
freq.    1466.30  E(vib)   ...       0.00 
freq.    1469.21  E(vib)   ...       0.00 
freq.    1471.16  E(vib)   ...       0.00 
freq.    1473.30  E(vib)   ...       0.00 
freq.    1474.38  E(vib)   ...       0.00 
freq.    1474.43  E(vib)   ...       0.00 
freq.    1484.10  E(vib)   ...       0.00 
freq.    1486.64  E(vib)   ...       0.00 
freq.    1498.77  E(vib)   ...       0.00 
freq.    1537.09  E(vib)   ...       0.00 
freq.    1561.09  E(vib)   ...       0.00 
freq.    1623.47  E(vib)   ...       0.00 
freq.    1649.32  E(vib)   ...       0.00 
freq.    1663.93  E(vib)   ...       0.00 
freq.    1668.35  E(vib)   ...       0.00 
freq.    1711.12  E(vib)   ...       0.00 
freq.    1790.83  E(vib)   ...       0.00 
freq.    3037.91  E(vib)   ...       0.00 
freq.    3038.85  E(vib)   ...       0.00 
freq.    3075.38  E(vib)   ...       0.00 
freq.    3109.53  E(vib)   ...       0.00 
freq.    3110.79  E(vib)   ...       0.00 
freq.    3124.46  E(vib)   ...       0.00 
freq.    3129.00  E(vib)   ...       0.00 
freq.    3160.88  E(vib)   ...       0.00 
freq.    3166.85  E(vib)   ...       0.00 
freq.    3169.08  E(vib)   ...       0.00 
freq.    3189.07  E(vib)   ...       0.00 
freq.    3194.22  E(vib)   ...       0.00 
freq.    3196.80  E(vib)   ...       0.00 
freq.    3206.24  E(vib)   ...       0.00 
freq.    3211.25  E(vib)   ...       0.00 
freq.    3214.42  E(vib)   ...       0.00 
freq.    3231.27  E(vib)   ...       0.00 
freq.    3234.41  E(vib)   ...       0.00 
freq.    3248.22  E(vib)   ...       0.00 

------------
INNER ENERGY
------------

The inner energy is: U= E(el) + E(ZPE) + E(vib) + E(rot) + E(trans)
    E(el)   - is the total energy from the electronic structure calculation
              = E(kin-el) + E(nuc-el) + E(el-el) + E(nuc-nuc)
    E(ZPE)  - the the zero temperature vibrational energy from the frequency calculation
    E(vib)  - the the finite temperature correction to E(ZPE) due to population
              of excited vibrational states
    E(rot)  - is the rotational thermal energy
    E(trans)- is the translational thermal energy

Summary of contributions to the inner energy U:
Electronic energy                ...  -1240.58622656 Eh
Zero point energy                ...      0.35651989 Eh     223.72 kcal/mol
Thermal vibrational correction   ...      0.02097174 Eh      13.16 kcal/mol
Thermal rotational correction    ...      0.00141627 Eh       0.89 kcal/mol
Thermal translational correction ...      0.00141627 Eh       0.89 kcal/mol
-----------------------------------------------------------------------
Total thermal energy                  -1240.20590238 Eh


Summary of corrections to the electronic energy:
(perhaps to be used in another calculation)
Total thermal correction                  0.02380428 Eh      14.94 kcal/mol
Non-thermal (ZPE) correction              0.35651989 Eh     223.72 kcal/mol
-----------------------------------------------------------------------
Total correction                          0.38032417 Eh     238.66 kcal/mol


--------
ENTHALPY
--------

The enthalpy is H = U + kB*T
                kB is Boltzmann's constant
Total free energy                 ...  -1240.20590238 Eh 
Thermal Enthalpy correction       ...      0.00094421 Eh       0.59 kcal/mol
-----------------------------------------------------------------------
Total Enthalpy                    ...  -1240.20495817 Eh


Note: Only C1 symmetry has been detected, increase convergence thresholds 
      if your molecule has a higher symmetry. Symmetry factor of 1.0 is   
      used for the rotational entropy correction. 
 

Note: Rotational entropy computed according to Herzberg 
Infrared and Raman Spectra, Chapter V,1, Van Nostrand Reinhold, 1945 
Point Group:  C1, Symmetry Number:   1  
Rotational constants in cm-1:     0.007605     0.005255     0.004008 

Vibrational entropy computed according to the QRRHO of S. Grimme
Chem.Eur.J. 2012 18 9955


-------
ENTROPY
-------

The entropy contributions are T*S = T*(S(el)+S(vib)+S(rot)+S(trans))
     S(el)   - electronic entropy
     S(vib)  - vibrational entropy
     S(rot)  - rotational entropy
     S(trans)- translational entropy
The entropies will be listed as multiplied by the temperature to get
units of energy

Electronic entropy                ...      0.00000000 Eh      0.00 kcal/mol
Vibrational entropy               ...      0.03868212 Eh     24.27 kcal/mol
Rotational entropy                ...      0.01689764 Eh     10.60 kcal/mol
Translational entropy             ...      0.02067498 Eh     12.97 kcal/mol
-----------------------------------------------------------------------
Final entropy term                ...      0.07625474 Eh     47.85 kcal/mol

In case the symmetry of your molecule has not been determined correctly
or in case you have a reason to use a different symmetry number we print 
out the resulting rotational entropy values for sn=1,12 :
 --------------------------------------------------------
|  sn= 1 | S(rot)=       0.01689764 Eh     10.60 kcal/mol|
|  sn= 2 | S(rot)=       0.01624318 Eh     10.19 kcal/mol|
|  sn= 3 | S(rot)=       0.01586035 Eh      9.95 kcal/mol|
|  sn= 4 | S(rot)=       0.01558873 Eh      9.78 kcal/mol|
|  sn= 5 | S(rot)=       0.01537804 Eh      9.65 kcal/mol|
|  sn= 6 | S(rot)=       0.01520590 Eh      9.54 kcal/mol|
|  sn= 7 | S(rot)=       0.01506035 Eh      9.45 kcal/mol|
|  sn= 8 | S(rot)=       0.01493427 Eh      9.37 kcal/mol|
|  sn= 9 | S(rot)=       0.01482306 Eh      9.30 kcal/mol|
|  sn=10 | S(rot)=       0.01472358 Eh      9.24 kcal/mol|
|  sn=11 | S(rot)=       0.01463359 Eh      9.18 kcal/mol|
|  sn=12 | S(rot)=       0.01455144 Eh      9.13 kcal/mol|
 --------------------------------------------------------


-------------------
GIBBS FREE ENERGY
-------------------

The Gibbs free energy is G = H - T*S

Total enthalpy                    ...  -1240.20495817 Eh 
Total entropy correction          ...     -0.07625474 Eh    -47.85 kcal/mol
-----------------------------------------------------------------------
Final Gibbs free energy         ...  -1240.28121292 Eh

For completeness - the Gibbs free energy minus the electronic energy
G-E(el)                           ...      0.30501364 Eh    191.40 kcal/mol


Timings for individual modules:

Sum of individual times         ...     6223.285 sec (= 103.721 min)
GTO integral calculation        ...       55.681 sec (=   0.928 min)   0.9 %
SCF iterations                  ...     2692.858 sec (=  44.881 min)  43.3 %
SCF Gradient evaluation         ...      753.160 sec (=  12.553 min)  12.1 %
Geometry relaxation             ...        4.064 sec (=   0.068 min)   0.1 %
Analytical frequency calculation...     2717.523 sec (=  45.292 min)  43.7 %
                             ****ORCA TERMINATED NORMALLY****
TOTAL RUN TIME: 0 days 1 hours 44 minutes 47 seconds 454 msec
