
                                 *****************
                                 * O   R   C   A *
                                 *****************

                                            #,                                       
                                            ###                                      
                                            ####                                     
                                            #####                                    
                                            ######                                   
                                           ########,                                 
                                     ,,################,,,,,                         
                               ,,#################################,,                 
                          ,,##########################################,,             
                       ,#########################################, ''#####,          
                    ,#############################################,,   '####,        
                  ,##################################################,,,,####,       
                ,###########''''           ''''###############################       
              ,#####''   ,,,,##########,,,,          '''####'''          '####       
            ,##' ,,,,###########################,,,                        '##       
           ' ,,###''''                  '''############,,,                           
         ,,##''                                '''############,,,,        ,,,,,,###''
      ,#''                                            '''#######################'''  
     '                                                          ''''####''''         
             ,#######,   #######,   ,#######,      ##                                
            ,#'     '#,  ##    ##  ,#'     '#,    #''#        ######   ,####,        
            ##       ##  ##   ,#'  ##            #'  '#       #        #'  '#        
            ##       ##  #######   ##           ,######,      #####,   #    #        
            '#,     ,#'  ##    ##  '#,     ,#' ,#      #,         ##   #,  ,#        
             '#######'   ##     ##  '#######'  #'      '#     #####' # '####'        



                  #######################################################
                  #                        -***-                        #
                  #          Department of theory and spectroscopy      #
                  #    Directorship and core code : Frank Neese         #
                  #        Max Planck Institute fuer Kohlenforschung    #
                  #                Kaiser Wilhelm Platz 1               #
                  #                 D-45470 Muelheim/Ruhr               #
                  #                      Germany                        #
                  #                                                     #
                  #                  All rights reserved                #
                  #                        -***-                        #
                  #######################################################


                         Program Version 5.0.4 -  RELEASE  -


 With contributions from (in alphabetic order):
   Daniel Aravena         : Magnetic Suceptibility
   Michael Atanasov       : Ab Initio Ligand Field Theory (pilot matlab implementation)
   Alexander A. Auer      : GIAO ZORA, VPT2 properties, NMR spectrum
   Ute Becker             : Parallelization
   Giovanni Bistoni       : ED, misc. LED, open-shell LED, HFLD
   Martin Brehm           : Molecular dynamics
   Dmytro Bykov           : SCF Hessian
   Vijay G. Chilkuri      : MRCI spin determinant printing, contributions to CSF-ICE
   Dipayan Datta          : RHF DLPNO-CCSD density
   Achintya Kumar Dutta   : EOM-CC, STEOM-CC
   Dmitry Ganyushin       : Spin-Orbit,Spin-Spin,Magnetic field MRCI
   Miquel Garcia          : C-PCM and meta-GGA Hessian, CC/C-PCM, Gaussian charge scheme
   Yang Guo               : DLPNO-NEVPT2, F12-NEVPT2, CIM, IAO-localization
   Andreas Hansen         : Spin unrestricted coupled pair/coupled cluster methods
   Benjamin Helmich-Paris : MC-RPA, TRAH-SCF, COSX integrals
   Lee Huntington         : MR-EOM, pCC
   Robert Izsak           : Overlap fitted RIJCOSX, COSX-SCS-MP3, EOM
   Marcus Kettner         : VPT2
   Christian Kollmar      : KDIIS, OOCD, Brueckner-CCSD(T), CCSD density, CASPT2, CASPT2-K
   Simone Kossmann        : Meta GGA functionals, TD-DFT gradient, OOMP2, MP2 Hessian
   Martin Krupicka        : Initial AUTO-CI
   Lucas Lang             : DCDCAS
   Marvin Lechner         : AUTO-CI (C++ implementation), FIC-MRCC
   Dagmar Lenk            : GEPOL surface, SMD
   Dimitrios Liakos       : Extrapolation schemes; Compound Job, initial MDCI parallelization
   Dimitrios Manganas     : Further ROCIS development; embedding schemes
   Dimitrios Pantazis     : SARC Basis sets
   Anastasios Papadopoulos: AUTO-CI, single reference methods and gradients
   Taras Petrenko         : DFT Hessian,TD-DFT gradient, ASA, ECA, R-Raman, ABS, FL, XAS/XES, NRVS
   Peter Pinski           : DLPNO-MP2, DLPNO-MP2 Gradient
   Christoph Reimann      : Effective Core Potentials
   Marius Retegan         : Local ZFS, SOC
   Christoph Riplinger    : Optimizer, TS searches, QM/MM, DLPNO-CCSD(T), (RO)-DLPNO pert. Triples
   Tobias Risthaus        : Range-separated hybrids, TD-DFT gradient, RPA, STAB
   Michael Roemelt        : Original ROCIS implementation
   Masaaki Saitow         : Open-shell DLPNO-CCSD energy and density
   Barbara Sandhoefer     : DKH picture change effects
   Avijit Sen             : IP-ROCIS
   Kantharuban Sivalingam : CASSCF convergence, NEVPT2, FIC-MRCI
   Bernardo de Souza      : ESD, SOC TD-DFT
   Georgi Stoychev        : AutoAux, RI-MP2 NMR, DLPNO-MP2 response
   Willem Van den Heuvel  : Paramagnetic NMR
   Boris Wezisla          : Elementary symmetry handling
   Frank Wennmohs         : Technical directorship


 We gratefully acknowledge several colleagues who have allowed us to
 interface, adapt or use parts of their codes:
   Stefan Grimme, W. Hujo, H. Kruse, P. Pracht,  : VdW corrections, initial TS optimization,
                  C. Bannwarth, S. Ehlert          DFT functionals, gCP, sTDA/sTD-DF
   Ed Valeev, F. Pavosevic, A. Kumar             : LibInt (2-el integral package), F12 methods
   Garnet Chan, S. Sharma, J. Yang, R. Olivares  : DMRG
   Ulf Ekstrom                                   : XCFun DFT Library
   Mihaly Kallay                                 : mrcc  (arbitrary order and MRCC methods)
   Jiri Pittner, Ondrej Demel                    : Mk-CCSD
   Frank Weinhold                                : gennbo (NPA and NBO analysis)
   Christopher J. Cramer and Donald G. Truhlar   : smd solvation model
   Lars Goerigk                                  : TD-DFT with DH, B97 family of functionals
   V. Asgeirsson, H. Jonsson                     : NEB implementation
   FAccTs GmbH                                   : IRC, NEB, NEB-TS, DLPNO-Multilevel, CI-OPT
                                                   MM, QMMM, 2- and 3-layer-ONIOM, Crystal-QMMM,
                                                   LR-CPCM, SF, NACMEs, symmetry and pop. for TD-DFT,
                                                   nearIR, NL-DFT gradient (VV10), updates on ESD,
                                                   ML-optimized integration grids
   S Lehtola, MJT Oliveira, MAL Marques          : LibXC Library
   Liviu Ungur et al                             : ANISO software


 Your calculation uses the libint2 library for the computation of 2-el integrals
 For citations please refer to: http://libint.valeyev.net

 Your ORCA version has been built with support for libXC version: 5.1.0
 For citations please refer to: https://tddft.org/programs/libxc/

 This ORCA versions uses:
   CBLAS   interface :  Fast vector & matrix operations
   LAPACKE interface :  Fast linear algebra routines
   SCALAPACK package :  Parallel linear algebra routines
   Shared memory     :  Shared parallel matrices
   BLAS/LAPACK       :  OpenBLAS 0.3.15  USE64BITINT DYNAMIC_ARCH NO_AFFINITY Haswell SINGLE_THREADED
        Core in use  :  Haswell
   Copyright (c) 2011-2014, The OpenBLAS Project


Your calculation utilizes the atom-pairwise dispersion correction
with the Becke-Johnson damping scheme (D3BJ)
Cite in your paper:
S.Grimme, S.Ehrlich, L.Goerigk, J Comput Chem, (2011), 32, 1456–1465 
S.Grimme, J.Antony, S.Ehrlich and H.Krieg, J.Chem.Phys., 132, (2010), 154104 
   

================================================================================

----- Orbital basis set information -----
Your calculation utilizes the basis: def2-TZVP
   F. Weigend and R. Ahlrichs, Phys. Chem. Chem. Phys. 7, 3297 (2005).

----- AuxJ basis set information -----
Your calculation utilizes the auxiliary basis: def2/J
   F. Weigend, Phys. Chem. Chem. Phys. 8, 1057 (2006).

================================================================================
                                        WARNINGS
                       Please study these warnings very carefully!
================================================================================


WARNING: Geometry Optimization
  ===> : Switching off AutoStart
         For restart on a previous wavefunction, please use MOREAD

INFO   : the flag for use of the SHARK integral package has been found!

================================================================================
                                       INPUT FILE
================================================================================
NAME = 4_CO2Me_free/4_CO2Me_free.inp
|  1> %pal nprocs 24 end
|  2> %maxcore 3500
|  3> ! PBE0 D3BJ def2-TZVP TightSCF OPT FREQ TightOpt
|  4> ! CPCM(dmso)
|  5> %scf
|  6> MaxIter 800
|  7> end
|  8> %geom
|  9> MaxIter 800
| 10> MaxStep 0.2
| 11> end
| 12> *xyz 0 1
| 13> C       -0.976135000      1.396539000     -0.703409000
| 14> C       -1.514460000      1.982246000      0.591569000
| 15> O       -2.239483000      1.344687000      1.312268000
| 16> O       -1.095507000      3.209972000      0.821762000
| 17> C       -1.553304000      3.814247000      2.039464000
| 18> H       -1.815625000      0.989902000     -1.264192000
| 19> H       -2.640661000      3.885342000      2.033618000
| 20> H       -1.105010000      4.803538000      2.060419000
| 21> C        1.323634000      1.176444000     -0.619390000
| 22> C        0.110648000      0.330147000     -0.441585000
| 23> C        0.046584000     -0.842740000     -1.389268000
| 24> C        0.738321000     -0.860329000     -2.589796000
| 25> C        0.655888000     -1.945319000     -3.453348000
| 26> C       -0.131460000     -3.029039000     -3.104005000
| 27> C       -0.836355000     -3.035836000     -1.907662000
| 28> C       -0.755491000     -1.943248000     -1.052103000
| 29> O       -1.417749000     -1.854797000      0.120670000
| 30> C       -2.180774000     -2.969232000      0.544372000
| 31> N        1.037977000      2.288759000     -1.251618000
| 32> O        1.695117000      3.214040000     -1.657908000
| 33> H        0.028179000     -0.032913000      0.582649000
| 34> H        1.359886000     -0.012323000     -2.857852000
| 35> H        1.203743000     -1.939247000     -4.387705000
| 36> H       -0.209130000     -3.883913000     -3.766163000
| 37> H       -1.453209000     -3.886938000     -1.653499000
| 38> H       -2.608254000     -2.691630000      1.505569000
| 39> H       -1.549029000     -3.853886000      0.664658000
| 40> H       -2.984591000     -3.188525000     -0.162642000
| 41> O       -0.346277000      2.372492000     -1.519486000
| 42> H       -1.225461000      3.224533000      2.895092000
| 43> C        2.694117000      0.854539000     -0.233094000
| 44> O        3.666724000      1.545393000     -0.421294000
| 45> O        2.715408000     -0.332013000      0.370256000
| 46> C        3.999010000     -0.788085000      0.804635000
| 47> H        4.675829000     -0.875800000     -0.045422000
| 48> H        4.417407000     -0.097186000      1.536971000
| 49> H        3.825438000     -1.761305000      1.255678000
| 50> *
| 51> 
| 52>                          ****END OF INPUT****
================================================================================

                       *****************************
                       * Geometry Optimization Run *
                       *****************************

Geometry optimization settings:
Update method            Update   .... BFGS
Choice of coordinates    CoordSys .... Z-matrix Internals
Initial Hessian          InHess   .... Almoef's Model

Convergence Tolerances:
Energy Change            TolE     ....  1.0000e-06 Eh
Max. Gradient            TolMAXG  ....  1.0000e-04 Eh/bohr
RMS Gradient             TolRMSG  ....  3.0000e-05 Eh/bohr
Max. Displacement        TolMAXD  ....  1.0000e-03 bohr
RMS Displacement         TolRMSD  ....  6.0000e-04 bohr
Strict Convergence                ....  False
------------------------------------------------------------------------------
                        ORCA OPTIMIZATION COORDINATE SETUP
------------------------------------------------------------------------------

The optimization will be done in new redundant internal coordinates
Making redundant internal coordinates   ...  (new redundants) done
Evaluating the initial hessian          ...  (Almloef) done
Evaluating the coordinates              ...  done
Calculating the B-matrix                .... done
Calculating the G-matrix                .... done
Diagonalizing the G-matrix              .... done
Small eigenvalue found = 4.682e-03
Small eigenvalue found = 5.580e-03
Small eigenvalue found = 9.587e-03
Small eigenvalue found = 1.245e-02
Small eigenvalue found = 1.830e-02
Small eigenvalue found = 2.532e-02
The first mode is                       ....   76
The number of degrees of freedom        ....  105

    -----------------------------------------------------------------
                    Redundant Internal Coordinates


    -----------------------------------------------------------------
         Definition                    Initial Value    Approx d2E/dq
    -----------------------------------------------------------------
      1. B(C   1,C   0)                  1.5198         0.387828   
      2. B(O   2,C   1)                  1.2048         1.104963   
      3. B(O   3,C   1)                  1.3175         0.730357   
      4. B(C   4,O   3)                  1.4344         0.475364   
      5. B(H   5,C   0)                  1.0884         0.362247   
      6. B(H   6,C   4)                  1.0897         0.360504   
      7. B(H   7,C   4)                  1.0863         0.364994   
      8. B(C   9,C   8)                  1.4897         0.433205   
      9. B(C   9,C   0)                  1.5449         0.353623   
     10. B(C  10,C   9)                  1.5093         0.403147   
     11. B(C  11,C  10)                  1.3857         0.634818   
     12. B(C  12,C  11)                  1.3891         0.626765   
     13. B(C  13,C  12)                  1.3843         0.637916   
     14. B(C  14,C  13)                  1.3886         0.628060   
     15. B(C  15,C  10)                  1.4029         0.595883   
     16. B(C  15,C  14)                  1.3901         0.624657   
     17. B(O  16,C  15)                  1.3497         0.648789   
     18. B(C  17,O  16)                  1.4155         0.509519   
     19. B(N  18,C   8)                  1.3109         0.748195   
     20. B(O  19,N  18)                  1.2054         0.987393   
     21. B(H  20,C   9)                  1.0898         0.360362   
     22. B(H  21,C  11)                  1.0850         0.366722   
     23. B(H  22,C  12)                  1.0831         0.369282   
     24. B(H  23,C  13)                  1.0841         0.367976   
     25. B(H  24,C  14)                  1.0814         0.371623   
     26. B(H  25,C  17)                  1.0880         0.362781   
     27. B(H  26,C  17)                  1.0937         0.355236   
     28. B(H  27,C  17)                  1.0927         0.356494   
     29. B(O  28,N  18)                  1.4124         0.461579   
     30. B(O  28,C   0)                  1.4196         0.501989   
     31. B(H  29,C   4)                  1.0897         0.360560   
     32. B(C  30,C   8)                  1.4598         0.483445   
     33. B(O  31,C  30)                  1.2078         1.093055   
     34. B(O  32,C  30)                  1.3313         0.694239   
     35. B(C  33,O  32)                  1.4298         0.483483   
     36. B(H  34,C  33)                  1.0901         0.359933   
     37. B(H  35,C  33)                  1.0903         0.359728   
     38. B(H  36,C  33)                  1.0866         0.364611   
     39. A(C   1,C   0,H   5)          108.0473         0.326641   
     40. A(C   9,C   0,O  28)          105.0613         0.376320   
     41. A(C   1,C   0,C   9)          111.7633         0.362271   
     42. A(C   1,C   0,O  28)          112.4602         0.382388   
     43. A(H   5,C   0,C   9)          111.8399         0.321727   
     44. A(H   5,C   0,O  28)          107.6313         0.338859   
     45. A(C   0,C   1,O   2)          121.2594         0.439750   
     46. A(O   2,C   1,O   3)          125.4481         0.490447   
     47. A(C   0,C   1,O   3)          113.2884         0.408374   
     48. A(C   1,O   3,C   4)          116.0656         0.420678   
     49. A(O   3,C   4,H   7)          105.5639         0.336219   
     50. A(H   7,C   4,H  29)          110.7044         0.291516   
     51. A(O   3,C   4,H   6)          109.9622         0.335527   
     52. A(H   6,C   4,H   7)          110.6386         0.291508   
     53. A(O   3,C   4,H  29)          110.0345         0.335536   
     54. A(H   6,C   4,H  29)          109.8614         0.290949   
     55. A(C   9,C   8,N  18)          111.2331         0.418267   
     56. A(N  18,C   8,C  30)          121.2844         0.426547   
     57. A(C   9,C   8,C  30)          127.4139         0.389751   
     58. A(C   8,C   9,H  20)          111.2878         0.332380   
     59. A(C   0,C   9,H  20)          109.6330         0.321452   
     60. A(C  10,C   9,H  20)          109.1491         0.328451   
     61. A(C   0,C   9,C  10)          113.5867         0.364677   
     62. A(C   8,C   9,C  10)          113.6473         0.377638   
     63. A(C   0,C   9,C   8)           99.2316         0.369201   
     64. A(C   9,C  10,C  11)          122.1874         0.403713   
     65. A(C  11,C  10,C  15)          118.9258         0.432814   
     66. A(C   9,C  10,C  15)          118.8801         0.399237   
     67. A(C  12,C  11,H  21)          119.3960         0.354651   
     68. A(C  10,C  11,C  12)          121.2569         0.436769   
     69. A(C  10,C  11,H  21)          119.3465         0.355420   
     70. A(C  13,C  12,H  22)          120.6472         0.356134   
     71. A(C  11,C  12,H  22)          120.1229         0.355070   
     72. A(C  11,C  12,C  13)          119.2298         0.437152   
     73. A(C  14,C  13,H  23)          119.0778         0.354981   
     74. A(C  12,C  13,H  23)          120.2598         0.355920   
     75. A(C  12,C  13,C  14)          120.6617         0.437315   
     76. A(C  13,C  14,C  15)          119.7948         0.435663   
     77. A(C  15,C  14,H  24)          120.4725         0.355248   
     78. A(C  13,C  14,H  24)          119.7291         0.355575   
     79. A(C  14,C  15,O  16)          123.9003         0.435347   
     80. A(C  10,C  15,O  16)          115.9724         0.431669   
     81. A(C  10,C  15,C  14)          120.1270         0.431561   
     82. A(C  15,O  16,C  17)          118.2273         0.417017   
     83. A(H  26,C  17,H  27)          109.4954         0.289761   
     84. A(H  25,C  17,H  27)          109.4992         0.290719   
     85. A(O  16,C  17,H  27)          111.1523         0.338796   
     86. A(H  25,C  17,H  26)          109.6439         0.290557   
     87. A(O  16,C  17,H  26)          111.0003         0.338596   
     88. A(O  16,C  17,H  25)          105.9834         0.339786   
     89. A(C   8,N  18,O  19)          134.0318         0.479195   
     90. A(O  19,N  18,O  28)          115.1414         0.435851   
     91. A(C   8,N  18,O  28)          110.8132         0.417500   
     92. A(C   0,O  28,N  18)          106.5627         0.389128   
     93. A(O  31,C  30,O  32)          124.5803         0.484893   
     94. A(C   8,C  30,O  32)          109.3582         0.420876   
     95. A(C   8,C  30,O  31)          126.0614         0.456786   
     96. A(C  30,O  32,C  33)          115.8702         0.418151   
     97. A(H  34,C  33,H  36)          110.5355         0.291388   
     98. A(O  32,C  33,H  36)          105.5687         0.337109   
     99. A(H  34,C  33,H  35)          109.6641         0.290771   
    100. A(O  32,C  33,H  35)          110.2700         0.336353   
    101. A(O  32,C  33,H  34)          110.2518         0.336385   
    102. A(H  35,C  33,H  36)          110.4901         0.291362   
    103. D(O   2,C   1,C   0,H   5)     50.7339         0.011197   
    104. D(O   3,C   1,C   0,C   9)    106.5731         0.011197   
    105. D(O   2,C   1,C   0,O  28)    169.3808         0.011197   
    106. D(O   2,C   1,C   0,C   9)    -72.7274         0.011197   
    107. D(O   3,C   1,C   0,O  28)    -11.3187         0.011197   
    108. D(O   3,C   1,C   0,H   5)   -129.9656         0.011197   
    109. D(C   4,O   3,C   1,C   0)   -179.1595         0.040286   
    110. D(C   4,O   3,C   1,O   2)      0.1064         0.040286   
    111. D(H   7,C   4,O   3,C   1)    179.4847         0.017819   
    112. D(H   6,C   4,O   3,C   1)    -61.1455         0.017819   
    113. D(H  29,C   4,O   3,C   1)     59.9989         0.017819   
    114. D(C  10,C   9,C   0,C   1)    142.0455         0.010059   
    115. D(H  20,C   9,C   8,N  18)   -132.6065         0.013856   
    116. D(C   8,C   9,C   0,O  28)     25.2387         0.010059   
    117. D(C  10,C   9,C   8,C  30)    -73.3016         0.013856   
    118. D(C   8,C   9,C   0,C   1)    -96.9987         0.010059   
    119. D(C   0,C   9,C   8,C  30)    165.7868         0.013856   
    120. D(C   0,C   9,C   8,N  18)    -17.2240         0.013856   
    121. D(H  20,C   9,C   0,O  28)    141.8862         0.010059   
    122. D(H  20,C   9,C   0,H   5)   -101.6414         0.010059   
    123. D(H  20,C   9,C   0,C   1)     19.6488         0.010059   
    124. D(C  10,C   9,C   8,N  18)    103.6876         0.013856   
    125. D(C  10,C   9,C   0,O  28)    -95.7171         0.010059   
    126. D(C  10,C   9,C   0,H   5)     20.7553         0.010059   
    127. D(H  20,C   9,C   8,C  30)     50.4043         0.013856   
    128. D(C   8,C   9,C   0,H   5)    141.7110         0.010059   
    129. D(C  15,C  10,C   9,C   0)    -89.0546         0.012054   
    130. D(C  11,C  10,C   9,H  20)   -147.3399         0.012054   
    131. D(C  11,C  10,C   9,C   8)    -22.4785         0.012054   
    132. D(C  15,C  10,C   9,C   8)    158.4706         0.012054   
    133. D(C  11,C  10,C   9,C   0)     89.9963         0.012054   
    134. D(C  15,C  10,C   9,H  20)     33.6091         0.012054   
    135. D(H  21,C  11,C  10,C  15)    179.9385         0.027969   
    136. D(H  21,C  11,C  10,C   9)      0.8880         0.027969   
    137. D(C  12,C  11,C  10,C  15)     -0.3610         0.027969   
    138. D(C  12,C  11,C  10,C   9)   -179.4115         0.027969   
    139. D(H  22,C  12,C  11,H  21)     -0.3573         0.027219   
    140. D(H  22,C  12,C  11,C  10)    179.9424         0.027219   
    141. D(C  13,C  12,C  11,H  21)    179.5938         0.027219   
    142. D(C  13,C  12,C  11,C  10)     -0.1066         0.027219   
    143. D(H  23,C  13,C  12,H  22)     -0.1503         0.028261   
    144. D(H  23,C  13,C  12,C  11)    179.8990         0.028261   
    145. D(C  14,C  13,C  12,H  22)   -179.8515         0.028261   
    146. D(C  14,C  13,C  12,C  11)      0.1977         0.028261   
    147. D(H  24,C  14,C  13,H  23)     -0.1987         0.027339   
    148. D(H  24,C  14,C  13,C  12)    179.5060         0.027339   
    149. D(C  15,C  14,C  13,H  23)   -179.5191         0.027339   
    150. D(C  15,C  14,C  13,C  12)      0.1856         0.027339   
    151. D(O  16,C  15,C  14,H  24)     -0.1951         0.027025   
    152. D(C  10,C  15,C  14,H  24)   -179.9755         0.027025   
    153. D(C  10,C  15,C  14,C  13)     -0.6602         0.027025   
    154. D(O  16,C  15,C  10,C  11)   -179.0535         0.024460   
    155. D(O  16,C  15,C  10,C   9)      0.0289         0.024460   
    156. D(O  16,C  15,C  14,C  13)    179.1201         0.027025   
    157. D(C  14,C  15,C  10,C  11)      0.7437         0.024460   
    158. D(C  14,C  15,C  10,C   9)    179.8261         0.024460   
    159. D(C  17,O  16,C  15,C  14)      3.7425         0.031099   
    160. D(C  17,O  16,C  15,C  10)   -176.4688         0.031099   
    161. D(H  27,C  17,O  16,C  15)    -62.0550         0.020550   
    162. D(H  26,C  17,O  16,C  15)     60.0739         0.020550   
    163. D(H  25,C  17,O  16,C  15)    179.0553         0.020550   
    164. D(O  19,N  18,C   8,C  30)      1.2533         0.046983   
    165. D(O  19,N  18,C   8,C   9)   -175.9486         0.046983   
    166. D(O  28,N  18,C   8,C  30)    179.8056         0.046983   
    167. D(O  28,N  18,C   8,C   9)      2.6037         0.046983   
    168. D(C   0,O  28,N  18,O  19)   -166.0897         0.017738   
    169. D(C   0,O  28,N  18,C   8)     15.0600         0.017738   
    170. D(N  18,O  28,C   0,C   9)    -25.3357         0.019927   
    171. D(N  18,O  28,C   0,H   5)   -144.6606         0.019927   
    172. D(N  18,O  28,C   0,C   1)     96.4487         0.019927   
    173. D(O  32,C  30,C   8,N  18)   -178.9482         0.015913   
    174. D(O  32,C  30,C   8,C   9)     -2.2324         0.015913   
    175. D(O  31,C  30,C   8,N  18)      1.1771         0.015913   
    176. D(O  31,C  30,C   8,C   9)    177.8929         0.015913   
    177. D(C  33,O  32,C  30,O  31)     -0.3424         0.036036   
    178. D(C  33,O  32,C  30,C   8)    179.7807         0.036036   
    179. D(H  36,C  33,O  32,C  30)   -179.3469         0.018446   
    180. D(H  35,C  33,O  32,C  30)     61.2951         0.018446   
    181. D(H  34,C  33,O  32,C  30)    -59.9445         0.018446   
    -----------------------------------------------------------------

Number of atoms                         .... 37
Number of degrees of freedom            .... 181

         *************************************************************
         *                GEOMETRY OPTIMIZATION CYCLE   1            *
         *************************************************************
---------------------------------
CARTESIAN COORDINATES (ANGSTROEM)
---------------------------------
  C     -0.976135    1.396539   -0.703409
  C     -1.514460    1.982246    0.591569
  O     -2.239483    1.344687    1.312268
  O     -1.095507    3.209972    0.821762
  C     -1.553304    3.814247    2.039464
  H     -1.815625    0.989902   -1.264192
  H     -2.640661    3.885342    2.033618
  H     -1.105010    4.803538    2.060419
  C      1.323634    1.176444   -0.619390
  C      0.110648    0.330147   -0.441585
  C      0.046584   -0.842740   -1.389268
  C      0.738321   -0.860329   -2.589796
  C      0.655888   -1.945319   -3.453348
  C     -0.131460   -3.029039   -3.104005
  C     -0.836355   -3.035836   -1.907662
  C     -0.755491   -1.943248   -1.052103
  O     -1.417749   -1.854797    0.120670
  C     -2.180774   -2.969232    0.544372
  N      1.037977    2.288759   -1.251618
  O      1.695117    3.214040   -1.657908
  H      0.028179   -0.032913    0.582649
  H      1.359886   -0.012323   -2.857852
  H      1.203743   -1.939247   -4.387705
  H     -0.209130   -3.883913   -3.766163
  H     -1.453209   -3.886938   -1.653499
  H     -2.608254   -2.691630    1.505569
  H     -1.549029   -3.853886    0.664658
  H     -2.984591   -3.188525   -0.162642
  O     -0.346277    2.372492   -1.519486
  H     -1.225461    3.224533    2.895092
  C      2.694117    0.854539   -0.233094
  O      3.666724    1.545393   -0.421294
  O      2.715408   -0.332013    0.370256
  C      3.999010   -0.788085    0.804635
  H      4.675829   -0.875800   -0.045422
  H      4.417407   -0.097186    1.536971
  H      3.825438   -1.761305    1.255678

----------------------------
CARTESIAN COORDINATES (A.U.)
----------------------------
  NO LB      ZA    FRAG     MASS         X           Y           Z
   0 C     6.0000    0    12.011   -1.844628    2.639076   -1.329250
   1 C     6.0000    0    12.011   -2.861915    3.745902    1.117903
   2 O     8.0000    0    15.999   -4.232010    2.541090    2.479827
   3 O     8.0000    0    15.999   -2.070208    6.065968    1.552905
   4 C     6.0000    0    12.011   -2.935319    7.207882    3.854028
   5 H     1.0000    0     1.008   -3.431034    1.870644   -2.388977
   6 H     1.0000    0     1.008   -4.990126    7.342232    3.842981
   7 H     1.0000    0     1.008   -2.088166    9.077371    3.893628
   8 C     6.0000    0    12.011    2.501306    2.223157   -1.170477
   9 C     6.0000    0    12.011    0.209094    0.623887   -0.834475
  10 C     6.0000    0    12.011    0.088031   -1.592548   -2.625336
  11 C     6.0000    0    12.011    1.395224   -1.625786   -4.894005
  12 C     6.0000    0    12.011    1.239449   -3.676120   -6.525882
  13 C     6.0000    0    12.011   -0.248423   -5.724054   -5.865719
  14 C     6.0000    0    12.011   -1.580482   -5.736899   -3.604959
  15 C     6.0000    0    12.011   -1.427671   -3.672207   -1.988187
  16 O     8.0000    0    15.999   -2.679157   -3.505058    0.228033
  17 C     6.0000    0    12.011   -4.121066   -5.611035    1.028714
  18 N     7.0000    0    14.007    1.961492    4.325128   -2.365215
  19 O     8.0000    0    15.999    3.203307    6.073655   -3.132992
  20 H     1.0000    0     1.008    0.053251   -0.062197    1.101047
  21 H     1.0000    0     1.008    2.569812   -0.023287   -5.400558
  22 H     1.0000    0     1.008    2.274745   -3.664646   -8.291561
  23 H     1.0000    0     1.008   -0.395198   -7.339532   -7.117017
  24 H     1.0000    0     1.008   -2.746167   -7.345248   -3.124660
  25 H     1.0000    0     1.008   -4.928886   -5.086444    2.845113
  26 H     1.0000    0     1.008   -2.927241   -7.282789    1.256022
  27 H     1.0000    0     1.008   -5.640060   -6.025439   -0.307349
  28 O     8.0000    0    15.999   -0.654369    4.483360   -2.871412
  29 H     1.0000    0     1.008   -2.315786    6.093484    5.470931
  30 C     6.0000    0    12.011    5.091143    1.614845   -0.440484
  31 O     8.0000    0    15.999    6.929104    2.920370   -0.796130
  32 O     8.0000    0    15.999    5.131377   -0.627414    0.699682
  33 C     6.0000    0    12.011    7.557034   -1.489265    1.520540
  34 H     1.0000    0     1.008    8.836036   -1.655022   -0.085835
  35 H     1.0000    0     1.008    8.347689   -0.183655    2.904454
  36 H     1.0000    0     1.008    7.229030   -3.328384    2.372888

--------------------------------
INTERNAL COORDINATES (ANGSTROEM)
--------------------------------
 C      0   0   0     0.000000000000     0.00000000     0.00000000
 C      1   0   0     1.519807394362     0.00000000     0.00000000
 O      2   1   0     1.204801592633   121.25938215     0.00000000
 O      2   1   3     1.317505811955   113.28838483   179.30047023
 C      4   2   1     1.434407379247   116.06558671   180.84048013
 H      1   2   3     1.088381680734   108.04731255    50.73392796
 H      5   4   2     1.089694415967   109.96220758   298.85454973
 H      5   4   2     1.086325598125   105.56386024   179.48472085
 C      1   2   3     2.311804155794   110.98265294   244.73044437
 C      9   1   2     1.489687304917    41.27149773    99.15174680
 C     10   9   1     1.509261799475   113.64730474   120.91160506
 C     11  10   9     1.385668405093   122.18740317   337.52154353
 C     12  11  10     1.389143821313   121.25687419   180.58848091
 C     13  12  11     1.384343325607   119.22981798   359.89341765
 C     14  13  12     1.388581914718   120.66168041     0.19773051
 C     15  14  13     1.390060691740   119.79484865     0.18561325
 O     16  15  14     1.349742844950   123.90033637   179.12011737
 C     17  16  15     1.415519658872   118.22733394     3.74246107
 N      9   1   2     1.310937384034    71.63459183   262.24469969
 O     19   9   1     1.205425017436   134.03179058   172.17478426
 H     10   9   1     1.089802269367   111.28783131   244.61752782
 H     12  11  10     1.085039743234   119.34648655     0.88796417
 H     13  12  11     1.083145869058   120.12291866   179.94237447
 H     14  13  12     1.084110419533   120.25984201   179.89896464
 H     15  14  13     1.081426050310   119.72914995   179.50599087
 H     18  17  16     1.087980557553   105.98344183   179.05526190
 H     18  17  16     1.093701589346   111.00031885    60.07392302
 H     18  17  16     1.092739669608   111.15225669   297.94500183
 O     19   9   1     1.412417649716   110.81324367   350.72710626
 H      5   4   2     1.089652655129   110.03454665    59.99890894
 C      9   1   2     1.459818852437   164.69337954    51.52717439
 O     31   9   1     1.207751160531   126.06140756   215.73719375
 O     31   9   1     1.331311450370   109.35816305    35.61182332
 C     33  31   9     1.429797495881   115.87022864   179.78073492
 H     34  33  31     1.090126040068   110.25176454   300.05545279
 H     34  33  31     1.090281383270   110.27003611    61.29505734
 H     34  33  31     1.086611335958   105.56866709   180.65309512

---------------------------
INTERNAL COORDINATES (A.U.)
---------------------------
 C      0   0   0     0.000000000000     0.00000000     0.00000000
 C      1   0   0     2.872019751653     0.00000000     0.00000000
 O      2   1   0     2.276745055789   121.25938215     0.00000000
 O      2   1   3     2.489725164444   113.28838483   179.30047023
 C      4   2   1     2.710637111252   116.06558671   180.84048013
 H      1   2   3     2.056743305765   108.04731255    50.73392796
 H      5   4   2     2.059224015841   109.96220758   298.85454973
 H      5   4   2     2.052857872725   105.56386024   179.48472085
 C      1   2   3     4.368676729712   110.98265294   244.73044437
 C      9   1   2     2.815101031472    41.27149773    99.15174680
 C     10   9   1     2.852091465397   113.64730474   120.91160506
 C     11  10   9     2.618533798054   122.18740317   337.52154353
 C     12  11  10     2.625101382911   121.25687419   180.58848091
 C     13  12  11     2.616029760719   119.22981798   359.89341765
 C     14  13  12     2.624039533334   120.66168041     0.19773051
 C     15  14  13     2.626834016918   119.79484865     0.18561325
 O     16  15  14     2.550644328175   123.90033637   179.12011737
 C     17  16  15     2.674944492450   118.22733394     3.74246107
 N      9   1   2     2.477312634543    71.63459183   262.24469969
 O     19   9   1     2.277923157932   134.03179058   172.17478426
 H     10   9   1     2.059427829229   111.28783131   244.61752782
 H     12  11  10     2.050427959132   119.34648655     0.88796417
 H     13  12  11     2.046849055608   120.12291866   179.94237447
 H     14  13  12     2.048671791848   120.25984201   179.89896464
 H     15  14  13     2.043599069174   119.72914995   179.50599087
 H     18  17  16     2.055985292806   105.98344183   179.05526190
 H     18  17  16     2.066796476098   111.00031885    60.07392302
 H     18  17  16     2.064978711230   111.15225669   297.94500183
 O     19   9   1     2.669082544680   110.81324367   350.72710626
 H      5   4   2     2.059145099293   110.03454665    59.99890894
 C      9   1   2     2.758657836241   164.69337954    51.52717439
 O     31   9   1     2.282318931330   126.06140756   215.73719375
 O     31   9   1     2.515814040152   109.35816305    35.61182332
 C     33  31   9     2.701925694182   115.87022864   179.78073492
 H     34  33  31     2.060039667185   110.25176454   300.05545279
 H     34  33  31     2.060333223294   110.27003611    61.29505734
 H     34  33  31     2.053397838975   105.56866709   180.65309512

---------------------
BASIS SET INFORMATION
---------------------
There are 4 groups of distinct atoms

 Group   1 Type C   : 11s6p2d1f contracted to 5s3p2d1f pattern {62111/411/11/1}
 Group   2 Type O   : 11s6p2d1f contracted to 5s3p2d1f pattern {62111/411/11/1}
 Group   3 Type H   : 5s1p contracted to 3s1p pattern {311/1}
 Group   4 Type N   : 11s6p2d1f contracted to 5s3p2d1f pattern {62111/411/11/1}

Atom   0C    basis set group =>   1
Atom   1C    basis set group =>   1
Atom   2O    basis set group =>   2
Atom   3O    basis set group =>   2
Atom   4C    basis set group =>   1
Atom   5H    basis set group =>   3
Atom   6H    basis set group =>   3
Atom   7H    basis set group =>   3
Atom   8C    basis set group =>   1
Atom   9C    basis set group =>   1
Atom  10C    basis set group =>   1
Atom  11C    basis set group =>   1
Atom  12C    basis set group =>   1
Atom  13C    basis set group =>   1
Atom  14C    basis set group =>   1
Atom  15C    basis set group =>   1
Atom  16O    basis set group =>   2
Atom  17C    basis set group =>   1
Atom  18N    basis set group =>   4
Atom  19O    basis set group =>   2
Atom  20H    basis set group =>   3
Atom  21H    basis set group =>   3
Atom  22H    basis set group =>   3
Atom  23H    basis set group =>   3
Atom  24H    basis set group =>   3
Atom  25H    basis set group =>   3
Atom  26H    basis set group =>   3
Atom  27H    basis set group =>   3
Atom  28O    basis set group =>   2
Atom  29H    basis set group =>   3
Atom  30C    basis set group =>   1
Atom  31O    basis set group =>   2
Atom  32O    basis set group =>   2
Atom  33C    basis set group =>   1
Atom  34H    basis set group =>   3
Atom  35H    basis set group =>   3
Atom  36H    basis set group =>   3
---------------------------------
AUXILIARY/J BASIS SET INFORMATION
---------------------------------
There are 4 groups of distinct atoms

 Group   1 Type C   : 12s5p4d2f1g contracted to 6s4p3d1f1g pattern {711111/2111/211/2/1}
 Group   2 Type O   : 12s5p4d2f1g contracted to 6s4p3d1f1g pattern {711111/2111/211/2/1}
 Group   3 Type H   : 5s2p1d contracted to 3s1p1d pattern {311/2/1}
 Group   4 Type N   : 12s5p4d2f1g contracted to 6s4p3d1f1g pattern {711111/2111/211/2/1}

Atom   0C    basis set group =>   1
Atom   1C    basis set group =>   1
Atom   2O    basis set group =>   2
Atom   3O    basis set group =>   2
Atom   4C    basis set group =>   1
Atom   5H    basis set group =>   3
Atom   6H    basis set group =>   3
Atom   7H    basis set group =>   3
Atom   8C    basis set group =>   1
Atom   9C    basis set group =>   1
Atom  10C    basis set group =>   1
Atom  11C    basis set group =>   1
Atom  12C    basis set group =>   1
Atom  13C    basis set group =>   1
Atom  14C    basis set group =>   1
Atom  15C    basis set group =>   1
Atom  16O    basis set group =>   2
Atom  17C    basis set group =>   1
Atom  18N    basis set group =>   4
Atom  19O    basis set group =>   2
Atom  20H    basis set group =>   3
Atom  21H    basis set group =>   3
Atom  22H    basis set group =>   3
Atom  23H    basis set group =>   3
Atom  24H    basis set group =>   3
Atom  25H    basis set group =>   3
Atom  26H    basis set group =>   3
Atom  27H    basis set group =>   3
Atom  28O    basis set group =>   2
Atom  29H    basis set group =>   3
Atom  30C    basis set group =>   1
Atom  31O    basis set group =>   2
Atom  32O    basis set group =>   2
Atom  33C    basis set group =>   1
Atom  34H    basis set group =>   3
Atom  35H    basis set group =>   3
Atom  36H    basis set group =>   3


           ************************************************************
           *        Program running with 24 parallel MPI-processes    *
           *              working on a common directory               *
           ************************************************************
------------------------------------------------------------------------------
                           ORCA GTO INTEGRAL CALCULATION
                           -- RI-GTO INTEGRALS CHOSEN --
------------------------------------------------------------------------------
------------------------------------------------------------------------------
                   ___                                                        
                  /   \      - P O W E R E D   B Y -                         
                 /     \                                                     
                 |  |  |   _    _      __       _____    __    __             
                 |  |  |  | |  | |    /  \     |  _  \  |  |  /  |          
                  \  \/   | |  | |   /    \    | | | |  |  | /  /          
                 / \  \   | |__| |  /  /\  \   | |_| |  |  |/  /          
                |  |  |   |  __  | /  /__\  \  |    /   |      \           
                |  |  |   | |  | | |   __   |  |    \   |  |\   \          
                \     /   | |  | | |  |  |  |  | |\  \  |  | \   \       
                 \___/    |_|  |_| |__|  |__|  |_| \__\ |__|  \__/        
                                                                              
                      - O R C A' S   B I G   F R I E N D -                    
                                      &                                       
                       - I N T E G R A L  F E E D E R -                       
                                                                              
 v1 FN, 2020, v2 2021                                                         
------------------------------------------------------------------------------


Reading SHARK input file 4_CO2Me_free/4_CO2Me_free.SHARKINP.tmp ... ok
----------------------
SHARK INTEGRAL PACKAGE
----------------------

Number of atoms                             ...     37
Number of basis functions                   ...    772
Number of shells                            ...    302
Maximum angular momentum                    ...      3
Integral batch strategy                     ... SHARK/LIBINT Hybrid
RI-J (if used) integral strategy            ... SPLIT-RIJ (Revised 2003 algorithm where possible)
Printlevel                                  ...      1
Contraction scheme used                     ... SEGMENTED contraction
Coulomb Range Separation                    ... NOT USED
Exchange Range Separation                   ... NOT USED
Finite Nucleus Model                        ... NOT USED
Auxiliary Coulomb fitting basis             ... AVAILABLE
   # of basis functions in Aux-J            ...   1243
   # of shells in Aux-J                     ...    405
   Maximum angular momentum in Aux-J        ...      4
Auxiliary J/K fitting basis                 ... NOT available
Auxiliary Correlation fitting basis         ... NOT available
Auxiliary 'external' fitting basis          ... NOT available
Integral threshold                          ...     2.500000e-11
Primitive cut-off                           ...     2.500000e-12
Primitive pair pre-selection threshold      ...     2.500000e-12

Calculating pre-screening integrals         ... done (  0.1 sec) Dimension = 302
Organizing shell pair data                  ... done (  0.4 sec)
Shell pair information
Total number of shell pairs                 ...     45753
Shell pairs after pre-screening             ...     32850
Total number of primitive shell pairs       ...    141244
Primitive shell pairs kept                  ...     66898
          la=0 lb=0:   8300 shell pairs
          la=1 lb=0:   9389 shell pairs
          la=1 lb=1:   2666 shell pairs
          la=2 lb=0:   4708 shell pairs
          la=2 lb=1:   2738 shell pairs
          la=2 lb=2:    726 shell pairs
          la=3 lb=0:   2206 shell pairs
          la=3 lb=1:   1304 shell pairs
          la=3 lb=2:    647 shell pairs
          la=3 lb=3:    166 shell pairs

Calculating one electron integrals          ... done (  0.1 sec)
Calculating RI/J V-Matrix + Cholesky decomp.... done (  0.2 sec)
Calculating Nuclear repulsion               ... done (  0.0 sec) ENN=   1934.070577986774 Eh

SHARK setup successfully completed in   1.3 seconds

Maximum memory used throughout the entire GTOINT-calculation: 50.9 MB


           ************************************************************
           *        Program running with 24 parallel MPI-processes    *
           *              working on a common directory               *
           ************************************************************
-------------------------------------------------------------------------------
                                 ORCA SCF
-------------------------------------------------------------------------------

------------
SCF SETTINGS
------------
Hamiltonian:
 Density Functional     Method          .... DFT(GTOs)
 Exchange Functional    Exchange        .... PBE
   PBE kappa parameter   XKappa         ....  0.804000
   PBE mue parameter    XMuePBE         ....  0.219520
 Correlation Functional Correlation     .... PBE
   PBE beta parameter  CBetaPBE         ....  0.066725
 LDA part of GGA corr.  LDAOpt          .... PW91-LDA
 Gradients option       PostSCFGGA      .... off
 Hybrid DFT is turned on
   Fraction HF Exchange ScalHFX         ....  0.250000
   Scaling of DF-GGA-X  ScalDFX         ....  0.750000
   Scaling of DF-GGA-C  ScalDFC         ....  1.000000
   Scaling of DF-LDA-C  ScalLDAC        ....  1.000000
   Perturbative correction              ....  0.000000
   Density functional embedding theory  .... OFF
   NL short-range parameter             ....  6.900000
 RI-approximation to the Coulomb term is turned on
   Number of AuxJ basis functions       .... 1243
   RIJ-COSX (HFX calculated with COS-X)).... on


General Settings:
 Integral files         IntName         .... 4_CO2Me_free/4_CO2Me_free
 Hartree-Fock type      HFTyp           .... RHF
 Total Charge           Charge          ....    0
 Multiplicity           Mult            ....    1
 Number of Electrons    NEL             ....  162
 Basis Dimension        Dim             ....  772
 Nuclear Repulsion      ENuc            ....   1934.0705779868 Eh

Convergence Acceleration:
 DIIS                   CNVDIIS         .... on
   Start iteration      DIISMaxIt       ....    12
   Startup error        DIISStart       ....  0.200000
   # of expansion vecs  DIISMaxEq       ....     5
   Bias factor          DIISBfac        ....   1.050
   Max. coefficient     DIISMaxC        ....  10.000
 Trust-Rad. Augm. Hess. CNVTRAH         .... auto
   Auto Start mean grad. ratio tolernc. ....  1.125000
   Auto Start start iteration           ....    20
   Auto Start num. interpolation iter.  ....    10
   Max. Number of Micro iterations      ....    16
   Max. Number of Macro iterations      .... Maxiter - #DIIS iter
   Number of Davidson start vectors     ....     2
   Converg. threshold I  (grad. norm)   ....   1.000e-05
   Converg. threshold II (energy diff.) ....   1.000e-08
   Grad. Scal. Fac. for Micro threshold ....   0.100
   Minimum threshold for Micro iter.    ....   0.010
   NR start threshold (gradient norm)   ....   0.001
   Initial trust radius                 ....   0.400
   Minimum AH scaling param. (alpha)    ....   1.000
   Maximum AH scaling param. (alpha)    .... 1000.000
   Orbital update algorithm             .... Taylor
   White noise on init. David. guess    .... on
   Maximum white noise                  ....   0.010
   Quad. conv. algorithm                .... NR
 SOSCF                  CNVSOSCF        .... on
   Start iteration      SOSCFMaxIt      ....   150
   Startup grad/error   SOSCFStart      ....  0.003300
 Level Shifting         CNVShift        .... on
   Level shift para.    LevelShift      ....    0.2500
   Turn off err/grad.   ShiftErr        ....    0.0010
 Zerner damping         CNVZerner       .... off
 Static damping         CNVDamp         .... on
   Fraction old density DampFac         ....    0.7000
   Max. Damping (<1)    DampMax         ....    0.9800
   Min. Damping (>=0)   DampMin         ....    0.0000
   Turn off err/grad.   DampErr         ....    0.1000
 Fernandez-Rico         CNVRico         .... off

SCF Procedure:
 Maximum # iterations   MaxIter         ....   800
 SCF integral mode      SCFMode         .... Direct
   Integral package                     .... SHARK and LIBINT hybrid scheme
 Reset frequency        DirectResetFreq ....    20
 Integral Threshold     Thresh          ....  2.500e-11 Eh
 Primitive CutOff       TCut            ....  2.500e-12 Eh

Convergence Tolerance:
 Convergence Check Mode ConvCheckMode   .... Total+1el-Energy
 Convergence forced     ConvForced      .... 0
 Energy Change          TolE            ....  1.000e-08 Eh
 1-El. energy change                    ....  1.000e-05 Eh
 Orbital Gradient       TolG            ....  1.000e-05
 Orbital Rotation angle TolX            ....  1.000e-05
 DIIS Error             TolErr          ....  5.000e-07


Diagonalization of the overlap matrix:
Smallest eigenvalue                        ... 6.360e-06
Time for diagonalization                   ...    0.159 sec
Threshold for overlap eigenvalues          ... 1.000e-08
Number of eigenvalues below threshold      ... 0
Time for construction of square roots      ...    0.098 sec
Total time needed                          ...    0.265 sec

Time for model grid setup =    0.262 sec

------------------------------
INITIAL GUESS: MODEL POTENTIAL
------------------------------
Loading Hartree-Fock densities                     ... done
Calculating cut-offs                               ... done
Initializing the effective Hamiltonian             ... done
Setting up the integral package (SHARK)            ... done
Starting the Coulomb interaction                   ... done (   0.3 sec)
Reading the grid                                   ... done
Mapping shells                                     ... done
Starting the XC term evaluation                    ... done (   0.1 sec)
  promolecular density results
     # of electrons  =    162.000020711
     EX              =   -139.757782971
     EC              =     -5.501384275
     EX+EC           =   -145.259167247
Transforming the Hamiltonian                       ... done (   0.1 sec)
Diagonalizing the Hamiltonian                      ... done (   0.2 sec)
Back transforming the eigenvectors                 ... done (   0.0 sec)
Now organizing SCF variables                       ... done
                      ------------------
                      INITIAL GUESS DONE (   1.2 sec)
                      ------------------
-------------------
DFT GRID GENERATION
-------------------

General Integration Accuracy     IntAcc      ... 4.388
Radial Grid Type                 RadialGrid  ... OptM3 with GC (2021)
Angular Grid (max. ang.)         AngularGrid ... 4 (Lebedev-302)
Angular grid pruning method      GridPruning ... 4 (adaptive)
Weight generation scheme         WeightScheme... Becke
Basis function cutoff            BFCut       ... 1.0000e-11
Integration weight cutoff        WCut        ... 1.0000e-14
Angular grids for H and He will be reduced by one unit
Partially contracted basis set               ... off
Rotationally invariant grid construction     ... off

Total number of grid points                  ...   179899
Total number of batches                      ...     2832
Average number of points per batch           ...       63
Average number of grid points per atom       ...     4862
Time for grid setup =    1.081 sec

--------------------
COSX GRID GENERATION
--------------------

GRIDX 1
-------
General Integration Accuracy     IntAcc      ... 3.816
Radial Grid Type                 RadialGrid  ... OptM3 with GC (2021)
Angular Grid (max. ang.)         AngularGrid ... 1 (Lebedev-50)
Angular grid pruning method      GridPruning ... 4 (adaptive)
Weight generation scheme         WeightScheme... Becke
Basis function cutoff            BFCut       ... 1.0000e-11
Integration weight cutoff        WCut        ... 1.0000e-14
Angular grids for H and He will be reduced by one unit
Partially contracted basis set               ... on
Rotationally invariant grid construction     ... off

Total number of grid points                  ...    22806
Total number of batches                      ...      376
Average number of points per batch           ...       60
Average number of grid points per atom       ...      616
UseSFitting                                  ... on

GRIDX 2
-------
General Integration Accuracy     IntAcc      ... 4.020
Radial Grid Type                 RadialGrid  ... OptM3 with GC (2021)
Angular Grid (max. ang.)         AngularGrid ... 2 (Lebedev-110)
Angular grid pruning method      GridPruning ... 4 (adaptive)
Weight generation scheme         WeightScheme... Becke
Basis function cutoff            BFCut       ... 1.0000e-11
Integration weight cutoff        WCut        ... 1.0000e-14
Angular grids for H and He will be reduced by one unit
Partially contracted basis set               ... on
Rotationally invariant grid construction     ... off

Total number of grid points                  ...    49917
Total number of batches                      ...      797
Average number of points per batch           ...       62
Average number of grid points per atom       ...     1349
UseSFitting                                  ... on

GRIDX 3
-------
General Integration Accuracy     IntAcc      ... 4.338
Radial Grid Type                 RadialGrid  ... OptM3 with GC (2021)
Angular Grid (max. ang.)         AngularGrid ... 3 (Lebedev-194)
Angular grid pruning method      GridPruning ... 4 (adaptive)
Weight generation scheme         WeightScheme... Becke
Basis function cutoff            BFCut       ... 1.0000e-11
Integration weight cutoff        WCut        ... 1.0000e-14
Angular grids for H and He will be reduced by one unit
Partially contracted basis set               ... on
Rotationally invariant grid construction     ... off

Total number of grid points                  ...   109341
Total number of batches                      ...     1726
Average number of points per batch           ...       63
Average number of grid points per atom       ...     2955
UseSFitting                                  ... on

Time for X-Grid setup             =    1.909 sec


--------------------
CPCM SOLVATION MODEL
--------------------
CPCM parameters:
  Epsilon                                         ...      47.2000
  Refrac                                          ...       1.4790
  Rsolv                                           ...       1.3000
  Surface type                                    ... GAUSSIAN VDW
  Epsilon function type                           ...         CPCM
Radii:
 Radius for C  used is    3.8550 Bohr (=   2.0400 Ang.)
 Radius for O  used is    3.4469 Bohr (=   1.8240 Ang.)
 Radius for H  used is    2.4944 Bohr (=   1.3200 Ang.)
 Radius for N  used is    3.5149 Bohr (=   1.8600 Ang.)
Calculating surface                               ...        done! (  0.0s)
GEPOL surface points                              ...         1974
GEPOL Volume                                      ...    2315.3012
GEPOL Surface-area                                ...    1203.9249
Calculating surface distance matrix               ...        done! (  0.1s)
Performing Cholesky decomposition & store         ...        done! (  0.2s)
Overall time for CPCM initialization              ...                 0.3s
--------------
SCF ITERATIONS
--------------
ITER       Energy         Delta-E        Max-DP      RMS-DP      [F,P]     Damp
               ***  Starting incremental Fock matrix formation  ***
  0  -1122.4343516607   0.000000000000 0.25719263  0.00086968  0.2843635 0.7000
  1  -1122.6718061568  -0.237454496118 0.20649051  0.00069276  0.1143963 0.7000
                               ***Turning on DIIS***
  2  -1122.7609408828  -0.089134725972 0.25233834  0.00112829  0.0326740 0.0000
  3  -1122.9167435109  -0.155802628069 0.14413424  0.00048869  0.0556724 0.0000
  4  -1122.9419783317  -0.025234820887 0.01392564  0.00014797  0.0149712 0.0000
  5  -1122.9441036142  -0.002125282473 0.01327330  0.00005499  0.0056495 0.0000
                      *** Initiating the SOSCF procedure ***
                           *** Shutting down DIIS ***
                      *** Re-Reading the Fockian *** 
                      *** Removing any level shift *** 
ITER      Energy       Delta-E        Grad      Rot      Max-DP    RMS-DP
  6  -1122.94422181  -0.0001181938  0.000292  0.000292  0.001239  0.000017
               *** Restarting incremental Fock matrix formation ***
  7  -1122.94419301   0.0000288007  0.000228  0.001127  0.001470  0.000018
  8  -1122.94419188   0.0000011227  0.000351  0.000626  0.000932  0.000006
  9  -1122.94419577  -0.0000038813  0.000071  0.000217  0.000592  0.000004
 10  -1122.94419552   0.0000002508  0.000066  0.000091  0.000540  0.000002
 11  -1122.94419594  -0.0000004292  0.000006  0.000016  0.000166  0.000001
 12  -1122.94419595  -0.0000000081  0.000008  0.000013  0.000103  0.000001
                  ***Gradient check signals convergence***
              ***Rediagonalizing the Fockian in SOSCF/NRSCF***

               *****************************************************
               *                     SUCCESS                       *
               *           SCF CONVERGED AFTER  13 CYCLES          *
               *****************************************************

Old exchange energy                            =    -35.545513935 Eh
New exchange energy                            =    -35.545517736 Eh
Exchange energy change after final integration =     -0.000003801 Eh
Total energy after final integration           =  -1122.944199739 Eh
Final COS-X integration done in                =    10.534 sec

----------------
TOTAL SCF ENERGY
----------------

Total Energy       :        -1122.94419974 Eh          -30556.86516 eV

Components:
Nuclear Repulsion  :         1934.07057799 Eh           52628.73602 eV
Electronic Energy  :        -3057.01477773 Eh          -83185.60118 eV
One Electron Energy:        -5379.22240975 Eh         -146376.08339 eV
Two Electron Energy:         2322.20763203 Eh           63190.48221 eV
Max COSX asymmetry :            0.00000236 Eh               0.00006 eV
CPCM Dielectric    :           -0.03073015 Eh              -0.83621 eV

Virial components:
Potential Energy   :        -2241.16510178 Eh          -60985.20285 eV
Kinetic Energy     :         1118.22090204 Eh           30428.33769 eV
Virial Ratio       :            2.00422394


DFT components:
N(Alpha)           :       81.000087400249 electrons
N(Beta)            :       81.000087400249 electrons
N(Total)           :      162.000174800499 electrons
E(X)               :     -106.518789091226 Eh       
E(C)               :       -5.500221299985 Eh       
E(XC)              :     -112.019010391211 Eh       
DFET-embed. en.    :        0.000000000000 Eh       
CPCM Solvation Model Properties:
Surface-charge          :           -0.02743130
Charge-correction       :           -0.00022215 Eh              -0.00604 eV
Free-energy (cav+disp)  :  This term is not implemented in the current solvation scheme

---------------
SCF CONVERGENCE
---------------

  Last Energy change         ...    1.4950e-08  Tolerance :   1.0000e-08
  Last MAX-Density change    ...    1.2212e-15  Tolerance :   1.0000e-07
  Last RMS-Density change    ...    1.4390e-17  Tolerance :   5.0000e-09
  Last Orbital Gradient      ...    2.2351e-06  Tolerance :   1.0000e-05
  Last Orbital Rotation      ...    6.3775e-06  Tolerance :   1.0000e-05

             **** THE GBW FILE WAS UPDATED (4_CO2Me_free/4_CO2Me_free.gbw) ****
             **** DENSITY 4_CO2Me_free/4_CO2Me_free.scfp WAS UPDATED ****
             **** ENERGY FILE WAS UPDATED (4_CO2Me_free/4_CO2Me_free.en.tmp) ****
             **** THE GBW FILE WAS UPDATED (4_CO2Me_free/4_CO2Me_free.gbw) ****
             **** DENSITY 4_CO2Me_free/4_CO2Me_free.scfp WAS UPDATED ****
----------------
ORBITAL ENERGIES
----------------

  NO   OCC          E(Eh)            E(eV) 
   0   2.0000     -19.296223      -525.0769 
   1   2.0000     -19.273848      -524.4681 
   2   2.0000     -19.268241      -524.3155 
   3   2.0000     -19.247851      -523.7607 
   4   2.0000     -19.247457      -523.7499 
   5   2.0000     -19.211115      -522.7610 
   6   2.0000     -19.206979      -522.6485 
   7   2.0000     -14.615732      -397.7143 
   8   2.0000     -10.372536      -282.2511 
   9   2.0000     -10.367673      -282.1187 
  10   2.0000     -10.318307      -280.7754 
  11   2.0000     -10.297239      -280.2021 
  12   2.0000     -10.293728      -280.1066 
  13   2.0000     -10.275007      -279.5972 
  14   2.0000     -10.274526      -279.5841 
  15   2.0000     -10.272714      -279.5348 
  16   2.0000     -10.267414      -279.3905 
  17   2.0000     -10.244244      -278.7601 
  18   2.0000     -10.233657      -278.4720 
  19   2.0000     -10.231393      -278.4104 
  20   2.0000     -10.227695      -278.3097 
  21   2.0000     -10.223409      -278.1931 
  22   2.0000      -1.262276       -34.3483 
  23   2.0000      -1.164498       -31.6876 
  24   2.0000      -1.157459       -31.4960 
  25   2.0000      -1.120155       -30.4810 
  26   2.0000      -1.110636       -30.2220 
  27   2.0000      -1.070119       -29.1194 
  28   2.0000      -1.065067       -28.9819 
  29   2.0000      -0.931549       -25.3487 
  30   2.0000      -0.893947       -24.3255 
  31   2.0000      -0.848599       -23.0916 
  32   2.0000      -0.795840       -21.6559 
  33   2.0000      -0.781631       -21.2693 
  34   2.0000      -0.778418       -21.1818 
  35   2.0000      -0.758466       -20.6389 
  36   2.0000      -0.724381       -19.7114 
  37   2.0000      -0.707230       -19.2447 
  38   2.0000      -0.677169       -18.4267 
  39   2.0000      -0.634945       -17.2777 
  40   2.0000      -0.629491       -17.1293 
  41   2.0000      -0.614941       -16.7334 
  42   2.0000      -0.595817       -16.2130 
  43   2.0000      -0.581063       -15.8115 
  44   2.0000      -0.577396       -15.7118 
  45   2.0000      -0.558402       -15.1949 
  46   2.0000      -0.551205       -14.9991 
  47   2.0000      -0.527478       -14.3534 
  48   2.0000      -0.524902       -14.2833 
  49   2.0000      -0.519838       -14.1455 
  50   2.0000      -0.512853       -13.9554 
  51   2.0000      -0.509834       -13.8733 
  52   2.0000      -0.508308       -13.8318 
  53   2.0000      -0.501199       -13.6383 
  54   2.0000      -0.489984       -13.3331 
  55   2.0000      -0.479942       -13.0599 
  56   2.0000      -0.467394       -12.7184 
  57   2.0000      -0.461942       -12.5701 
  58   2.0000      -0.451875       -12.2962 
  59   2.0000      -0.446321       -12.1450 
  60   2.0000      -0.438132       -11.9222 
  61   2.0000      -0.433539       -11.7972 
  62   2.0000      -0.422633       -11.5004 
  63   2.0000      -0.418196       -11.3797 
  64   2.0000      -0.408996       -11.1294 
  65   2.0000      -0.392306       -10.6752 
  66   2.0000      -0.387565       -10.5462 
  67   2.0000      -0.385057       -10.4779 
  68   2.0000      -0.383610       -10.4386 
  69   2.0000      -0.371807       -10.1174 
  70   2.0000      -0.370407       -10.0793 
  71   2.0000      -0.348811        -9.4916 
  72   2.0000      -0.344142        -9.3646 
  73   2.0000      -0.339991        -9.2516 
  74   2.0000      -0.335994        -9.1429 
  75   2.0000      -0.334303        -9.0968 
  76   2.0000      -0.311948        -8.4885 
  77   2.0000      -0.309638        -8.4257 
  78   2.0000      -0.275966        -7.5094 
  79   2.0000      -0.270310        -7.3555 
  80   2.0000      -0.242978        -6.6118 
  81   0.0000      -0.073284        -1.9942 
  82   0.0000      -0.020640        -0.5616 
  83   0.0000      -0.006070        -0.1652 
  84   0.0000       0.001756         0.0478 
  85   0.0000       0.043046         1.1713 
  86   0.0000       0.053755         1.4627 
  87   0.0000       0.058099         1.5809 
  88   0.0000       0.064448         1.7537 
  89   0.0000       0.067343         1.8325 
  90   0.0000       0.070888         1.9290 
  91   0.0000       0.078551         2.1375 
  92   0.0000       0.087755         2.3879 
  93   0.0000       0.090381         2.4594 
  94   0.0000       0.098937         2.6922 
  95   0.0000       0.103185         2.8078 
  96   0.0000       0.111802         3.0423 
  97   0.0000       0.116403         3.1675 
  98   0.0000       0.121318         3.3012 
  99   0.0000       0.128778         3.5042 
 100   0.0000       0.133929         3.6444 
 101   0.0000       0.134193         3.6516 
 102   0.0000       0.138579         3.7709 
 103   0.0000       0.139729         3.8022 
 104   0.0000       0.144186         3.9235 
 105   0.0000       0.146356         3.9826 
 106   0.0000       0.151660         4.1269 
 107   0.0000       0.155477         4.2307 
 108   0.0000       0.166489         4.5304 
 109   0.0000       0.179237         4.8773 
 110   0.0000       0.191140         5.2012 
 111   0.0000       0.192780         5.2458 
 112   0.0000       0.198819         5.4101 
 113   0.0000       0.206062         5.6072 
 114   0.0000       0.209308         5.6956 
 115   0.0000       0.213152         5.8002 
 116   0.0000       0.219961         5.9854 
 117   0.0000       0.221764         6.0345 
 118   0.0000       0.225496         6.1361 
 119   0.0000       0.232839         6.3359 
 120   0.0000       0.239014         6.5039 
 121   0.0000       0.242517         6.5992 
 122   0.0000       0.248475         6.7613 
 123   0.0000       0.251970         6.8564 
 124   0.0000       0.256007         6.9663 
 125   0.0000       0.265757         7.2316 
 126   0.0000       0.269029         7.3206 
 127   0.0000       0.275673         7.5014 
 128   0.0000       0.280752         7.6396 
 129   0.0000       0.285826         7.7777 
 130   0.0000       0.290662         7.9093 
 131   0.0000       0.293750         7.9933 
 132   0.0000       0.295002         8.0274 
 133   0.0000       0.305529         8.3139 
 134   0.0000       0.308733         8.4011 
 135   0.0000       0.310583         8.4514 
 136   0.0000       0.322279         8.7697 
 137   0.0000       0.324642         8.8340 
 138   0.0000       0.327565         8.9135 
 139   0.0000       0.332856         9.0575 
 140   0.0000       0.337581         9.1860 
 141   0.0000       0.348383         9.4800 
 142   0.0000       0.354611         9.6495 
 143   0.0000       0.356591         9.7033 
 144   0.0000       0.360729         9.8159 
 145   0.0000       0.365373         9.9423 
 146   0.0000       0.373530        10.1643 
 147   0.0000       0.376973        10.2580 
 148   0.0000       0.384113        10.4522 
 149   0.0000       0.389464        10.5979 
 150   0.0000       0.395346        10.7579 
 151   0.0000       0.398081        10.8323 
 152   0.0000       0.400646        10.9021 
 153   0.0000       0.401511        10.9257 
 154   0.0000       0.404843        11.0163 
 155   0.0000       0.413327        11.2472 
 156   0.0000       0.414382        11.2759 
 157   0.0000       0.419307        11.4099 
 158   0.0000       0.426819        11.6143 
 159   0.0000       0.428481        11.6595 
 160   0.0000       0.434037        11.8107 
 161   0.0000       0.436345        11.8735 
 162   0.0000       0.442964        12.0537 
 163   0.0000       0.451197        12.2777 
 164   0.0000       0.456831        12.4310 
 165   0.0000       0.459125        12.4934 
 166   0.0000       0.464414        12.6374 
 167   0.0000       0.467920        12.7328 
 168   0.0000       0.470473        12.8022 
 169   0.0000       0.473249        12.8778 
 170   0.0000       0.478952        13.0330 
 171   0.0000       0.479925        13.0594 
 172   0.0000       0.480909        13.0862 
 173   0.0000       0.485921        13.2226 
 174   0.0000       0.492081        13.3902 
 175   0.0000       0.496061        13.4985 
 176   0.0000       0.497302        13.5323 
 177   0.0000       0.502018        13.6606 
 178   0.0000       0.507701        13.8152 
 179   0.0000       0.510720        13.8974 
 180   0.0000       0.518652        14.1132 
 181   0.0000       0.524763        14.2795 
 182   0.0000       0.534885        14.5550 
 183   0.0000       0.543505        14.7895 
 184   0.0000       0.548592        14.9280 
 185   0.0000       0.557589        15.1728 
 186   0.0000       0.559896        15.2355 
 187   0.0000       0.570392        15.5212 
 188   0.0000       0.576945        15.6995 
 189   0.0000       0.579835        15.7781 
 190   0.0000       0.586482        15.9590 
 191   0.0000       0.590129        16.0582 
 192   0.0000       0.601926        16.3792 
 193   0.0000       0.611616        16.6429 
 194   0.0000       0.614569        16.7233 
 195   0.0000       0.624297        16.9880 
 196   0.0000       0.627781        17.0828 
 197   0.0000       0.638341        17.3701 
 198   0.0000       0.644844        17.5471 
 199   0.0000       0.647377        17.6160 
 200   0.0000       0.650081        17.6896 
 201   0.0000       0.664041        18.0695 
 202   0.0000       0.674626        18.3575 
 203   0.0000       0.676937        18.4204 
 204   0.0000       0.680119        18.5070 
 205   0.0000       0.690000        18.7759 
 206   0.0000       0.698629        19.0107 
 207   0.0000       0.704696        19.1757 
 208   0.0000       0.711627        19.3644 
 209   0.0000       0.718730        19.5576 
 210   0.0000       0.729792        19.8586 
 211   0.0000       0.736997        20.0547 
 212   0.0000       0.744786        20.2666 
 213   0.0000       0.748010        20.3544 
 214   0.0000       0.757385        20.6095 
 215   0.0000       0.769861        20.9490 
 216   0.0000       0.772624        21.0242 
 217   0.0000       0.778536        21.1850 
 218   0.0000       0.789416        21.4811 
 219   0.0000       0.792002        21.5515 
 220   0.0000       0.794782        21.6271 
 221   0.0000       0.807044        21.9608 
 222   0.0000       0.818831        22.2815 
 223   0.0000       0.823117        22.3981 
 224   0.0000       0.830200        22.5909 
 225   0.0000       0.834690        22.7131 
 226   0.0000       0.840119        22.8608 
 227   0.0000       0.847446        23.0602 
 228   0.0000       0.856034        23.2939 
 229   0.0000       0.866031        23.5659 
 230   0.0000       0.871597        23.7174 
 231   0.0000       0.873818        23.7778 
 232   0.0000       0.886536        24.1239 
 233   0.0000       0.892983        24.2993 
 234   0.0000       0.895191        24.3594 
 235   0.0000       0.899783        24.4843 
 236   0.0000       0.909209        24.7408 
 237   0.0000       0.912907        24.8415 
 238   0.0000       0.922019        25.0894 
 239   0.0000       0.926584        25.2136 
 240   0.0000       0.941039        25.6070 
 241   0.0000       0.942269        25.6405 
 242   0.0000       0.958169        26.0731 
 243   0.0000       0.962355        26.1870 
 244   0.0000       0.975128        26.5346 
 245   0.0000       0.985800        26.8250 
 246   0.0000       0.986415        26.8417 
 247   0.0000       0.996463        27.1151 
 248   0.0000       1.002523        27.2800 
 249   0.0000       1.004440        27.3322 
 250   0.0000       1.020483        27.7688 
 251   0.0000       1.025973        27.9182 
 252   0.0000       1.035196        28.1691 
 253   0.0000       1.046808        28.4851 
 254   0.0000       1.048391        28.5282 
 255   0.0000       1.065774        29.0012 
 256   0.0000       1.075747        29.2726 
 257   0.0000       1.077275        29.3142 
 258   0.0000       1.086551        29.5666 
 259   0.0000       1.090850        29.6835 
 260   0.0000       1.094354        29.7789 
 261   0.0000       1.108140        30.1540 
 262   0.0000       1.117244        30.4018 
 263   0.0000       1.124191        30.5908 
 264   0.0000       1.139294        31.0018 
 265   0.0000       1.147094        31.2140 
 266   0.0000       1.168035        31.7839 
 267   0.0000       1.174924        31.9713 
 268   0.0000       1.179260        32.0893 
 269   0.0000       1.204452        32.7748 
 270   0.0000       1.207310        32.8526 
 271   0.0000       1.217775        33.1374 
 272   0.0000       1.225533        33.3484 
 273   0.0000       1.228997        33.4427 
 274   0.0000       1.236373        33.6434 
 275   0.0000       1.248721        33.9794 
 276   0.0000       1.257678        34.2232 
 277   0.0000       1.265665        34.4405 
 278   0.0000       1.276395        34.7325 
 279   0.0000       1.292636        35.1744 
 280   0.0000       1.299963        35.3738 
 281   0.0000       1.303890        35.4806 
 282   0.0000       1.324669        36.0461 
 283   0.0000       1.334055        36.3015 
 284   0.0000       1.338556        36.4240 
 285   0.0000       1.347871        36.6774 
 286   0.0000       1.375851        37.4388 
 287   0.0000       1.384180        37.6654 
 288   0.0000       1.394883        37.9567 
 289   0.0000       1.410886        38.3922 
 290   0.0000       1.418008        38.5860 
 291   0.0000       1.429648        38.9027 
 292   0.0000       1.438219        39.1359 
 293   0.0000       1.443729        39.2859 
 294   0.0000       1.447429        39.3866 
 295   0.0000       1.456102        39.6226 
 296   0.0000       1.469565        39.9889 
 297   0.0000       1.476690        40.1828 
 298   0.0000       1.480266        40.2801 
 299   0.0000       1.489191        40.5230 
 300   0.0000       1.494442        40.6658 
 301   0.0000       1.501423        40.8558 
 302   0.0000       1.505461        40.9657 
 303   0.0000       1.512951        41.1695 
 304   0.0000       1.516190        41.2576 
 305   0.0000       1.521658        41.4064 
 306   0.0000       1.526047        41.5259 
 307   0.0000       1.530649        41.6511 
 308   0.0000       1.533333        41.7241 
 309   0.0000       1.537456        41.8363 
 310   0.0000       1.538983        41.8778 
 311   0.0000       1.545377        42.0518 
 312   0.0000       1.557917        42.3931 
 313   0.0000       1.563237        42.5378 
 314   0.0000       1.568009        42.6677 
 315   0.0000       1.570769        42.7428 
 316   0.0000       1.586637        43.1746 
 317   0.0000       1.591669        43.3115 
 318   0.0000       1.595693        43.4210 
 319   0.0000       1.607157        43.7330 
 320   0.0000       1.608557        43.7710 
 321   0.0000       1.611900        43.8620 
 322   0.0000       1.624220        44.1973 
 323   0.0000       1.637555        44.5601 
 324   0.0000       1.639989        44.6264 
 325   0.0000       1.643882        44.7323 
 326   0.0000       1.654932        45.0330 
 327   0.0000       1.668855        45.4118 
 328   0.0000       1.686295        45.8864 
 329   0.0000       1.694374        46.1063 
 330   0.0000       1.707980        46.4765 
 331   0.0000       1.712175        46.5907 
 332   0.0000       1.721395        46.8415 
 333   0.0000       1.727717        47.0136 
 334   0.0000       1.731956        47.1289 
 335   0.0000       1.741469        47.3878 
 336   0.0000       1.744728        47.4765 
 337   0.0000       1.753698        47.7205 
 338   0.0000       1.758647        47.8552 
 339   0.0000       1.765472        48.0409 
 340   0.0000       1.784607        48.5616 
 341   0.0000       1.796082        48.8739 
 342   0.0000       1.813086        49.3366 
 343   0.0000       1.825061        49.6624 
 344   0.0000       1.843265        50.1578 
 345   0.0000       1.852014        50.3959 
 346   0.0000       1.855795        50.4987 
 347   0.0000       1.875491        51.0347 
 348   0.0000       1.889556        51.4174 
 349   0.0000       1.893122        51.5145 
 350   0.0000       1.896841        51.6157 
 351   0.0000       1.908028        51.9201 
 352   0.0000       1.914804        52.1045 
 353   0.0000       1.917208        52.1699 
 354   0.0000       1.934917        52.6518 
 355   0.0000       1.943386        52.8822 
 356   0.0000       1.947053        52.9820 
 357   0.0000       1.952124        53.1200 
 358   0.0000       1.971394        53.6443 
 359   0.0000       1.980838        53.9013 
 360   0.0000       1.986555        54.0569 
 361   0.0000       1.992102        54.2078 
 362   0.0000       2.000899        54.4472 
 363   0.0000       2.002631        54.4944 
 364   0.0000       2.005369        54.5689 
 365   0.0000       2.013324        54.7853 
 366   0.0000       2.021462        55.0068 
 367   0.0000       2.036769        55.4233 
 368   0.0000       2.044729        55.6399 
 369   0.0000       2.057818        55.9961 
 370   0.0000       2.060744        56.0757 
 371   0.0000       2.068571        56.2887 
 372   0.0000       2.078655        56.5631 
 373   0.0000       2.087067        56.7920 
 374   0.0000       2.104386        57.2633 
 375   0.0000       2.108309        57.3700 
 376   0.0000       2.118502        57.6474 
 377   0.0000       2.127655        57.8964 
 378   0.0000       2.130581        57.9761 
 379   0.0000       2.135086        58.0987 
 380   0.0000       2.142194        58.2921 
 381   0.0000       2.145112        58.3715 
 382   0.0000       2.163443        58.8703 
 383   0.0000       2.164763        58.9062 
 384   0.0000       2.173665        59.1484 
 385   0.0000       2.182148        59.3793 
 386   0.0000       2.199244        59.8445 
 387   0.0000       2.205293        60.0091 
 388   0.0000       2.222915        60.4886 
 389   0.0000       2.230204        60.6869 
 390   0.0000       2.244132        61.0659 
 391   0.0000       2.255540        61.3764 
 392   0.0000       2.262652        61.5699 
 393   0.0000       2.265225        61.6399 
 394   0.0000       2.270563        61.7852 
 395   0.0000       2.280401        62.0529 
 396   0.0000       2.284995        62.1779 
 397   0.0000       2.290265        62.3213 
 398   0.0000       2.293730        62.4156 
 399   0.0000       2.311230        62.8918 
 400   0.0000       2.323267        63.2193 
 401   0.0000       2.334337        63.5205 
 402   0.0000       2.337577        63.6087 
 403   0.0000       2.347656        63.8830 
 404   0.0000       2.353636        64.0457 
 405   0.0000       2.363285        64.3082 
 406   0.0000       2.374388        64.6104 
 407   0.0000       2.384857        64.8953 
 408   0.0000       2.394888        65.1682 
 409   0.0000       2.405824        65.4658 
 410   0.0000       2.417072        65.7719 
 411   0.0000       2.425917        66.0126 
 412   0.0000       2.431504        66.1646 
 413   0.0000       2.436859        66.3103 
 414   0.0000       2.452986        66.7492 
 415   0.0000       2.458078        66.8877 
 416   0.0000       2.472752        67.2870 
 417   0.0000       2.477850        67.4257 
 418   0.0000       2.491696        67.8025 
 419   0.0000       2.499049        68.0026 
 420   0.0000       2.510848        68.3236 
 421   0.0000       2.522848        68.6502 
 422   0.0000       2.530310        68.8532 
 423   0.0000       2.545897        69.2774 
 424   0.0000       2.550049        69.3904 
 425   0.0000       2.555399        69.5359 
 426   0.0000       2.567897        69.8760 
 427   0.0000       2.568259        69.8859 
 428   0.0000       2.575412        70.0805 
 429   0.0000       2.576968        70.1229 
[...]
     90       0.000002   0.000049  -0.000037
     91      -0.000006   0.000001   0.000004
     92       0.000009   0.000025  -0.000014
     93      -0.000004  -0.000022   0.000018
     94      -0.000003  -0.000008   0.000006
     95      -0.000002  -0.000001  -0.000000
     96      -0.000006  -0.000015   0.000010
     97       0.000005   0.000009  -0.000006
     98      -0.000008  -0.000014   0.000007
     99       0.000013   0.000014  -0.000007
    100       0.000013  -0.000018   0.000016
    101      -0.000023   0.000000  -0.000008
    102      -0.000123  -0.000104   0.000041
    103       0.000018   0.000017  -0.000007
    104       0.000161   0.000110  -0.000028
    105       0.000006  -0.000033   0.000031
    106       0.000020  -0.000003   0.000014
    107       0.000010  -0.000021   0.000025
    108      -0.000033   0.000019  -0.000020
    109      -0.000199   0.000170  -0.000168
    110       0.000092  -0.000082   0.000080


-----------
IR SPECTRUM
-----------

 Mode   freq       eps      Int      T**2         TX        TY        TZ
       cm**-1   L/(mol*cm) km/mol    a.u.
----------------------------------------------------------------------------
  6:     18.14   0.000232    1.17  0.003988  (-0.054433  0.013064 -0.029223)
  7:     24.49   0.000688    3.48  0.008765  ( 0.065083 -0.041763  0.052773)
  8:     35.00   0.000199    1.01  0.001777  (-0.032547  0.000547 -0.026782)
  9:     49.62   0.000884    4.47  0.005559  (-0.036032  0.036926  0.053826)
 10:     52.72   0.000215    1.08  0.001271  ( 0.000305  0.004811  0.035321)
 11:     73.33   0.000198    1.00  0.000843  (-0.028010 -0.003458  0.006829)
 12:     99.67   0.000908    4.59  0.002842  ( 0.045917 -0.024873  0.010729)
 13:    102.92   0.000739    3.74  0.002242  (-0.009600  0.001951 -0.046322)
 14:    116.09   0.000076    0.38  0.000204  (-0.000146 -0.014107 -0.002205)
 15:    132.69   0.000049    0.25  0.000115  ( 0.006733  0.001956 -0.008101)
 16:    145.26   0.000206    1.04  0.000443  ( 0.006917  0.005155  0.019210)
 17:    150.71   0.000146    0.74  0.000302  (-0.013260  0.010066 -0.004966)
 18:    158.98   0.000122    0.62  0.000240  ( 0.014041 -0.003470  0.005552)
 19:    173.58   0.001049    5.30  0.001886  ( 0.022711  0.008833  0.035942)
 20:    195.72   0.000222    1.12  0.000353  ( 0.011718 -0.012595  0.007578)
 21:    223.11   0.001925    9.73  0.002692  ( 0.039963 -0.032037  0.008280)
 22:    243.40   0.001841    9.30  0.002361  (-0.008028  0.042106 -0.022875)
 23:    253.19   0.001051    5.31  0.001295  (-0.025751  0.020035 -0.015191)
 24:    294.73   0.001280    6.47  0.001356  (-0.010092 -0.023684  0.026322)
 25:    306.12   0.000813    4.11  0.000828  (-0.025444 -0.013450 -0.000164)
 26:    313.54   0.001402    7.08  0.001395  ( 0.007758 -0.030429  0.020222)
 27:    337.15   0.005963   30.13  0.005519  ( 0.006536  0.059578  0.043898)
 28:    363.33   0.001423    7.19  0.001222  ( 0.011686 -0.015706 -0.028960)
 29:    374.20   0.003845   19.43  0.003207  (-0.033972  0.043668  0.012081)
 30:    427.30   0.000540    2.73  0.000394  (-0.000033 -0.000824  0.019844)
 31:    461.20   0.001734    8.76  0.001173  ( 0.031982 -0.009791  0.007397)
 32:    480.32   0.001713    8.66  0.001113  (-0.023042  0.017566 -0.016534)
 33:    501.77   0.002943   14.87  0.001830  ( 0.027500  0.015612  0.028815)
 34:    561.85   0.001059    5.35  0.000588  (-0.023140 -0.003936 -0.006106)
 35:    575.83   0.004061   20.52  0.002201  ( 0.024986  0.016982  0.035891)
 36:    596.83   0.005358   27.08  0.002802  ( 0.050777  0.014152  0.004809)
 37:    617.23   0.001409    7.12  0.000712  (-0.019610  0.018012 -0.001871)
 38:    684.55   0.002267   11.46  0.001033  ( 0.023985 -0.016067 -0.014144)
 39:    702.14   0.000932    4.71  0.000414  ( 0.010412 -0.010755 -0.013794)
 40:    732.27   0.000865    4.37  0.000369  ( 0.004532  0.016684 -0.008346)
 41:    759.44   0.001969    9.95  0.000809  (-0.008018 -0.026022  0.008237)
 42:    771.03   0.029915  151.18  0.012108  (-0.085678  0.039811 -0.056410)
 43:    777.69   0.012368   62.50  0.004963  (-0.063526 -0.029287  0.008331)
 44:    786.83   0.012315   62.23  0.004884  ( 0.061965 -0.002593  0.032215)
 45:    792.95   0.022455  113.48  0.008837  ( 0.074195 -0.038020 -0.043434)
 46:    819.17   0.002287   11.56  0.000871  ( 0.010763 -0.014335 -0.023448)
 47:    851.62   0.012209   61.70  0.004474  (-0.066087  0.010209 -0.001507)
 48:    874.08   0.001739    8.79  0.000621  ( 0.024719  0.001582 -0.002724)
 49:    889.57   0.011314   57.18  0.003969  ( 0.060671  0.006265 -0.015771)
 50:    910.10   0.016964   85.73  0.005817  (-0.059035  0.048011 -0.005150)
 51:    924.84   0.002971   15.01  0.001002  (-0.000411 -0.002750 -0.031539)
 52:    965.04   0.000466    2.35  0.000151  (-0.012052  0.001894 -0.001334)
 53:    993.24   0.000019    0.10  0.000006  (-0.001607 -0.001691  0.000753)
 54:   1013.70   0.006353   32.10  0.001956  (-0.041274 -0.013202  0.008818)
 55:   1039.14   0.032593  164.71  0.009788  ( 0.096702 -0.010845 -0.017863)
 56:   1061.45   0.014084   71.17  0.004141  (-0.002509 -0.031809 -0.055880)
 57:   1071.22   0.013338   67.40  0.003886  ( 0.032253  0.051865 -0.012463)
 58:   1084.46   0.007566   38.24  0.002177  (-0.016188 -0.009617  0.042693)
 59:   1093.18   0.010707   54.11  0.003056  ( 0.010876 -0.040303  0.036247)
 60:   1139.64   0.013982   70.66  0.003829  ( 0.026784  0.044517 -0.033607)
 61:   1170.65   0.000128    0.64  0.000034  ( 0.000881 -0.004446 -0.003667)
 62:   1170.95   0.000299    1.51  0.000080  (-0.002513  0.004101 -0.007526)
 63:   1171.79   0.000154    0.78  0.000041  (-0.005436  0.002599 -0.002193)
 64:   1175.60   0.001397    7.06  0.000371  ( 0.013225  0.013855 -0.002008)
 65:   1179.28   0.003920   19.81  0.001037  (-0.005852 -0.005157  0.031249)
 66:   1198.09   0.002040   10.31  0.000531  (-0.000225  0.020039 -0.011394)
 67:   1208.89   0.001012    5.12  0.000261  (-0.016000  0.002273 -0.000326)
 68:   1214.11   0.001624    8.21  0.000417  (-0.015493 -0.005973  0.011906)
 69:   1221.59   0.003037   15.35  0.000776  ( 0.004673  0.000102 -0.027457)
 70:   1241.62   0.059642  301.41  0.014990  (-0.073113  0.088950 -0.041625)
 71:   1266.85   0.106833  539.89  0.026316  (-0.067997  0.135594 -0.057504)
 72:   1295.73   0.085760  433.39  0.020654  ( 0.050089  0.088503 -0.101551)
 73:   1306.29   0.017752   89.71  0.004241  (-0.054226 -0.003979  0.035841)
 74:   1319.98   0.059878  302.60  0.014156  (-0.015909  0.083907  0.082841)
 75:   1322.58   0.045764  231.27  0.010798  (-0.004485  0.101561  0.021524)
 76:   1354.27   0.002164   10.94  0.000499  (-0.011512  0.001742 -0.019056)
 77:   1359.20   0.024685  124.75  0.005668  ( 0.041221  0.060017  0.019138)
 78:   1391.25   0.011663   58.94  0.002616  ( 0.038955  0.015284 -0.029412)
 79:   1435.74   0.024385  123.23  0.005300  (-0.060286  0.023211 -0.033571)
 80:   1464.42   0.003230   16.32  0.000688  ( 0.005610 -0.017313 -0.018897)
 81:   1465.31   0.006180   31.23  0.001316  (-0.007452 -0.008028  0.034585)
 82:   1466.55   0.003600   18.19  0.000766  (-0.023456  0.010238 -0.010538)
 83:   1469.59   0.016366   82.71  0.003475  ( 0.022689 -0.051969 -0.016117)
 84:   1470.40   0.015632   79.00  0.003318  (-0.031593  0.024409 -0.041517)
 85:   1472.45   0.002525   12.76  0.000535  (-0.010898 -0.019264  0.006731)
 86:   1473.79   0.003127   15.80  0.000662  ( 0.020843 -0.010503  0.010831)
 87:   1476.88   0.020838  105.31  0.004403  (-0.061013  0.016232 -0.020423)
 88:   1483.56   0.005055   25.55  0.001063  ( 0.011213  0.000074 -0.030620)
 89:   1498.89   0.013898   70.24  0.002894  ( 0.035585  0.011081 -0.038788)
 90:   1537.05   0.037165  187.82  0.007546  (-0.048088 -0.008332  0.071859)
 91:   1649.11   0.011609   58.67  0.002197  ( 0.015504  0.039463 -0.019980)
 92:   1663.61   0.021623  109.27  0.004056  (-0.017526 -0.022579  0.056912)
 93:   1680.96   0.121775  615.40  0.022607  (-0.057538  0.127547 -0.055031)
 94:   1788.66   0.242511  1225.55  0.042310  ( 0.122372  0.155790 -0.055362)
 95:   1797.36   0.038424  194.18  0.006671  ( 0.053143  0.044466 -0.043242)
 96:   3038.00   0.012045   60.87  0.001237  ( 0.020338  0.025881 -0.012402)
 97:   3071.69   0.005636   28.48  0.000573  (-0.020412  0.008869 -0.008792)
 98:   3077.16   0.004870   24.61  0.000494  (-0.006225  0.012115  0.017560)
 99:   3110.03   0.007080   35.78  0.000710  (-0.021314  0.010616 -0.011977)
100:   3127.08   0.000525    2.65  0.000052  (-0.002089 -0.006812  0.001284)
101:   3143.56   0.000377    1.90  0.000037  (-0.002373 -0.001869  0.005316)
102:   3154.57   0.003407   17.22  0.000337  ( 0.002808 -0.008571 -0.015989)
103:   3163.15   0.002985   15.09  0.000294  (-0.013718  0.006338 -0.008132)
104:   3167.57   0.003666   18.53  0.000361  (-0.006838  0.005322  0.016914)
105:   3187.06   0.000622    3.14  0.000061  (-0.003770 -0.006803  0.000629)
106:   3191.45   0.002058   10.40  0.000201  (-0.003200 -0.012343  0.006214)
107:   3196.83   0.001687    8.52  0.000165  ( 0.005495  0.011524 -0.001287)
108:   3197.13   0.001500    7.58  0.000146  ( 0.003079  0.010671  0.004798)
109:   3215.70   0.002682   13.56  0.000260  ( 0.006990 -0.002952 -0.014238)
110:   3230.80   0.000354    1.79  0.000034  ( 0.002958  0.004963 -0.000908)

* The epsilon (eps) is given for a Dirac delta lineshape.
** The dipole moment derivative (T) already includes vibrational overlap.

The first frequency considered to be a vibration is 6
The total number of vibrations considered is 105


--------------------------
THERMOCHEMISTRY AT 298.15K
--------------------------

Temperature         ... 298.15 K
Pressure            ... 1.00 atm
Total Mass          ... 309.27 AMU

Throughout the following assumptions are being made:
  (1) The electronic state is orbitally nondegenerate
  (2) There are no thermally accessible electronically excited states
  (3) Hindered rotations indicated by low frequency modes are not
      treated as such but are treated as vibrations and this may
      cause some error
  (4) All equations used are the standard statistical mechanics
      equations for an ideal gas
  (5) All vibrations are strictly harmonic

freq.      18.14  E(vib)   ...       0.57 
freq.      24.49  E(vib)   ...       0.56 
freq.      35.00  E(vib)   ...       0.54 
freq.      49.62  E(vib)   ...       0.52 
freq.      52.72  E(vib)   ...       0.52 
freq.      73.33  E(vib)   ...       0.49 
freq.      99.67  E(vib)   ...       0.46 
freq.     102.92  E(vib)   ...       0.46 
freq.     116.09  E(vib)   ...       0.44 
freq.     132.69  E(vib)   ...       0.42 
freq.     145.26  E(vib)   ...       0.41 
freq.     150.71  E(vib)   ...       0.40 
freq.     158.98  E(vib)   ...       0.39 
freq.     173.58  E(vib)   ...       0.38 
freq.     195.72  E(vib)   ...       0.36 
freq.     223.11  E(vib)   ...       0.33 
freq.     243.40  E(vib)   ...       0.31 
freq.     253.19  E(vib)   ...       0.30 
freq.     294.73  E(vib)   ...       0.27 
freq.     306.12  E(vib)   ...       0.26 
freq.     313.54  E(vib)   ...       0.25 
freq.     337.15  E(vib)   ...       0.24 
freq.     363.33  E(vib)   ...       0.22 
freq.     374.20  E(vib)   ...       0.21 
freq.     427.30  E(vib)   ...       0.18 
freq.     461.20  E(vib)   ...       0.16 
freq.     480.32  E(vib)   ...       0.15 
freq.     501.77  E(vib)   ...       0.14 
freq.     561.85  E(vib)   ...       0.11 
freq.     575.83  E(vib)   ...       0.11 
freq.     596.83  E(vib)   ...       0.10 
freq.     617.23  E(vib)   ...       0.09 
freq.     684.55  E(vib)   ...       0.07 
freq.     702.14  E(vib)   ...       0.07 
freq.     732.27  E(vib)   ...       0.06 
freq.     759.44  E(vib)   ...       0.06 
freq.     771.03  E(vib)   ...       0.05 
freq.     777.69  E(vib)   ...       0.05 
freq.     786.83  E(vib)   ...       0.05 
freq.     792.95  E(vib)   ...       0.05 
freq.     819.17  E(vib)   ...       0.05 
freq.     851.62  E(vib)   ...       0.04 
freq.     874.08  E(vib)   ...       0.04 
freq.     889.57  E(vib)   ...       0.04 
freq.     910.10  E(vib)   ...       0.03 
freq.     924.84  E(vib)   ...       0.03 
freq.     965.04  E(vib)   ...       0.03 
freq.     993.24  E(vib)   ...       0.02 
freq.    1013.70  E(vib)   ...       0.02 
freq.    1039.14  E(vib)   ...       0.02 
freq.    1061.45  E(vib)   ...       0.02 
freq.    1071.22  E(vib)   ...       0.02 
freq.    1084.46  E(vib)   ...       0.02 
freq.    1093.18  E(vib)   ...       0.02 
freq.    1139.64  E(vib)   ...       0.01 
freq.    1170.65  E(vib)   ...       0.01 
freq.    1170.95  E(vib)   ...       0.01 
freq.    1171.79  E(vib)   ...       0.01 
freq.    1175.60  E(vib)   ...       0.01 
freq.    1179.28  E(vib)   ...       0.01 
freq.    1198.09  E(vib)   ...       0.01 
freq.    1208.89  E(vib)   ...       0.01 
freq.    1214.11  E(vib)   ...       0.01 
freq.    1221.59  E(vib)   ...       0.01 
freq.    1241.62  E(vib)   ...       0.01 
freq.    1266.85  E(vib)   ...       0.01 
freq.    1295.73  E(vib)   ...       0.01 
freq.    1306.29  E(vib)   ...       0.01 
freq.    1319.98  E(vib)   ...       0.01 
freq.    1322.58  E(vib)   ...       0.01 
freq.    1354.27  E(vib)   ...       0.01 
freq.    1359.20  E(vib)   ...       0.01 
freq.    1391.25  E(vib)   ...       0.00 
freq.    1435.74  E(vib)   ...       0.00 
freq.    1464.42  E(vib)   ...       0.00 
freq.    1465.31  E(vib)   ...       0.00 
freq.    1466.55  E(vib)   ...       0.00 
freq.    1469.59  E(vib)   ...       0.00 
freq.    1470.40  E(vib)   ...       0.00 
freq.    1472.45  E(vib)   ...       0.00 
freq.    1473.79  E(vib)   ...       0.00 
freq.    1476.88  E(vib)   ...       0.00 
freq.    1483.56  E(vib)   ...       0.00 
freq.    1498.89  E(vib)   ...       0.00 
freq.    1537.05  E(vib)   ...       0.00 
freq.    1649.11  E(vib)   ...       0.00 
freq.    1663.61  E(vib)   ...       0.00 
freq.    1680.96  E(vib)   ...       0.00 
freq.    1788.66  E(vib)   ...       0.00 
freq.    1797.36  E(vib)   ...       0.00 
freq.    3038.00  E(vib)   ...       0.00 
freq.    3071.69  E(vib)   ...       0.00 
freq.    3077.16  E(vib)   ...       0.00 
freq.    3110.03  E(vib)   ...       0.00 
freq.    3127.08  E(vib)   ...       0.00 
freq.    3143.56  E(vib)   ...       0.00 
freq.    3154.57  E(vib)   ...       0.00 
freq.    3163.15  E(vib)   ...       0.00 
freq.    3167.57  E(vib)   ...       0.00 
freq.    3187.06  E(vib)   ...       0.00 
freq.    3191.45  E(vib)   ...       0.00 
freq.    3196.83  E(vib)   ...       0.00 
freq.    3197.13  E(vib)   ...       0.00 
freq.    3215.70  E(vib)   ...       0.00 
freq.    3230.80  E(vib)   ...       0.00 

------------
INNER ENERGY
------------

The inner energy is: U= E(el) + E(ZPE) + E(vib) + E(rot) + E(trans)
    E(el)   - is the total energy from the electronic structure calculation
              = E(kin-el) + E(nuc-el) + E(el-el) + E(nuc-nuc)
    E(ZPE)  - the the zero temperature vibrational energy from the frequency calculation
    E(vib)  - the the finite temperature correction to E(ZPE) due to population
              of excited vibrational states
    E(rot)  - is the rotational thermal energy
    E(trans)- is the translational thermal energy

Summary of contributions to the inner energy U:
Electronic energy                ...  -1122.98432236 Eh
Zero point energy                ...      0.28552778 Eh     179.17 kcal/mol
Thermal vibrational correction   ...      0.01823645 Eh      11.44 kcal/mol
Thermal rotational correction    ...      0.00141627 Eh       0.89 kcal/mol
Thermal translational correction ...      0.00141627 Eh       0.89 kcal/mol
-----------------------------------------------------------------------
Total thermal energy                  -1122.67772559 Eh


Summary of corrections to the electronic energy:
(perhaps to be used in another calculation)
Total thermal correction                  0.02106899 Eh      13.22 kcal/mol
Non-thermal (ZPE) correction              0.28552778 Eh     179.17 kcal/mol
-----------------------------------------------------------------------
Total correction                          0.30659677 Eh     192.39 kcal/mol


--------
ENTHALPY
--------

The enthalpy is H = U + kB*T
                kB is Boltzmann's constant
Total free energy                 ...  -1122.67772559 Eh 
Thermal Enthalpy correction       ...      0.00094421 Eh       0.59 kcal/mol
-----------------------------------------------------------------------
Total Enthalpy                    ...  -1122.67678138 Eh


Note: Only C1 symmetry has been detected, increase convergence thresholds 
      if your molecule has a higher symmetry. Symmetry factor of 1.0 is   
      used for the rotational entropy correction. 
 

Note: Rotational entropy computed according to Herzberg 
Infrared and Raman Spectra, Chapter V,1, Van Nostrand Reinhold, 1945 
Point Group:  C1, Symmetry Number:   1  
Rotational constants in cm-1:     0.011014     0.008464     0.006356 

Vibrational entropy computed according to the QRRHO of S. Grimme
Chem.Eur.J. 2012 18 9955


-------
ENTROPY
-------

The entropy contributions are T*S = T*(S(el)+S(vib)+S(rot)+S(trans))
     S(el)   - electronic entropy
     S(vib)  - vibrational entropy
     S(rot)  - rotational entropy
     S(trans)- translational entropy
The entropies will be listed as multiplied by the temperature to get
units of energy

Electronic entropy                ...      0.00000000 Eh      0.00 kcal/mol
Vibrational entropy               ...      0.03335857 Eh     20.93 kcal/mol
Rotational entropy                ...      0.01628002 Eh     10.22 kcal/mol
Translational entropy             ...      0.02047029 Eh     12.85 kcal/mol
-----------------------------------------------------------------------
Final entropy term                ...      0.07010888 Eh     43.99 kcal/mol

In case the symmetry of your molecule has not been determined correctly
or in case you have a reason to use a different symmetry number we print 
out the resulting rotational entropy values for sn=1,12 :
 --------------------------------------------------------
|  sn= 1 | S(rot)=       0.01628002 Eh     10.22 kcal/mol|
|  sn= 2 | S(rot)=       0.01562556 Eh      9.81 kcal/mol|
|  sn= 3 | S(rot)=       0.01524273 Eh      9.56 kcal/mol|
|  sn= 4 | S(rot)=       0.01497110 Eh      9.39 kcal/mol|
|  sn= 5 | S(rot)=       0.01476042 Eh      9.26 kcal/mol|
|  sn= 6 | S(rot)=       0.01458827 Eh      9.15 kcal/mol|
|  sn= 7 | S(rot)=       0.01444273 Eh      9.06 kcal/mol|
|  sn= 8 | S(rot)=       0.01431665 Eh      8.98 kcal/mol|
|  sn= 9 | S(rot)=       0.01420544 Eh      8.91 kcal/mol|
|  sn=10 | S(rot)=       0.01410596 Eh      8.85 kcal/mol|
|  sn=11 | S(rot)=       0.01401597 Eh      8.80 kcal/mol|
|  sn=12 | S(rot)=       0.01393382 Eh      8.74 kcal/mol|
 --------------------------------------------------------


-------------------
GIBBS FREE ENERGY
-------------------

The Gibbs free energy is G = H - T*S

Total enthalpy                    ...  -1122.67678138 Eh 
Total entropy correction          ...     -0.07010888 Eh    -43.99 kcal/mol
-----------------------------------------------------------------------
Final Gibbs free energy         ...  -1122.74689026 Eh

For completeness - the Gibbs free energy minus the electronic energy
G-E(el)                           ...      0.23743210 Eh    148.99 kcal/mol


Timings for individual modules:

Sum of individual times         ...     2397.638 sec (=  39.961 min)
GTO integral calculation        ...       21.271 sec (=   0.355 min)   0.9 %
SCF iterations                  ...      699.812 sec (=  11.664 min)  29.2 %
SCF Gradient evaluation         ...      191.964 sec (=   3.199 min)   8.0 %
Geometry relaxation             ...        1.058 sec (=   0.018 min)   0.0 %
Analytical frequency calculation...     1483.533 sec (=  24.726 min)  61.9 %
                             ****ORCA TERMINATED NORMALLY****
TOTAL RUN TIME: 0 days 0 hours 40 minutes 31 seconds 976 msec
