
                                 *****************
                                 * O   R   C   A *
                                 *****************

                                            #,                                       
                                            ###                                      
                                            ####                                     
                                            #####                                    
                                            ######                                   
                                           ########,                                 
                                     ,,################,,,,,                         
                               ,,#################################,,                 
                          ,,##########################################,,             
                       ,#########################################, ''#####,          
                    ,#############################################,,   '####,        
                  ,##################################################,,,,####,       
                ,###########''''           ''''###############################       
              ,#####''   ,,,,##########,,,,          '''####'''          '####       
            ,##' ,,,,###########################,,,                        '##       
           ' ,,###''''                  '''############,,,                           
         ,,##''                                '''############,,,,        ,,,,,,###''
      ,#''                                            '''#######################'''  
     '                                                          ''''####''''         
             ,#######,   #######,   ,#######,      ##                                
            ,#'     '#,  ##    ##  ,#'     '#,    #''#        ######   ,####,        
            ##       ##  ##   ,#'  ##            #'  '#       #        #'  '#        
            ##       ##  #######   ##           ,######,      #####,   #    #        
            '#,     ,#'  ##    ##  '#,     ,#' ,#      #,         ##   #,  ,#        
             '#######'   ##     ##  '#######'  #'      '#     #####' # '####'        



                  #######################################################
                  #                        -***-                        #
                  #          Department of theory and spectroscopy      #
                  #    Directorship and core code : Frank Neese         #
                  #        Max Planck Institute fuer Kohlenforschung    #
                  #                Kaiser Wilhelm Platz 1               #
                  #                 D-45470 Muelheim/Ruhr               #
                  #                      Germany                        #
                  #                                                     #
                  #                  All rights reserved                #
                  #                        -***-                        #
                  #######################################################


                         Program Version 5.0.4 -  RELEASE  -


 With contributions from (in alphabetic order):
   Daniel Aravena         : Magnetic Suceptibility
   Michael Atanasov       : Ab Initio Ligand Field Theory (pilot matlab implementation)
   Alexander A. Auer      : GIAO ZORA, VPT2 properties, NMR spectrum
   Ute Becker             : Parallelization
   Giovanni Bistoni       : ED, misc. LED, open-shell LED, HFLD
   Martin Brehm           : Molecular dynamics
   Dmytro Bykov           : SCF Hessian
   Vijay G. Chilkuri      : MRCI spin determinant printing, contributions to CSF-ICE
   Dipayan Datta          : RHF DLPNO-CCSD density
   Achintya Kumar Dutta   : EOM-CC, STEOM-CC
   Dmitry Ganyushin       : Spin-Orbit,Spin-Spin,Magnetic field MRCI
   Miquel Garcia          : C-PCM and meta-GGA Hessian, CC/C-PCM, Gaussian charge scheme
   Yang Guo               : DLPNO-NEVPT2, F12-NEVPT2, CIM, IAO-localization
   Andreas Hansen         : Spin unrestricted coupled pair/coupled cluster methods
   Benjamin Helmich-Paris : MC-RPA, TRAH-SCF, COSX integrals
   Lee Huntington         : MR-EOM, pCC
   Robert Izsak           : Overlap fitted RIJCOSX, COSX-SCS-MP3, EOM
   Marcus Kettner         : VPT2
   Christian Kollmar      : KDIIS, OOCD, Brueckner-CCSD(T), CCSD density, CASPT2, CASPT2-K
   Simone Kossmann        : Meta GGA functionals, TD-DFT gradient, OOMP2, MP2 Hessian
   Martin Krupicka        : Initial AUTO-CI
   Lucas Lang             : DCDCAS
   Marvin Lechner         : AUTO-CI (C++ implementation), FIC-MRCC
   Dagmar Lenk            : GEPOL surface, SMD
   Dimitrios Liakos       : Extrapolation schemes; Compound Job, initial MDCI parallelization
   Dimitrios Manganas     : Further ROCIS development; embedding schemes
   Dimitrios Pantazis     : SARC Basis sets
   Anastasios Papadopoulos: AUTO-CI, single reference methods and gradients
   Taras Petrenko         : DFT Hessian,TD-DFT gradient, ASA, ECA, R-Raman, ABS, FL, XAS/XES, NRVS
   Peter Pinski           : DLPNO-MP2, DLPNO-MP2 Gradient
   Christoph Reimann      : Effective Core Potentials
   Marius Retegan         : Local ZFS, SOC
   Christoph Riplinger    : Optimizer, TS searches, QM/MM, DLPNO-CCSD(T), (RO)-DLPNO pert. Triples
   Tobias Risthaus        : Range-separated hybrids, TD-DFT gradient, RPA, STAB
   Michael Roemelt        : Original ROCIS implementation
   Masaaki Saitow         : Open-shell DLPNO-CCSD energy and density
   Barbara Sandhoefer     : DKH picture change effects
   Avijit Sen             : IP-ROCIS
   Kantharuban Sivalingam : CASSCF convergence, NEVPT2, FIC-MRCI
   Bernardo de Souza      : ESD, SOC TD-DFT
   Georgi Stoychev        : AutoAux, RI-MP2 NMR, DLPNO-MP2 response
   Willem Van den Heuvel  : Paramagnetic NMR
   Boris Wezisla          : Elementary symmetry handling
   Frank Wennmohs         : Technical directorship


 We gratefully acknowledge several colleagues who have allowed us to
 interface, adapt or use parts of their codes:
   Stefan Grimme, W. Hujo, H. Kruse, P. Pracht,  : VdW corrections, initial TS optimization,
                  C. Bannwarth, S. Ehlert          DFT functionals, gCP, sTDA/sTD-DF
   Ed Valeev, F. Pavosevic, A. Kumar             : LibInt (2-el integral package), F12 methods
   Garnet Chan, S. Sharma, J. Yang, R. Olivares  : DMRG
   Ulf Ekstrom                                   : XCFun DFT Library
   Mihaly Kallay                                 : mrcc  (arbitrary order and MRCC methods)
   Jiri Pittner, Ondrej Demel                    : Mk-CCSD
   Frank Weinhold                                : gennbo (NPA and NBO analysis)
   Christopher J. Cramer and Donald G. Truhlar   : smd solvation model
   Lars Goerigk                                  : TD-DFT with DH, B97 family of functionals
   V. Asgeirsson, H. Jonsson                     : NEB implementation
   FAccTs GmbH                                   : IRC, NEB, NEB-TS, DLPNO-Multilevel, CI-OPT
                                                   MM, QMMM, 2- and 3-layer-ONIOM, Crystal-QMMM,
                                                   LR-CPCM, SF, NACMEs, symmetry and pop. for TD-DFT,
                                                   nearIR, NL-DFT gradient (VV10), updates on ESD,
                                                   ML-optimized integration grids
   S Lehtola, MJT Oliveira, MAL Marques          : LibXC Library
   Liviu Ungur et al                             : ANISO software


 Your calculation uses the libint2 library for the computation of 2-el integrals
 For citations please refer to: http://libint.valeyev.net

 Your ORCA version has been built with support for libXC version: 5.1.0
 For citations please refer to: https://tddft.org/programs/libxc/

 This ORCA versions uses:
   CBLAS   interface :  Fast vector & matrix operations
   LAPACKE interface :  Fast linear algebra routines
   SCALAPACK package :  Parallel linear algebra routines
   Shared memory     :  Shared parallel matrices
   BLAS/LAPACK       :  OpenBLAS 0.3.15  USE64BITINT DYNAMIC_ARCH NO_AFFINITY Haswell SINGLE_THREADED
        Core in use  :  Haswell
   Copyright (c) 2011-2014, The OpenBLAS Project


Your calculation utilizes the atom-pairwise dispersion correction
with the Becke-Johnson damping scheme (D3BJ)
Cite in your paper:
S.Grimme, S.Ehrlich, L.Goerigk, J Comput Chem, (2011), 32, 1456–1465 
S.Grimme, J.Antony, S.Ehrlich and H.Krieg, J.Chem.Phys., 132, (2010), 154104 
   

================================================================================

----- Orbital basis set information -----
Your calculation utilizes the basis: def2-TZVP
   F. Weigend and R. Ahlrichs, Phys. Chem. Chem. Phys. 7, 3297 (2005).

----- AuxJ basis set information -----
Your calculation utilizes the auxiliary basis: def2/J
   F. Weigend, Phys. Chem. Chem. Phys. 8, 1057 (2006).

================================================================================
                                        WARNINGS
                       Please study these warnings very carefully!
================================================================================


WARNING: Geometry Optimization
  ===> : Switching off AutoStart
         For restart on a previous wavefunction, please use MOREAD

INFO   : the flag for use of the SHARK integral package has been found!

================================================================================
                                       INPUT FILE
================================================================================
NAME = 4_CCH_free/4_CCH_free.inp
|  1> %pal nprocs 24 end
|  2> %maxcore 3500
|  3> ! PBE0 D3BJ def2-TZVP TightSCF OPT FREQ TightOpt
|  4> ! CPCM(dmso)
|  5> %scf
|  6> MaxIter 800
|  7> end
|  8> %geom
|  9> MaxIter 800
| 10> MaxStep 0.2
| 11> end
| 12> *xyz 0 1
| 13> C        0.859322000     -1.336499000      0.024841000
| 14> C        0.977462000     -2.400807000     -1.050951000
| 15> O        1.868313000     -3.206521000     -1.126436000
| 16> O       -0.034015000     -2.301707000     -1.896754000
| 17> C       -0.031290000     -3.215588000     -2.999750000
| 18> H       -0.158322000     -1.313014000      0.428536000
| 19> H        0.863316000     -3.069796000     -3.605076000
| 20> H       -0.923096000     -2.982934000     -3.575107000
| 21> C        2.727220000      0.031836000     -0.023522000
| 22> C        1.309479000      0.051339000     -0.491890000
| 23> C        0.505868000      1.204077000      0.056810000
| 24> C        0.837706000      1.838400000      1.243466000
| 25> C        0.069459000      2.883075000      1.742092000
| 26> C       -1.046291000      3.298405000      1.035863000
| 27> C       -1.400725000      2.680320000     -0.156027000
| 28> C       -0.632602000      1.629613000     -0.644077000
| 29> O       -0.914678000      0.955714000     -1.778377000
| 30> C       -2.037392000      1.361531000     -2.537577000
| 31> N        2.918805000     -0.909173000      0.867091000
| 32> O        3.884009000     -1.229289000      1.535162000
| 33> H        1.261351000      0.072902000     -1.581183000
| 34> H        1.715578000      1.512090000      1.791270000
| 35> H        0.345010000      3.364737000      2.672422000
| 36> H       -1.657699000      4.111612000      1.410445000
| 37> H       -2.280715000      3.012699000     -0.689667000
| 38> H       -2.959068000      1.268289000     -1.957113000
| 39> H       -2.078532000      0.691700000     -3.394011000
| 40> H       -1.926893000      2.393318000     -2.883182000
| 41> O        1.743967000     -1.646316000      1.092613000
| 42> H       -0.067712000     -4.242296000     -2.636005000
| 43> C        3.755862000      0.906389000     -0.385466000
| 44> C        4.611974000      1.683800000     -0.721710000
| 45> H        5.375307000      2.369489000     -1.016981000
| 46> *
| 47> 
| 48>                          ****END OF INPUT****
================================================================================

                       *****************************
                       * Geometry Optimization Run *
                       *****************************

Geometry optimization settings:
Update method            Update   .... BFGS
Choice of coordinates    CoordSys .... Z-matrix Internals
Initial Hessian          InHess   .... Almoef's Model

Convergence Tolerances:
Energy Change            TolE     ....  1.0000e-06 Eh
Max. Gradient            TolMAXG  ....  1.0000e-04 Eh/bohr
RMS Gradient             TolRMSG  ....  3.0000e-05 Eh/bohr
Max. Displacement        TolMAXD  ....  1.0000e-03 bohr
RMS Displacement         TolRMSD  ....  6.0000e-04 bohr
Strict Convergence                ....  False
------------------------------------------------------------------------------
                        ORCA OPTIMIZATION COORDINATE SETUP
------------------------------------------------------------------------------

The optimization will be done in new redundant internal coordinates
Making redundant internal coordinates   ...  (new redundants) done
Evaluating the initial hessian          ...  (Almloef) done
Evaluating the coordinates              ...  done
Calculating the B-matrix                .... done
Calculating the G-matrix                .... done
Diagonalizing the G-matrix              .... done
Small eigenvalue found = 4.348e-03
Small eigenvalue found = 1.066e-02
Small eigenvalue found = 1.422e-02
Small eigenvalue found = 1.878e-02
Small eigenvalue found = 2.243e-02
Small eigenvalue found = 2.947e-02
The first mode is                       ....   69
The number of degrees of freedom        ....   93

    -----------------------------------------------------------------
                    Redundant Internal Coordinates


    -----------------------------------------------------------------
         Definition                    Initial Value    Approx d2E/dq
    -----------------------------------------------------------------
      1. B(C   1,C   0)                  1.5179         0.390547   
      2. B(O   2,C   1)                  1.2035         1.110130   
      3. B(O   3,C   1)                  1.3222         0.717794   
      4. B(C   4,O   3)                  1.4324         0.478872   
      5. B(H   5,C   0)                  1.0950         0.353489   
      6. B(H   6,C   4)                  1.0900         0.360164   
      7. B(H   7,C   4)                  1.0865         0.364760   
      8. B(C   9,C   8)                  1.4932         0.427603   
      9. B(C   9,C   0)                  1.5478         0.349902   
     10. B(C  10,C   9)                  1.5085         0.404231   
     11. B(C  11,C  10)                  1.3859         0.634349   
     12. B(C  12,C  11)                  1.3893         0.626386   
     13. B(C  13,C  12)                  1.3843         0.638128   
     14. B(C  14,C  13)                  1.3886         0.627981   
     15. B(C  15,C  10)                  1.4030         0.595637   
     16. B(C  15,C  14)                  1.3900         0.624721   
     17. B(O  16,C  15)                  1.3492         0.650081   
     18. B(C  17,O  16)                  1.4148         0.510934   
     19. B(N  18,C   8)                  1.3097         0.751519   
     20. B(O  19,N  18)                  1.2167         0.947255   
     21. B(H  20,C   9)                  1.0906         0.359348   
     22. B(H  21,C  11)                  1.0850         0.366774   
     23. B(H  22,C  12)                  1.0833         0.369135   
     24. B(H  23,C  13)                  1.0842         0.367888   
     25. B(H  24,C  14)                  1.0815         0.371530   
     26. B(H  25,C  17)                  1.0932         0.355872   
     27. B(H  26,C  17)                  1.0880         0.362693   
     28. B(H  27,C  17)                  1.0937         0.355204   
     29. B(O  28,N  18)                  1.4052         0.474046   
     30. B(O  28,C   0)                  1.4208         0.499700   
     31. B(H  29,C   4)                  1.0898         0.360303   
     32. B(C  30,C   8)                  1.3978         0.607063   
     33. B(C  31,C  30)                  1.2043         1.235947   
     34. B(H  32,C  31)                  1.0677         0.390810   
     35. A(C   1,C   0,O  28)          109.3461         0.382549   
     36. A(C   9,C   0,O  28)          105.3864         0.375337   
     37. A(C   1,C   0,C   9)          111.6819         0.362049   
     38. A(C   1,C   0,H   5)          110.4046         0.325702   
     39. A(H   5,C   0,C   9)          111.9700         0.319888   
     40. A(H   5,C   0,O  28)          107.8332         0.337222   
     41. A(C   0,C   1,O   2)          124.8524         0.440676   
     42. A(O   2,C   1,O   3)          125.1900         0.489296   
     43. A(C   0,C   1,O   3)          109.9544         0.407626   
     44. A(C   1,O   3,C   4)          116.3146         0.419928   
     45. A(H   7,C   4,H  29)          110.5508         0.291453   
     46. A(O   3,C   4,H   6)          110.1130         0.335885   
     47. A(O   3,C   4,H   7)          105.6400         0.336595   
     48. A(O   3,C   4,H  29)          110.1192         0.335906   
     49. A(H   6,C   4,H   7)          110.5460         0.291436   
     50. A(H   6,C   4,H  29)          109.8038         0.290873   
     51. A(C   9,C   8,N  18)          111.1958         0.417628   
     52. A(N  18,C   8,C  30)          121.1942         0.444755   
     53. A(C   9,C   8,C  30)          127.5382         0.404725   
     54. A(C  10,C   9,H  20)          108.9467         0.328444   
     55. A(C   8,C   9,H  20)          110.8212         0.331510   
     56. A(C   0,C   9,H  20)          109.7762         0.320748   
     57. A(C   0,C   9,C  10)          114.1298         0.364185   
     58. A(C   8,C   9,C  10)          113.6827         0.376963   
     59. A(C   0,C   9,C   8)           99.1898         0.367708   
     60. A(C   9,C  10,C  11)          122.2522         0.403852   
     61. A(C  11,C  10,C  15)          118.8961         0.432725   
     62. A(C   9,C  10,C  15)          118.8376         0.399396   
     63. A(C  12,C  11,H  21)          119.4948         0.354624   
     64. A(C  10,C  11,H  21)          119.2349         0.355384   
     65. A(C  10,C  11,C  12)          121.2702         0.436663   
     66. A(C  13,C  12,H  22)          120.6496         0.356130   
     67. A(C  11,C  12,H  22)          120.1271         0.355010   
     68. A(C  11,C  12,C  13)          119.2233         0.437131   
     69. A(C  14,C  13,H  23)          119.1091         0.354959   
     70. A(C  12,C  13,H  23)          120.2207         0.355925   
     71. A(C  12,C  13,C  14)          120.6700         0.437331   
     72. A(C  13,C  14,C  15)          119.7866         0.435661   
     73. A(C  15,C  14,H  24)          120.5771         0.355239   
     74. A(C  13,C  14,H  24)          119.6311         0.355553   
     75. A(C  14,C  15,O  16)          123.8626         0.435511   
     76. A(C  10,C  15,O  16)          115.9856         0.431792   
     77. A(C  10,C  15,C  14)          120.1499         0.431537   
     78. A(C  15,O  16,C  17)          118.2806         0.417371   
     79. A(H  26,C  17,H  27)          109.6248         0.290542   
     80. A(H  25,C  17,H  27)          109.4764         0.289678   
     81. A(O  16,C  17,H  27)          111.0998         0.338748   
     82. A(H  25,C  17,H  26)          109.4848         0.290628   
     83. A(O  16,C  17,H  26)          106.0104         0.339930   
     84. A(O  16,C  17,H  25)          111.0788         0.338854   
     85. A(C   8,N  18,O  19)          132.7217         0.475935   
     86. A(O  19,N  18,O  28)          115.9196         0.434687   
     87. A(C   8,N  18,O  28)          111.3303         0.419819   
     88. A(C   0,O  28,N  18)          106.5928         0.390631   
     89. L(C   8,C  30,C  31,C   9, 2) 179.6957         0.490460   
     90. L(C   8,C  30,C  31,C   9, 1) 177.8370         0.490460   
     91. L(C  30,C  31,H  32, 2)       180.2954         0.403276   
     92. L(C  30,C  31,H  32, 1)       180.3089         0.403276   
     93. D(O   3,C   1,C   0,H   5)     47.4566         0.011346   
     94. D(O   2,C   1,C   0,H   5)   -133.1601         0.011346   
     95. D(O   3,C   1,C   0,C   9)    -77.8151         0.011346   
     96. D(O   2,C   1,C   0,C   9)    101.5682         0.011346   
     97. D(O   3,C   1,C   0,O  28)    165.9402         0.011346   
     98. D(O   2,C   1,C   0,O  28)    -14.6765         0.011346   
     99. D(C   4,O   3,C   1,C   0)    177.8355         0.038774   
    100. D(C   4,O   3,C   1,O   2)     -1.5452         0.038774   
    101. D(H   7,C   4,O   3,C   1)   -179.8396         0.018088   
    102. D(H   6,C   4,O   3,C   1)    -60.4567         0.018088   
    103. D(H  29,C   4,O   3,C   1)     60.7684         0.018088   
    104. D(C  10,C   9,C   0,C   1)    143.7618         0.009865   
    105. D(H  20,C   9,C   8,N  18)   -130.9666         0.013507   
    106. D(C   8,C   9,C   0,O  28)     23.6121         0.009865   
    107. D(C  10,C   9,C   8,C  30)    -70.9825         0.013507   
    108. D(C   8,C   9,C   0,C   1)    -95.0185         0.009865   
    109. D(C   0,C   9,C   8,C  30)    167.4730         0.013507   
    110. D(C   0,C   9,C   8,N  18)    -15.6121         0.013507   
    111. D(H  20,C   9,C   0,O  28)    139.7677         0.009865   
    112. D(H  20,C   9,C   0,H   5)   -103.2626         0.009865   
    113. D(H  20,C   9,C   0,C   1)     21.1371         0.009865   
    114. D(C  10,C   9,C   8,N  18)    105.9325         0.013507   
    115. D(C  10,C   9,C   0,O  28)    -97.6077         0.009865   
    116. D(C  10,C   9,C   0,H   5)     19.3620         0.009865   
    117. D(H  20,C   9,C   8,C  30)     52.1185         0.013507   
    118. D(C   8,C   9,C   0,H   5)    140.5818         0.009865   
    119. D(C  15,C  10,C   9,C   0)    -90.3981         0.012116   
    120. D(C  11,C  10,C   9,H  20)   -148.7040         0.012116   
    121. D(C  11,C  10,C   9,C   8)    -24.5830         0.012116   
    122. D(C  15,C  10,C   9,C   8)    156.7991         0.012116   
    123. D(C  11,C  10,C   9,C   0)     88.2199         0.012116   
    124. D(C  15,C  10,C   9,H  20)     32.6781         0.012116   
    125. D(H  21,C  11,C  10,C  15)    179.8467         0.027925   
    126. D(H  21,C  11,C  10,C   9)      1.2296         0.027925   
    127. D(C  12,C  11,C  10,C  15)     -0.2371         0.027925   
    128. D(C  12,C  11,C  10,C   9)   -178.8543         0.027925   
    129. D(H  22,C  12,C  11,H  21)     -0.1820         0.027185   
    130. D(H  22,C  12,C  11,C  10)    179.9020         0.027185   
    131. D(C  13,C  12,C  11,H  21)    179.7408         0.027185   
    132. D(C  13,C  12,C  11,C  10)     -0.1751         0.027185   
    133. D(H  23,C  13,C  12,H  22)     -0.1198         0.028281   
    134. D(H  23,C  13,C  12,C  11)    179.9577         0.028281   
    135. D(C  14,C  13,C  12,H  22)   -179.9303         0.028281   
    136. D(C  14,C  13,C  12,C  11)      0.1472         0.028281   
    137. D(H  24,C  14,C  13,H  23)     -0.3419         0.027332   
    138. D(H  24,C  14,C  13,C  12)    179.4707         0.027332   
    139. D(C  15,C  14,C  13,H  23)   -179.5159         0.027332   
    140. D(C  15,C  14,C  13,C  12)      0.2967         0.027332   
    141. D(O  16,C  15,C  14,H  24)     -0.4103         0.027031   
    142. D(C  10,C  15,C  14,H  24)   -179.8805         0.027031   
    143. D(C  10,C  15,C  14,C  13)     -0.7145         0.027031   
    144. D(O  16,C  15,C  10,C  11)   -178.8284         0.024439   
    145. D(O  16,C  15,C  10,C   9)     -0.1635         0.024439   
    146. D(O  16,C  15,C  14,C  13)    178.7558         0.027031   
    147. D(C  14,C  15,C  10,C  11)      0.6822         0.024439   
    148. D(C  14,C  15,C  10,C   9)    179.3471         0.024439   
    149. D(C  17,O  16,C  15,C  14)      1.7318         0.031233   
    150. D(C  17,O  16,C  15,C  10)   -178.7778         0.031233   
    151. D(H  27,C  17,O  16,C  15)     61.0875         0.020669   
    152. D(H  26,C  17,O  16,C  15)   -179.8842         0.020669   
    153. D(H  25,C  17,O  16,C  15)    -61.0353         0.020669   
    154. D(O  19,N  18,C   8,C  30)      0.8225         0.047449   
    155. D(O  19,N  18,C   8,C   9)   -176.3180         0.047449   
    156. D(O  28,N  18,C   8,C  30)    178.7538         0.047449   
    157. D(O  28,N  18,C   8,C   9)      1.6134         0.047449   
    158. D(C   0,O  28,N  18,O  19)   -166.7786         0.018736   
    159. D(C   0,O  28,N  18,C   8)     14.9110         0.018736   
    160. D(N  18,O  28,C   0,C   9)    -24.1884         0.019740   
    161. D(N  18,O  28,C   0,H   5)   -143.9335         0.019740   
    162. D(N  18,O  28,C   0,C   1)     95.9929         0.019740   
    -----------------------------------------------------------------

Number of atoms                         .... 33
Number of degrees of freedom            .... 162

         *************************************************************
         *                GEOMETRY OPTIMIZATION CYCLE   1            *
         *************************************************************
---------------------------------
CARTESIAN COORDINATES (ANGSTROEM)
---------------------------------
  C      0.859322   -1.336499    0.024841
  C      0.977462   -2.400807   -1.050951
  O      1.868313   -3.206521   -1.126436
  O     -0.034015   -2.301707   -1.896754
  C     -0.031290   -3.215588   -2.999750
  H     -0.158322   -1.313014    0.428536
  H      0.863316   -3.069796   -3.605076
  H     -0.923096   -2.982934   -3.575107
  C      2.727220    0.031836   -0.023522
  C      1.309479    0.051339   -0.491890
  C      0.505868    1.204077    0.056810
  C      0.837706    1.838400    1.243466
  C      0.069459    2.883075    1.742092
  C     -1.046291    3.298405    1.035863
  C     -1.400725    2.680320   -0.156027
  C     -0.632602    1.629613   -0.644077
  O     -0.914678    0.955714   -1.778377
  C     -2.037392    1.361531   -2.537577
  N      2.918805   -0.909173    0.867091
  O      3.884009   -1.229289    1.535162
  H      1.261351    0.072902   -1.581183
  H      1.715578    1.512090    1.791270
  H      0.345010    3.364737    2.672422
  H     -1.657699    4.111612    1.410445
  H     -2.280715    3.012699   -0.689667
  H     -2.959068    1.268289   -1.957113
  H     -2.078532    0.691700   -3.394011
  H     -1.926893    2.393318   -2.883182
  O      1.743967   -1.646316    1.092613
  H     -0.067712   -4.242296   -2.636005
  C      3.755862    0.906389   -0.385466
  C      4.611974    1.683800   -0.721710
  H      5.375307    2.369489   -1.016981

----------------------------
CARTESIAN COORDINATES (A.U.)
----------------------------
  NO LB      ZA    FRAG     MASS         X           Y           Z
   0 C     6.0000    0    12.011    1.623883   -2.525617    0.046943
   1 C     6.0000    0    12.011    1.847135   -4.536868   -1.986010
   2 O     8.0000    0    15.999    3.530600   -6.059447   -2.128656
   3 O     8.0000    0    15.999   -0.064279   -4.349596   -3.584346
   4 C     6.0000    0    12.011   -0.059130   -6.076581   -5.668706
   5 H     1.0000    0     1.008   -0.299185   -2.481237    0.809816
   6 H     1.0000    0     1.008    1.631431   -5.801074   -6.812606
   7 H     1.0000    0     1.008   -1.744399   -5.636928   -6.755973
   8 C     6.0000    0    12.011    5.153699    0.060161   -0.044450
   9 C     6.0000    0    12.011    2.474557    0.097017   -0.929537
  10 C     6.0000    0    12.011    0.955952    2.275376    0.107355
  11 C     6.0000    0    12.011    1.583035    3.474073    2.349810
  12 C     6.0000    0    12.011    0.131258    5.448222    3.292077
  13 C     6.0000    0    12.011   -1.977203    6.233082    1.957497
  14 C     6.0000    0    12.011   -2.646987    5.065071   -0.294848
  15 C     6.0000    0    12.011   -1.195445    3.079522   -1.217129
  16 O     8.0000    0    15.999   -1.728491    1.806038   -3.360645
  17 C     6.0000    0    12.011   -3.850113    2.572921   -4.795326
  18 N     7.0000    0    14.007    5.515742   -1.718088    1.638565
  19 O     8.0000    0    15.999    7.339713   -2.323020    2.901036
  20 H     1.0000    0     1.008    2.383608    0.137765   -2.988003
  21 H     1.0000    0     1.008    3.241973    2.857436    3.385010
  22 H     1.0000    0     1.008    0.651974    6.358431    5.050146
  23 H     1.0000    0     1.008   -3.132597    7.769821    2.665355
  24 H     1.0000    0     1.008   -4.309927    5.693176   -1.303282
  25 H     1.0000    0     1.008   -5.591828    2.396719   -3.698408
  26 H     1.0000    0     1.008   -3.927856    1.307124   -6.413751
  27 H     1.0000    0     1.008   -3.641300    4.522716   -5.448424
  28 O     8.0000    0    15.999    3.295620   -3.111086    2.064739
  29 H     1.0000    0     1.008   -0.127957   -8.016778   -4.981328
  30 C     6.0000    0    12.011    7.097551    1.712827   -0.728425
  31 C     6.0000    0    12.011    8.715368    3.181921   -1.363834
  32 H     1.0000    0     1.008   10.157858    4.477685   -1.921816

--------------------------------
INTERNAL COORDINATES (ANGSTROEM)
--------------------------------
 C      0   0   0     0.000000000000     0.00000000     0.00000000
 C      1   0   0     1.517905466664     0.00000000     0.00000000
 O      2   1   0     1.203531694316   124.85244178     0.00000000
 O      2   1   3     1.322228893323   109.95439256   180.61667069
 C      4   2   1     1.432405698049   116.31460220   177.83553747
 H      1   2   3     1.095043610541   110.40458439   226.83989636
 H      5   4   2     1.089951727727   110.11303984   299.54332150
 H      5   4   2     1.086499656144   105.63998844   180.16035157
 C      1   2   3     2.315971198093   109.67567337    59.24186536
 C      9   1   2     1.493230890892    41.28052343   100.55302289
 C     10   9   1     1.508531479938   113.68274342   121.54458137
 C     11  10   9     1.385869614686   122.25221298   335.41698829
 C     12  11  10     1.389308171901   121.27016807   181.14570918
 C     13  12  11     1.384253037505   119.22331443   359.82493235
 C     14  13  12     1.388615965514   120.66999407     0.14720943
 C     15  14  13     1.390032713816   119.78663831     0.29666511
 O     16  15  14     1.349200956854   123.86256042   178.75576511
 C     17  16  15     1.414764575216   118.28060980     1.73182084
 N      9   1   2     1.309730608207    71.29377474   265.19138852
 O     19   9   1     1.216721774324   132.72168655   172.87774480
 H     10   9   1     1.090568891543   110.82115784   244.64551239
 H     12  11  10     1.085000777373   119.23494911     1.22958256
 H     13  12  11     1.083254607535   120.12706178   179.90204729
 H     14  13  12     1.084175743151   120.22067636   179.95767938
 H     15  14  13     1.081494266902   119.63106896   179.47068157
 H     18  17  16     1.093215063396   111.07875512   298.96470696
 H     18  17  16     1.088046536007   106.01036102   180.11584874
 H     18  17  16     1.093726317867   111.09978949    61.08749535
 O     19   9   1     1.405163442870   111.33032262   350.80906464
 H      5   4   2     1.089846917862   110.11923936    60.76844805
 C      9   1   2     1.397837892285   165.59570139    56.81321318
 C     31   9  19     1.204307123204   177.83222096   187.30551595
 H     32  31   9     1.067722640507   179.66357089   185.46723905

---------------------------
INTERNAL COORDINATES (A.U.)
---------------------------
 C      0   0   0     0.000000000000     0.00000000     0.00000000
 C      1   0   0     2.868425629177     0.00000000     0.00000000
 O      2   1   0     2.274345295751   124.85244178     0.00000000
 O      2   1   3     2.498650494738   109.95439256   180.61667069
 C      4   2   1     2.706854481980   116.31460220   177.83553747
 H      1   2   3     2.069332528622   110.40458439   226.83989636
 H      5   4   2     2.059710264599   110.11303984   299.54332150
 H      5   4   2     2.053186794712   105.63998844   180.16035157
 C      1   2   3     4.376551298446   109.67567337    59.24186536
 C      9   1   2     2.821797438497    41.28052343   100.55302289
 C     10   9   1     2.850711361482   113.68274342   121.54458137
 C     11  10   9     2.618914029079   122.25221298   335.41698829
 C     12  11  10     2.625411960511   121.27016807   181.14570918
 C     13  12  11     2.615859140933   119.22331443   359.82493235
 C     14  13  12     2.624103880013   120.66999407     0.14720943
 C     15  14  13     2.626781146303   119.78663831     0.29666511
 O     16  15  14     2.549620308079   123.86256042   178.75576511
 C     17  16  15     2.673517591131   118.28060980     1.73182084
 N      9   1   2     2.475032158726    71.29377474   265.19138852
 O     19   9   1     2.299270934650   132.72168655   172.87774480
 H     10   9   1     2.060876535191   110.82115784   244.64551239
 H     12  11  10     2.050354324327   119.23494911     1.22958256
 H     13  12  11     2.047054541549   120.12706178   179.90204729
 H     14  13  12     2.048795235596   120.22067636   179.95767938
 H     15  14  13     2.043727979850   119.63106896   179.47068157
 H     18  17  16     2.065877075296   111.07875512   298.96470696
 H     18  17  16     2.056109974015   106.01036102   180.11584874
 H     18  17  16     2.066843206231   111.09978949    61.08749535
 O     19   9   1     2.655374080421   111.33032262   350.80906464
 H      5   4   2     2.059512202657   110.11923936    60.76844805
 C      9   1   2     2.641530796037   165.59570139    56.81321318
 C     31   9  19     2.275810643987   177.83222096   187.30551595
 H     32  31   9     2.017703377545   179.66357089   185.46723905

---------------------
BASIS SET INFORMATION
---------------------
There are 4 groups of distinct atoms

 Group   1 Type C   : 11s6p2d1f contracted to 5s3p2d1f pattern {62111/411/11/1}
 Group   2 Type O   : 11s6p2d1f contracted to 5s3p2d1f pattern {62111/411/11/1}
 Group   3 Type H   : 5s1p contracted to 3s1p pattern {311/1}
 Group   4 Type N   : 11s6p2d1f contracted to 5s3p2d1f pattern {62111/411/11/1}

Atom   0C    basis set group =>   1
Atom   1C    basis set group =>   1
Atom   2O    basis set group =>   2
Atom   3O    basis set group =>   2
Atom   4C    basis set group =>   1
Atom   5H    basis set group =>   3
Atom   6H    basis set group =>   3
Atom   7H    basis set group =>   3
Atom   8C    basis set group =>   1
Atom   9C    basis set group =>   1
Atom  10C    basis set group =>   1
Atom  11C    basis set group =>   1
Atom  12C    basis set group =>   1
Atom  13C    basis set group =>   1
Atom  14C    basis set group =>   1
Atom  15C    basis set group =>   1
Atom  16O    basis set group =>   2
Atom  17C    basis set group =>   1
Atom  18N    basis set group =>   4
Atom  19O    basis set group =>   2
Atom  20H    basis set group =>   3
Atom  21H    basis set group =>   3
Atom  22H    basis set group =>   3
Atom  23H    basis set group =>   3
Atom  24H    basis set group =>   3
Atom  25H    basis set group =>   3
Atom  26H    basis set group =>   3
Atom  27H    basis set group =>   3
Atom  28O    basis set group =>   2
Atom  29H    basis set group =>   3
Atom  30C    basis set group =>   1
Atom  31C    basis set group =>   1
Atom  32H    basis set group =>   3
---------------------------------
AUXILIARY/J BASIS SET INFORMATION
---------------------------------
There are 4 groups of distinct atoms

 Group   1 Type C   : 12s5p4d2f1g contracted to 6s4p3d1f1g pattern {711111/2111/211/2/1}
 Group   2 Type O   : 12s5p4d2f1g contracted to 6s4p3d1f1g pattern {711111/2111/211/2/1}
 Group   3 Type H   : 5s2p1d contracted to 3s1p1d pattern {311/2/1}
 Group   4 Type N   : 12s5p4d2f1g contracted to 6s4p3d1f1g pattern {711111/2111/211/2/1}

Atom   0C    basis set group =>   1
Atom   1C    basis set group =>   1
Atom   2O    basis set group =>   2
Atom   3O    basis set group =>   2
Atom   4C    basis set group =>   1
Atom   5H    basis set group =>   3
Atom   6H    basis set group =>   3
Atom   7H    basis set group =>   3
Atom   8C    basis set group =>   1
Atom   9C    basis set group =>   1
Atom  10C    basis set group =>   1
Atom  11C    basis set group =>   1
Atom  12C    basis set group =>   1
Atom  13C    basis set group =>   1
Atom  14C    basis set group =>   1
Atom  15C    basis set group =>   1
Atom  16O    basis set group =>   2
Atom  17C    basis set group =>   1
Atom  18N    basis set group =>   4
Atom  19O    basis set group =>   2
Atom  20H    basis set group =>   3
Atom  21H    basis set group =>   3
Atom  22H    basis set group =>   3
Atom  23H    basis set group =>   3
Atom  24H    basis set group =>   3
Atom  25H    basis set group =>   3
Atom  26H    basis set group =>   3
Atom  27H    basis set group =>   3
Atom  28O    basis set group =>   2
Atom  29H    basis set group =>   3
Atom  30C    basis set group =>   1
Atom  31C    basis set group =>   1
Atom  32H    basis set group =>   3


           ************************************************************
           *        Program running with 24 parallel MPI-processes    *
           *              working on a common directory               *
           ************************************************************
------------------------------------------------------------------------------
                           ORCA GTO INTEGRAL CALCULATION
                           -- RI-GTO INTEGRALS CHOSEN --
------------------------------------------------------------------------------
------------------------------------------------------------------------------
                   ___                                                        
                  /   \      - P O W E R E D   B Y -                         
                 /     \                                                     
                 |  |  |   _    _      __       _____    __    __             
                 |  |  |  | |  | |    /  \     |  _  \  |  |  /  |          
                  \  \/   | |  | |   /    \    | | | |  |  | /  /          
                 / \  \   | |__| |  /  /\  \   | |_| |  |  |/  /          
                |  |  |   |  __  | /  /__\  \  |    /   |      \           
                |  |  |   | |  | | |   __   |  |    \   |  |\   \          
                \     /   | |  | | |  |  |  |  | |\  \  |  | \   \       
                 \___/    |_|  |_| |__|  |__|  |_| \__\ |__|  \__/        
                                                                              
                      - O R C A' S   B I G   F R I E N D -                    
                                      &                                       
                       - I N T E G R A L  F E E D E R -                       
                                                                              
 v1 FN, 2020, v2 2021                                                         
------------------------------------------------------------------------------


Reading SHARK input file 4_CCH_free/4_CCH_free.SHARKINP.tmp ... ok
----------------------
SHARK INTEGRAL PACKAGE
----------------------

Number of atoms                             ...     33
Number of basis functions                   ...    698
Number of shells                            ...    272
Maximum angular momentum                    ...      3
Integral batch strategy                     ... SHARK/LIBINT Hybrid
RI-J (if used) integral strategy            ... SPLIT-RIJ (Revised 2003 algorithm where possible)
Printlevel                                  ...      1
Contraction scheme used                     ... SEGMENTED contraction
Coulomb Range Separation                    ... NOT USED
Exchange Range Separation                   ... NOT USED
Finite Nucleus Model                        ... NOT USED
Auxiliary Coulomb fitting basis             ... AVAILABLE
   # of basis functions in Aux-J            ...   1123
   # of shells in Aux-J                     ...    365
   Maximum angular momentum in Aux-J        ...      4
Auxiliary J/K fitting basis                 ... NOT available
Auxiliary Correlation fitting basis         ... NOT available
Auxiliary 'external' fitting basis          ... NOT available
Integral threshold                          ...     2.500000e-11
Primitive cut-off                           ...     2.500000e-12
Primitive pair pre-selection threshold      ...     2.500000e-12

Calculating pre-screening integrals         ... done (  0.1 sec) Dimension = 272
Organizing shell pair data                  ... done (  1.2 sec)
Shell pair information
Total number of shell pairs                 ...     37128
Shell pairs after pre-screening             ...     27776
Total number of primitive shell pairs       ...    114960
Primitive shell pairs kept                  ...     57455
          la=0 lb=0:   6952 shell pairs
          la=1 lb=0:   7863 shell pairs
          la=1 lb=1:   2252 shell pairs
          la=2 lb=0:   4019 shell pairs
          la=2 lb=1:   2337 shell pairs
          la=2 lb=2:    626 shell pairs
          la=3 lb=0:   1896 shell pairs
          la=3 lb=1:   1114 shell pairs
          la=3 lb=2:    570 shell pairs
          la=3 lb=3:    147 shell pairs

Calculating one electron integrals          ... done (  0.1 sec)
Calculating RI/J V-Matrix + Cholesky decomp.... done (  0.2 sec)
Calculating Nuclear repulsion               ... done (  0.0 sec) ENN=   1579.847394500231 Eh

SHARK setup successfully completed in   2.7 seconds

Maximum memory used throughout the entire GTOINT-calculation: 43.6 MB


           ************************************************************
           *        Program running with 24 parallel MPI-processes    *
           *              working on a common directory               *
           ************************************************************
-------------------------------------------------------------------------------
                                 ORCA SCF
-------------------------------------------------------------------------------

------------
SCF SETTINGS
------------
Hamiltonian:
 Density Functional     Method          .... DFT(GTOs)
 Exchange Functional    Exchange        .... PBE
   PBE kappa parameter   XKappa         ....  0.804000
   PBE mue parameter    XMuePBE         ....  0.219520
 Correlation Functional Correlation     .... PBE
   PBE beta parameter  CBetaPBE         ....  0.066725
 LDA part of GGA corr.  LDAOpt          .... PW91-LDA
 Gradients option       PostSCFGGA      .... off
 Hybrid DFT is turned on
   Fraction HF Exchange ScalHFX         ....  0.250000
   Scaling of DF-GGA-X  ScalDFX         ....  0.750000
   Scaling of DF-GGA-C  ScalDFC         ....  1.000000
   Scaling of DF-LDA-C  ScalLDAC        ....  1.000000
   Perturbative correction              ....  0.000000
   Density functional embedding theory  .... OFF
   NL short-range parameter             ....  6.900000
 RI-approximation to the Coulomb term is turned on
   Number of AuxJ basis functions       .... 1123
   RIJ-COSX (HFX calculated with COS-X)).... on


General Settings:
 Integral files         IntName         .... 4_CCH_free/4_CCH_free
 Hartree-Fock type      HFTyp           .... RHF
 Total Charge           Charge          ....    0
 Multiplicity           Mult            ....    1
 Number of Electrons    NEL             ....  144
 Basis Dimension        Dim             ....  698
 Nuclear Repulsion      ENuc            ....   1579.8473945002 Eh

Convergence Acceleration:
 DIIS                   CNVDIIS         .... on
   Start iteration      DIISMaxIt       ....    12
   Startup error        DIISStart       ....  0.200000
   # of expansion vecs  DIISMaxEq       ....     5
   Bias factor          DIISBfac        ....   1.050
   Max. coefficient     DIISMaxC        ....  10.000
 Trust-Rad. Augm. Hess. CNVTRAH         .... auto
   Auto Start mean grad. ratio tolernc. ....  1.125000
   Auto Start start iteration           ....    20
   Auto Start num. interpolation iter.  ....    10
   Max. Number of Micro iterations      ....    16
   Max. Number of Macro iterations      .... Maxiter - #DIIS iter
   Number of Davidson start vectors     ....     2
   Converg. threshold I  (grad. norm)   ....   1.000e-05
   Converg. threshold II (energy diff.) ....   1.000e-08
   Grad. Scal. Fac. for Micro threshold ....   0.100
   Minimum threshold for Micro iter.    ....   0.010
   NR start threshold (gradient norm)   ....   0.001
   Initial trust radius                 ....   0.400
   Minimum AH scaling param. (alpha)    ....   1.000
   Maximum AH scaling param. (alpha)    .... 1000.000
   Orbital update algorithm             .... Taylor
   White noise on init. David. guess    .... on
   Maximum white noise                  ....   0.010
   Quad. conv. algorithm                .... NR
 SOSCF                  CNVSOSCF        .... on
   Start iteration      SOSCFMaxIt      ....   150
   Startup grad/error   SOSCFStart      ....  0.003300
 Level Shifting         CNVShift        .... on
   Level shift para.    LevelShift      ....    0.2500
   Turn off err/grad.   ShiftErr        ....    0.0010
 Zerner damping         CNVZerner       .... off
 Static damping         CNVDamp         .... on
   Fraction old density DampFac         ....    0.7000
   Max. Damping (<1)    DampMax         ....    0.9800
   Min. Damping (>=0)   DampMin         ....    0.0000
   Turn off err/grad.   DampErr         ....    0.1000
 Fernandez-Rico         CNVRico         .... off

SCF Procedure:
 Maximum # iterations   MaxIter         ....   800
 SCF integral mode      SCFMode         .... Direct
   Integral package                     .... SHARK and LIBINT hybrid scheme
 Reset frequency        DirectResetFreq ....    20
 Integral Threshold     Thresh          ....  2.500e-11 Eh
 Primitive CutOff       TCut            ....  2.500e-12 Eh

Convergence Tolerance:
 Convergence Check Mode ConvCheckMode   .... Total+1el-Energy
 Convergence forced     ConvForced      .... 0
 Energy Change          TolE            ....  1.000e-08 Eh
 1-El. energy change                    ....  1.000e-05 Eh
 Orbital Gradient       TolG            ....  1.000e-05
 Orbital Rotation angle TolX            ....  1.000e-05
 DIIS Error             TolErr          ....  5.000e-07


Diagonalization of the overlap matrix:
Smallest eigenvalue                        ... 6.484e-06
Time for diagonalization                   ...    0.168 sec
Threshold for overlap eigenvalues          ... 1.000e-08
Number of eigenvalues below threshold      ... 0
Time for construction of square roots      ...    0.107 sec
Total time needed                          ...    0.280 sec

Time for model grid setup =    0.296 sec

------------------------------
INITIAL GUESS: MODEL POTENTIAL
------------------------------
Loading Hartree-Fock densities                     ... done
Calculating cut-offs                               ... done
Initializing the effective Hamiltonian             ... done
Setting up the integral package (SHARK)            ... done
Starting the Coulomb interaction                   ... done (   0.3 sec)
Reading the grid                                   ... done
Mapping shells                                     ... done
Starting the XC term evaluation                    ... done (   0.2 sec)
  promolecular density results
     # of electrons  =    143.979612360
     EX              =   -122.787456641
     EC              =     -4.862448036
     EX+EC           =   -127.649904677
Transforming the Hamiltonian                       ... done (   0.1 sec)
Diagonalizing the Hamiltonian                      ... done (   0.2 sec)
Back transforming the eigenvectors                 ... done (   0.0 sec)
Now organizing SCF variables                       ... done
                      ------------------
                      INITIAL GUESS DONE (   1.2 sec)
                      ------------------
-------------------
DFT GRID GENERATION
-------------------

General Integration Accuracy     IntAcc      ... 4.388
Radial Grid Type                 RadialGrid  ... OptM3 with GC (2021)
Angular Grid (max. ang.)         AngularGrid ... 4 (Lebedev-302)
Angular grid pruning method      GridPruning ... 4 (adaptive)
Weight generation scheme         WeightScheme... Becke
Basis function cutoff            BFCut       ... 1.0000e-11
Integration weight cutoff        WCut        ... 1.0000e-14
Angular grids for H and He will be reduced by one unit
Partially contracted basis set               ... off
Rotationally invariant grid construction     ... off

Total number of grid points                  ...   161564
Total number of batches                      ...     2540
Average number of points per batch           ...       63
Average number of grid points per atom       ...     4896
Time for grid setup =    1.128 sec

--------------------
COSX GRID GENERATION
--------------------

GRIDX 1
-------
General Integration Accuracy     IntAcc      ... 3.816
Radial Grid Type                 RadialGrid  ... OptM3 with GC (2021)
Angular Grid (max. ang.)         AngularGrid ... 1 (Lebedev-50)
Angular grid pruning method      GridPruning ... 4 (adaptive)
Weight generation scheme         WeightScheme... Becke
Basis function cutoff            BFCut       ... 1.0000e-11
Integration weight cutoff        WCut        ... 1.0000e-14
Angular grids for H and He will be reduced by one unit
Partially contracted basis set               ... on
Rotationally invariant grid construction     ... off

Total number of grid points                  ...    20471
Total number of batches                      ...      335
Average number of points per batch           ...       61
Average number of grid points per atom       ...      620
UseSFitting                                  ... on

GRIDX 2
-------
General Integration Accuracy     IntAcc      ... 4.020
Radial Grid Type                 RadialGrid  ... OptM3 with GC (2021)
Angular Grid (max. ang.)         AngularGrid ... 2 (Lebedev-110)
Angular grid pruning method      GridPruning ... 4 (adaptive)
Weight generation scheme         WeightScheme... Becke
Basis function cutoff            BFCut       ... 1.0000e-11
Integration weight cutoff        WCut        ... 1.0000e-14
Angular grids for H and He will be reduced by one unit
Partially contracted basis set               ... on
Rotationally invariant grid construction     ... off

Total number of grid points                  ...    45043
Total number of batches                      ...      721
Average number of points per batch           ...       62
Average number of grid points per atom       ...     1365
UseSFitting                                  ... on

GRIDX 3
-------
General Integration Accuracy     IntAcc      ... 4.338
Radial Grid Type                 RadialGrid  ... OptM3 with GC (2021)
Angular Grid (max. ang.)         AngularGrid ... 3 (Lebedev-194)
Angular grid pruning method      GridPruning ... 4 (adaptive)
Weight generation scheme         WeightScheme... Becke
Basis function cutoff            BFCut       ... 1.0000e-11
Integration weight cutoff        WCut        ... 1.0000e-14
Angular grids for H and He will be reduced by one unit
Partially contracted basis set               ... on
Rotationally invariant grid construction     ... off

Total number of grid points                  ...    98677
Total number of batches                      ...     1555
Average number of points per batch           ...       63
Average number of grid points per atom       ...     2990
UseSFitting                                  ... on

Time for X-Grid setup             =    1.727 sec


--------------------
CPCM SOLVATION MODEL
--------------------
CPCM parameters:
  Epsilon                                         ...      47.2000
  Refrac                                          ...       1.4790
  Rsolv                                           ...       1.3000
  Surface type                                    ... GAUSSIAN VDW
  Epsilon function type                           ...         CPCM
Radii:
 Radius for C  used is    3.8550 Bohr (=   2.0400 Ang.)
 Radius for O  used is    3.4469 Bohr (=   1.8240 Ang.)
 Radius for H  used is    2.4944 Bohr (=   1.3200 Ang.)
 Radius for N  used is    3.5149 Bohr (=   1.8600 Ang.)
Calculating surface                               ...        done! (  0.0s)
GEPOL surface points                              ...         1764
GEPOL Volume                                      ...    2137.5183
GEPOL Surface-area                                ...    1120.9615
Calculating surface distance matrix               ...        done! (  0.1s)
Performing Cholesky decomposition & store         ...        done! (  0.2s)
Overall time for CPCM initialization              ...                 0.3s
--------------
SCF ITERATIONS
--------------
ITER       Energy         Delta-E        Max-DP      RMS-DP      [F,P]     Damp
               ***  Starting incremental Fock matrix formation  ***
  0   -970.8488365710   0.000000000000 0.20393514  0.00090813  0.2664393 0.7000
  1   -971.0549990789  -0.206162507814 0.19556918  0.00078343  0.1048157 0.7000
                               ***Turning on DIIS***
  2   -971.1370159432  -0.082016864374 0.31903285  0.00147977  0.0340543 0.0000
  3   -971.2734541418  -0.136438198608 0.13304127  0.00050378  0.0529429 0.0000
  4   -971.2977625725  -0.024308430619 0.03469849  0.00017706  0.0166693 0.0000
  5   -971.2995962534  -0.001833680920 0.02461787  0.00008944  0.0063124 0.0000
                      *** Initiating the SOSCF procedure ***
                           *** Shutting down DIIS ***
                      *** Re-Reading the Fockian *** 
                      *** Removing any level shift *** 
ITER      Energy       Delta-E        Grad      Rot      Max-DP    RMS-DP
  6   -971.29971466  -0.0001184047  0.000314  0.000314  0.003587  0.000024
               *** Restarting incremental Fock matrix formation ***
  7   -971.29965801   0.0000566521  0.000196  0.001033  0.002821  0.000024
  8   -971.29965703   0.0000009747  0.000429  0.000805  0.001269  0.000010
  9   -971.29966026  -0.0000032336  0.000063  0.000170  0.000313  0.000005
 10   -971.29966010   0.0000001632  0.000062  0.000067  0.000425  0.000002
 11   -971.29966041  -0.0000003101  0.000009  0.000039  0.000116  0.000001
 12   -971.29966040   0.0000000119  0.000014  0.000028  0.000199  0.000001
 13   -971.29966042  -0.0000000171  0.000004  0.000008  0.000333  0.000002
 14   -971.29966040   0.0000000205  0.000004  0.000004  0.000089  0.000001
                  ***Gradient check signals convergence***
              ***Rediagonalizing the Fockian in SOSCF/NRSCF***

               *****************************************************
               *                     SUCCESS                       *
               *           SCF CONVERGED AFTER  15 CYCLES          *
               *****************************************************

Old exchange energy                            =    -31.234971447 Eh
New exchange energy                            =    -31.234972361 Eh
Exchange energy change after final integration =     -0.000000914 Eh
Total energy after final integration           =   -971.299661349 Eh
Final COS-X integration done in                =     9.614 sec

----------------
TOTAL SCF ENERGY
----------------

Total Energy       :         -971.29966135 Eh          -26430.40748 eV

Components:
Nuclear Repulsion  :         1579.84739450 Eh           42989.83317 eV
Electronic Energy  :        -2551.14705585 Eh          -69420.24065 eV
One Electron Energy:        -4463.38952763 Eh         -121455.00370 eV
Two Electron Energy:         1912.24247178 Eh           52034.76305 eV
Max COSX asymmetry :            0.00000276 Eh               0.00008 eV
CPCM Dielectric    :           -0.03016141 Eh              -0.82073 eV

Virial components:
Potential Energy   :        -1938.41538812 Eh          -52746.96431 eV
Kinetic Energy     :          967.11572677 Eh           26316.55683 eV
Virial Ratio       :            2.00432620


DFT components:
N(Alpha)           :       71.999976401122 electrons
N(Beta)            :       71.999976401122 electrons
N(Total)           :      143.999952802244 electrons
E(X)               :      -93.589238739048 Eh       
E(C)               :       -4.866410729557 Eh       
E(XC)              :      -98.455649468605 Eh       
DFET-embed. en.    :        0.000000000000 Eh       
CPCM Solvation Model Properties:
Surface-charge          :           -0.02682100
Charge-correction       :           -0.00012076 Eh              -0.00329 eV
Free-energy (cav+disp)  :  This term is not implemented in the current solvation scheme

---------------
SCF CONVERGENCE
---------------

  Last Energy change         ...   -3.8479e-08  Tolerance :   1.0000e-08
  Last MAX-Density change    ...    1.7764e-15  Tolerance :   1.0000e-07
  Last RMS-Density change    ...    1.4369e-17  Tolerance :   5.0000e-09
  Last Orbital Gradient      ...    2.3003e-07  Tolerance :   1.0000e-05
  Last Orbital Rotation      ...    7.9444e-07  Tolerance :   1.0000e-05

             **** THE GBW FILE WAS UPDATED (4_CCH_free/4_CCH_free.gbw) ****
             **** DENSITY 4_CCH_free/4_CCH_free.scfp WAS UPDATED ****
             **** ENERGY FILE WAS UPDATED (4_CCH_free/4_CCH_free.en.tmp) ****
             **** THE GBW FILE WAS UPDATED (4_CCH_free/4_CCH_free.gbw) ****
             **** DENSITY 4_CCH_free/4_CCH_free.scfp WAS UPDATED ****
----------------
ORBITAL ENERGIES
----------------

  NO   OCC          E(Eh)            E(eV) 
   0   2.0000     -19.294214      -525.0222 
   1   2.0000     -19.271254      -524.3975 
   2   2.0000     -19.248031      -523.7656 
   3   2.0000     -19.235031      -523.4118 
   4   2.0000     -19.213117      -522.8155 
   5   2.0000     -14.603100      -397.3705 
   6   2.0000     -10.367021      -282.1010 
   7   2.0000     -10.319015      -280.7947 
   8   2.0000     -10.306648      -280.4581 
   9   2.0000     -10.294281      -280.1216 
  10   2.0000     -10.276900      -279.6487 
  11   2.0000     -10.273910      -279.5673 
  12   2.0000     -10.267666      -279.3974 
  13   2.0000     -10.253629      -279.0154 
  14   2.0000     -10.245735      -278.8006 
  15   2.0000     -10.244689      -278.7722 
  16   2.0000     -10.234019      -278.4818 
  17   2.0000     -10.231769      -278.4206 
  18   2.0000     -10.227903      -278.3154 
  19   2.0000     -10.223607      -278.1985 
  20   2.0000      -1.250862       -34.0377 
  21   2.0000      -1.162221       -31.6256 
  22   2.0000      -1.114400       -30.3244 
  23   2.0000      -1.111198       -30.2372 
  24   2.0000      -1.068821       -29.0841 
  25   2.0000      -0.933242       -25.3948 
  26   2.0000      -0.894125       -24.3304 
  27   2.0000      -0.849450       -23.1147 
  28   2.0000      -0.802366       -21.8335 
  29   2.0000      -0.794558       -21.6210 
  30   2.0000      -0.781405       -21.2631 
  31   2.0000      -0.757337       -20.6082 
  32   2.0000      -0.724466       -19.7137 
  33   2.0000      -0.707308       -19.2468 
  34   2.0000      -0.678082       -18.4515 
  35   2.0000      -0.634576       -17.2677 
  36   2.0000      -0.625151       -17.0112 
  37   2.0000      -0.614299       -16.7159 
  38   2.0000      -0.583799       -15.8860 
  39   2.0000      -0.579573       -15.7710 
  40   2.0000      -0.557323       -15.1655 
  41   2.0000      -0.548778       -14.9330 
  42   2.0000      -0.541563       -14.7367 
  43   2.0000      -0.525390       -14.2966 
  44   2.0000      -0.522535       -14.2189 
  45   2.0000      -0.516754       -14.0616 
  46   2.0000      -0.507402       -13.8071 
  47   2.0000      -0.500755       -13.6262 
  48   2.0000      -0.489877       -13.3302 
  49   2.0000      -0.477918       -13.0048 
  50   2.0000      -0.461018       -12.5449 
  51   2.0000      -0.459665       -12.5081 
  52   2.0000      -0.450637       -12.2625 
  53   2.0000      -0.442782       -12.0487 
  54   2.0000      -0.433157       -11.7868 
  55   2.0000      -0.422843       -11.5061 
  56   2.0000      -0.411451       -11.1962 
  57   2.0000      -0.392786       -10.6883 
  58   2.0000      -0.387609       -10.5474 
  59   2.0000      -0.386879       -10.5275 
  60   2.0000      -0.373537       -10.1645 
  61   2.0000      -0.359960        -9.7950 
  62   2.0000      -0.351721        -9.5708 
  63   2.0000      -0.345387        -9.3985 
  64   2.0000      -0.343231        -9.3398 
  65   2.0000      -0.337628        -9.1873 
  66   2.0000      -0.330875        -9.0036 
  67   2.0000      -0.318867        -8.6768 
  68   2.0000      -0.313555        -8.5323 
  69   2.0000      -0.274074        -7.4579 
  70   2.0000      -0.250225        -6.8090 
  71   2.0000      -0.243157        -6.6166 
  72   0.0000      -0.060589        -1.6487 
  73   0.0000      -0.020706        -0.5634 
  74   0.0000      -0.007179        -0.1953 
  75   0.0000       0.001790         0.0487 
  76   0.0000       0.012317         0.3352 
  77   0.0000       0.042699         1.1619 
  78   0.0000       0.057386         1.5616 
  79   0.0000       0.063153         1.7185 
  80   0.0000       0.071699         1.9510 
  81   0.0000       0.074402         2.0246 
  82   0.0000       0.085068         2.3148 
  83   0.0000       0.086458         2.3526 
  84   0.0000       0.091146         2.4802 
  85   0.0000       0.097012         2.6398 
  86   0.0000       0.098817         2.6889 
  87   0.0000       0.104150         2.8341 
  88   0.0000       0.116700         3.1756 
  89   0.0000       0.121031         3.2934 
  90   0.0000       0.131979         3.5913 
  91   0.0000       0.132879         3.6158 
  92   0.0000       0.137979         3.7546 
  93   0.0000       0.145899         3.9701 
  94   0.0000       0.149379         4.0648 
  95   0.0000       0.151276         4.1164 
  96   0.0000       0.153476         4.1763 
  97   0.0000       0.163779         4.4567 
  98   0.0000       0.165667         4.5080 
  99   0.0000       0.186691         5.0801 
 100   0.0000       0.195849         5.3293 
 101   0.0000       0.199595         5.4313 
 102   0.0000       0.204937         5.5766 
 103   0.0000       0.212426         5.7804 
 104   0.0000       0.215503         5.8641 
 105   0.0000       0.220081         5.9887 
 106   0.0000       0.221485         6.0269 
 107   0.0000       0.224680         6.1139 
 108   0.0000       0.235163         6.3991 
 109   0.0000       0.236295         6.4299 
 110   0.0000       0.238308         6.4847 
 111   0.0000       0.245084         6.6691 
 112   0.0000       0.249372         6.7858 
 113   0.0000       0.259266         7.0550 
 114   0.0000       0.269627         7.3369 
 115   0.0000       0.273890         7.4529 
 116   0.0000       0.280626         7.6362 
 117   0.0000       0.286014         7.7828 
 118   0.0000       0.294480         8.0132 
 119   0.0000       0.297388         8.0923 
 120   0.0000       0.300981         8.1901 
 121   0.0000       0.304967         8.2986 
 122   0.0000       0.314962         8.5706 
 123   0.0000       0.318695         8.6721 
 124   0.0000       0.325319         8.8524 
 125   0.0000       0.330045         8.9810 
 126   0.0000       0.334940         9.1142 
 127   0.0000       0.337188         9.1753 
 128   0.0000       0.346427         9.4268 
 129   0.0000       0.351541         9.5659 
 130   0.0000       0.367256         9.9935 
 131   0.0000       0.368247        10.0205 
 132   0.0000       0.370437        10.0801 
 133   0.0000       0.377133        10.2623 
 134   0.0000       0.380357        10.3501 
 135   0.0000       0.383809        10.4440 
 136   0.0000       0.386923        10.5287 
 137   0.0000       0.390250        10.6192 
 138   0.0000       0.398019        10.8307 
 139   0.0000       0.400939        10.9101 
 140   0.0000       0.405649        11.0383 
 141   0.0000       0.411360        11.1937 
 142   0.0000       0.414616        11.2823 
 143   0.0000       0.416391        11.3306 
 144   0.0000       0.422302        11.4914 
 145   0.0000       0.427651        11.6370 
 146   0.0000       0.430898        11.7253 
 147   0.0000       0.442188        12.0326 
 148   0.0000       0.447461        12.1760 
 149   0.0000       0.449130        12.2214 
 150   0.0000       0.454818        12.3762 
 151   0.0000       0.462406        12.5827 
 152   0.0000       0.465061        12.6550 
 153   0.0000       0.468224        12.7410 
 154   0.0000       0.475592        12.9415 
 155   0.0000       0.478206        13.0126 
 156   0.0000       0.479889        13.0584 
 157   0.0000       0.487833        13.2746 
 158   0.0000       0.490641        13.3510 
 159   0.0000       0.494399        13.4533 
 160   0.0000       0.500788        13.6271 
 161   0.0000       0.511786        13.9264 
 162   0.0000       0.516413        14.0523 
 163   0.0000       0.517352        14.0779 
 164   0.0000       0.526595        14.3294 
 165   0.0000       0.538987        14.6666 
 166   0.0000       0.545568        14.8457 
 167   0.0000       0.548110        14.9148 
 168   0.0000       0.551690        15.0122 
 169   0.0000       0.557278        15.1643 
 170   0.0000       0.562840        15.3157 
 171   0.0000       0.573515        15.6061 
 172   0.0000       0.581631        15.8270 
 173   0.0000       0.586263        15.9530 
 174   0.0000       0.589524        16.0418 
 175   0.0000       0.599583        16.3155 
 176   0.0000       0.603806        16.4304 
 177   0.0000       0.612694        16.6722 
 178   0.0000       0.617626        16.8065 
 179   0.0000       0.623733        16.9726 
 180   0.0000       0.639930        17.4134 
 181   0.0000       0.643761        17.5176 
 182   0.0000       0.653142        17.7729 
 183   0.0000       0.659147        17.9363 
 184   0.0000       0.663820        18.0634 
 185   0.0000       0.674529        18.3549 
 186   0.0000       0.681498        18.5445 
 187   0.0000       0.683299        18.5935 
 188   0.0000       0.694260        18.8918 
 189   0.0000       0.708265        19.2729 
 190   0.0000       0.715035        19.4571 
 191   0.0000       0.715784        19.4775 
 192   0.0000       0.722694        19.6655 
 193   0.0000       0.734019        19.9737 
 194   0.0000       0.746317        20.3083 
 195   0.0000       0.749576        20.3970 
 196   0.0000       0.760510        20.6945 
 197   0.0000       0.768187        20.9034 
 198   0.0000       0.772253        21.0141 
 199   0.0000       0.778889        21.1947 
 200   0.0000       0.784469        21.3465 
 201   0.0000       0.799248        21.7486 
 202   0.0000       0.807694        21.9785 
 203   0.0000       0.811057        22.0700 
 204   0.0000       0.822260        22.3748 
 205   0.0000       0.835176        22.7263 
 206   0.0000       0.838692        22.8220 
 207   0.0000       0.846770        23.0418 
 208   0.0000       0.862322        23.4650 
 209   0.0000       0.864168        23.5152 
 210   0.0000       0.868529        23.6339 
 211   0.0000       0.885582        24.0979 
 212   0.0000       0.887608        24.1530 
 213   0.0000       0.892331        24.2816 
 214   0.0000       0.899795        24.4847 
 215   0.0000       0.910435        24.7742 
 216   0.0000       0.912162        24.8212 
 217   0.0000       0.931607        25.3503 
 218   0.0000       0.935559        25.4579 
 219   0.0000       0.943129        25.6638 
 220   0.0000       0.951100        25.8808 
 221   0.0000       0.958851        26.0917 
 222   0.0000       0.966807        26.3082 
 223   0.0000       0.977072        26.5875 
 224   0.0000       0.983169        26.7534 
 225   0.0000       0.990172        26.9440 
 226   0.0000       0.994639        27.0655 
 227   0.0000       1.008406        27.4401 
 228   0.0000       1.016510        27.6606 
 229   0.0000       1.023443        27.8493 
 230   0.0000       1.036395        28.2017 
 231   0.0000       1.041113        28.3301 
 232   0.0000       1.046306        28.4714 
 233   0.0000       1.058728        28.8095 
 234   0.0000       1.063508        28.9395 
 235   0.0000       1.072430        29.1823 
 236   0.0000       1.080205        29.3939 
 237   0.0000       1.087178        29.5836 
 238   0.0000       1.099291        29.9132 
 239   0.0000       1.099566        29.9207 
 240   0.0000       1.119437        30.4614 
 241   0.0000       1.130125        30.7523 
 242   0.0000       1.143502        31.1163 
 243   0.0000       1.149175        31.2706 
 244   0.0000       1.172188        31.8968 
 245   0.0000       1.180497        32.1230 
 246   0.0000       1.189164        32.3588 
 247   0.0000       1.198712        32.6186 
 248   0.0000       1.206076        32.8190 
 249   0.0000       1.220387        33.2084 
 250   0.0000       1.233189        33.5568 
 251   0.0000       1.241503        33.7830 
 252   0.0000       1.246954        33.9313 
 253   0.0000       1.254429        34.1348 
 254   0.0000       1.266695        34.4685 
 255   0.0000       1.276002        34.7218 
 256   0.0000       1.294159        35.2159 
 257   0.0000       1.307881        35.5893 
 258   0.0000       1.314395        35.7665 
 259   0.0000       1.329120        36.1672 
 260   0.0000       1.335998        36.3543 
 261   0.0000       1.345699        36.6183 
 262   0.0000       1.355553        36.8865 
 263   0.0000       1.371557        37.3220 
 264   0.0000       1.391701        37.8701 
 265   0.0000       1.398938        38.0670 
 266   0.0000       1.407608        38.3030 
 267   0.0000       1.431050        38.9409 
 268   0.0000       1.435358        39.0581 
 269   0.0000       1.443018        39.2665 
 270   0.0000       1.446901        39.3722 
 271   0.0000       1.450423        39.4680 
 272   0.0000       1.457388        39.6575 
 273   0.0000       1.471136        40.0316 
 274   0.0000       1.481489        40.3134 
 275   0.0000       1.487239        40.4698 
 276   0.0000       1.488201        40.4960 
 277   0.0000       1.494707        40.6730 
 278   0.0000       1.498088        40.7650 
 279   0.0000       1.506315        40.9889 
 280   0.0000       1.522703        41.4349 
 281   0.0000       1.524036        41.4711 
 282   0.0000       1.530512        41.6473 
 283   0.0000       1.530868        41.6570 
 284   0.0000       1.541345        41.9421 
 285   0.0000       1.542872        41.9837 
 286   0.0000       1.545178        42.0464 
 287   0.0000       1.553340        42.2685 
 288   0.0000       1.574560        42.8460 
 289   0.0000       1.578517        42.9536 
 290   0.0000       1.588197        43.2170 
 291   0.0000       1.593897        43.3721 
 292   0.0000       1.598199        43.4892 
 293   0.0000       1.602612        43.6093 
 294   0.0000       1.611212        43.8433 
 295   0.0000       1.619906        44.0799 
 296   0.0000       1.634711        44.4828 
 297   0.0000       1.639570        44.6150 
 298   0.0000       1.640417        44.6380 
 299   0.0000       1.651880        44.9499 
 300   0.0000       1.668096        45.3912 
 301   0.0000       1.678045        45.6619 
 302   0.0000       1.693781        46.0901 
 303   0.0000       1.707254        46.4567 
 304   0.0000       1.717199        46.7274 
 305   0.0000       1.722831        46.8806 
 306   0.0000       1.728283        47.0290 
 307   0.0000       1.731176        47.1077 
 308   0.0000       1.736424        47.2505 
 309   0.0000       1.745365        47.4938 
 310   0.0000       1.763762        47.9944 
 311   0.0000       1.771733        48.2113 
 312   0.0000       1.779811        48.4311 
 313   0.0000       1.787048        48.6281 
 314   0.0000       1.804201        49.0948 
 315   0.0000       1.811148        49.2838 
 316   0.0000       1.814559        49.3767 
 317   0.0000       1.849756        50.3344 
 318   0.0000       1.856288        50.5122 
 319   0.0000       1.864869        50.7457 
 320   0.0000       1.881221        51.1906 
 321   0.0000       1.883607        51.2555 
 322   0.0000       1.894997        51.5655 
 323   0.0000       1.899582        51.6902 
 324   0.0000       1.905203        51.8432 
 325   0.0000       1.918031        52.1923 
 326   0.0000       1.935859        52.6774 
 327   0.0000       1.937502        52.7221 
 328   0.0000       1.951811        53.1115 
 329   0.0000       1.963776        53.4371 
 330   0.0000       1.971790        53.6551 
 331   0.0000       1.985837        54.0374 
 332   0.0000       1.996769        54.3348 
 333   0.0000       2.009266        54.6749 
 334   0.0000       2.017151        54.8895 
 335   0.0000       2.024259        55.0829 
 336   0.0000       2.032057        55.2951 
 337   0.0000       2.040984        55.5380 
 338   0.0000       2.060389        56.0660 
 339   0.0000       2.062387        56.1204 
 340   0.0000       2.077760        56.5387 
 341   0.0000       2.082544        56.6689 
 342   0.0000       2.090907        56.8965 
 343   0.0000       2.102237        57.2048 
 344   0.0000       2.109206        57.3944 
 345   0.0000       2.122591        57.7586 
 346   0.0000       2.130465        57.9729 
 347   0.0000       2.139158        58.2095 
 348   0.0000       2.145199        58.3738 
 349   0.0000       2.154344        58.6227 
 350   0.0000       2.172905        59.1278 
 351   0.0000       2.184703        59.4488 
 352   0.0000       2.188041        59.5396 
 353   0.0000       2.201719        59.9118 
 354   0.0000       2.215997        60.3003 
 355   0.0000       2.228286        60.6348 
 356   0.0000       2.238585        60.9150 
 357   0.0000       2.251958        61.2789 
 358   0.0000       2.259322        61.4793 
 359   0.0000       2.264381        61.6169 
 360   0.0000       2.274850        61.9018 
 361   0.0000       2.277719        61.9799 
 362   0.0000       2.282278        62.1039 
 363   0.0000       2.290143        62.3180 
 364   0.0000       2.320026        63.1311 
 365   0.0000       2.323269        63.2194 
 366   0.0000       2.334087        63.5137 
 367   0.0000       2.348438        63.9043 
 368   0.0000       2.359678        64.2101 
 369   0.0000       2.371510        64.5321 
 370   0.0000       2.381147        64.7943 
 371   0.0000       2.391199        65.0678 
 372   0.0000       2.395701        65.1903 
 373   0.0000       2.414382        65.6987 
 374   0.0000       2.419953        65.8503 
 375   0.0000       2.426616        66.0316 
 376   0.0000       2.433591        66.2214 
 377   0.0000       2.452726        66.7421 
 378   0.0000       2.457944        66.8841 
 379   0.0000       2.475849        67.3713 
 380   0.0000       2.483626        67.5829 
 381   0.0000       2.495402        67.9033 
 382   0.0000       2.509246        68.2801 
 383   0.0000       2.516668        68.4820 
 384   0.0000       2.524264        68.6887 
 385   0.0000       2.528627        68.8074 
 386   0.0000       2.542482        69.1845 
 387   0.0000       2.546664        69.2983 
 388   0.0000       2.555343        69.5344 
 389   0.0000       2.555816        69.5473 
 390   0.0000       2.567084        69.8539 
 391   0.0000       2.575837        70.0921 
 392   0.0000       2.581266        70.2398 
 393   0.0000       2.597226        70.6741 
 394   0.0000       2.602886        70.8281 
 395   0.0000       2.625862        71.4533 
 396   0.0000       2.633068        71.6494 
 397   0.0000       2.644248        71.9536 
 398   0.0000       2.651283        72.1451 
 399   0.0000       2.662357        72.4464 
 400   0.0000       2.665883        72.5424 
 401   0.0000       2.675428        72.8021 
 402   0.0000       2.678312        72.8806 
 403   0.0000       2.683456        73.0206 
 404   0.0000       2.701902        73.5225 
 405   0.0000       2.709628        73.7327 
 406   0.0000       2.712084        73.7996 
 407   0.0000       2.728775        74.2537 
 408   0.0000       2.736139        74.4541 
 409   0.0000       2.743149        74.6449 
 410   0.0000       2.750700        74.8504 
 411   0.0000       2.770479        75.3886 
 412   0.0000       2.776948        75.5646 
 413   0.0000       2.778455        75.6056 
 414   0.0000       2.785474        75.7966 
 415   0.0000       2.794181        76.0335 
 416   0.0000       2.812161        76.5228 
 417   0.0000       2.819966        76.7352 
 418   0.0000       2.824017        76.8454 
 419   0.0000       2.831145        77.0394 
 420   0.0000       2.838401        77.2368 
 421   0.0000       2.849953        77.5512 
 422   0.0000       2.853769        77.6550 
 423   0.0000       2.863888        77.9303 
 424   0.0000       2.871271        78.1313 
 425   0.0000       2.879052        78.3430 
 426   0.0000       2.888567        78.6019 
 427   0.0000       2.894040        78.7508 
 428   0.0000       2.896701        78.8232 
 429   0.0000       2.900075        78.9151 
 430   0.0000       2.908459        79.1432 
 431   0.0000       2.915745        79.3414 
 432   0.0000       2.925480        79.6064 
 433   0.0000       2.932123        79.7871 
 434   0.0000       2.935486        79.8786 
 435   0.0000       2.947502        80.2056 
 436   0.0000       2.967132        80.7398 
 437   0.0000       2.979676        81.0811 
 438   0.0000       2.982690        81.1631 
 439   0.0000       2.983196        81.1769 
 440   0.0000       2.995801        81.5199 
 441   0.0000       3.004739        81.7631 
 442   0.0000       3.012951        81.9866 
 443   0.0000       3.026206        82.3472 
 444   0.0000       3.033136        82.5358 
 445   0.0000       3.035539        82.6012 
 446   0.0000       3.041641        82.7673 
 447   0.0000       3.054738        83.1236 
 448   0.0000       3.060695        83.2857 
 449   0.0000       3.066315        83.4387 
 450   0.0000       3.082101        83.8682 
 451   0.0000       3.084027        83.9206 
 452   0.0000       3.098669        84.3191 
 453   0.0000       3.107105        84.5486 
 454   0.0000       3.112389        84.6924 
 455   0.0000       3.121463        84.9393 
 456   0.0000       3.131823        85.2212 
 457   0.0000       3.133929        85.2785 
 458   0.0000       3.144388        85.5632 
 459   0.0000       3.156898        85.9036 
 460   0.0000       3.163967        86.0959 
 461   0.0000       3.173774        86.3628 
 462   0.0000       3.176602        86.4397 
 463   0.0000       3.185586        86.6842 
 464   0.0000       3.199287        87.0570 
 465   0.0000       3.205196        87.2178 
 466   0.0000       3.213309        87.4386 
 467   0.0000       3.218529        87.5806 
 468   0.0000       3.222630        87.6922 
 469   0.0000       3.226071        87.7859 
 470   0.0000       3.232322        87.9560 
 471   0.0000       3.241895        88.2164 
 472   0.0000       3.246416        88.3395 
 473   0.0000       3.260847        88.7322 
 474   0.0000       3.265315        88.8537 
 475   0.0000       3.277283        89.1794 
 476   0.0000       3.291352        89.5623 
 477   0.0000       3.298893        89.7674 
 478   0.0000       3.303953        89.9051 
 479   0.0000       3.321056        90.3705 
 480   0.0000       3.322523        90.4104 
 481   0.0000       3.329449        90.5989 
 482   0.0000       3.334990        90.7497 
 483   0.0000       3.338419        90.8430 
 484   0.0000       3.345694        91.0409 
 485   0.0000       3.351218        91.1913 
 486   0.0000       3.358485        91.3890 
 487   0.0000       3.364680        91.5576 
 488   0.0000       3.368073        91.6499 
[...]
     46      -0.000362  -0.002787  -0.000027
     47      -0.000035  -0.001535  -0.000036
     48      -0.000102  -0.000309   0.000014
     49       0.000017   0.000271   0.000003
     50      -0.000073   0.000020   0.000017
     51      -0.000220  -0.000940  -0.000017
     52       0.000761   0.002187   0.000002
     53       0.000598   0.001388  -0.000014
     54      -0.000026   0.000015   0.000267
     55       0.000082  -0.000042  -0.001084
     56      -0.000014   0.000037   0.001083
     57       0.000028  -0.000024  -0.000393
     58      -0.000018   0.000013   0.000242
     59       0.000026  -0.000025  -0.000372
     60       0.000411  -0.000087   0.000293
     61      -0.000649   0.000160  -0.000183
     62      -0.001596   0.001035   0.001246
     63       0.237674  -0.032449  -0.000132
     64      -0.074477   0.010358   0.000239
     65       0.132776  -0.017920   0.000142
     66       0.252844  -0.031997  -0.000057
     67       0.431415  -0.051997  -0.000154
     68       0.703579  -0.086155  -0.000216
     69      -0.201047   0.134387   0.000072
     70       0.271252  -0.185593  -0.000089
     71       0.115552  -0.081995  -0.000032
     72       0.168351   0.808055   0.000155
     73      -0.054132  -0.252965  -0.000068
     74       0.092159   0.449722   0.000048
     75       0.003810   0.013006   0.000092
     76       0.000651   0.001589  -0.000009
     77      -0.003455  -0.012246  -0.000037
     78      -0.000039   0.000896   0.000019
     79      -0.006213  -0.016023   0.000062
     80      -0.006579  -0.016110   0.000081
     81      -0.000691  -0.002260   0.000025
     82      -0.004935  -0.017860  -0.000087
     83       0.001827   0.005898   0.000037
     84      -0.000006   0.000000   0.000233
     85      -0.000022   0.000009   0.000165
     86       0.000005  -0.000006  -0.000061
     87      -0.000001  -0.000001  -0.000001
     88      -0.000099   0.000049   0.000084
     89       0.000015  -0.000001   0.000016
     90      -0.000033   0.000007   0.024579
     91       0.000003   0.000004   0.019896
     92       0.000035  -0.000010  -0.008008
     93      -0.000004   0.000007  -0.086167
     94      -0.000003   0.000005  -0.069556
     95       0.000002  -0.000002   0.028031
     96       0.000233  -0.000171   0.749794
     97       0.000184  -0.000139   0.603722
     98      -0.000080   0.000059  -0.243328


-----------
IR SPECTRUM
-----------

 Mode   freq       eps      Int      T**2         TX        TY        TZ
       cm**-1   L/(mol*cm) km/mol    a.u.
----------------------------------------------------------------------------
  6:     16.89   0.000122    0.62  0.002258  ( 0.038564 -0.007130 -0.026824)
  7:     31.53   0.000492    2.48  0.004864  (-0.043511 -0.016966  0.051798)
  8:     48.13   0.000271    1.37  0.001756  (-0.001790 -0.041718 -0.003543)
  9:     63.18   0.000212    1.07  0.001045  ( 0.004333 -0.031992 -0.001785)
 10:     72.67   0.000120    0.61  0.000514  (-0.005358  0.019231 -0.010756)
 11:     98.42   0.000425    2.15  0.001346  ( 0.019809  0.030212 -0.006421)
 12:    101.93   0.001071    5.41  0.003278  (-0.025313 -0.015266  0.049036)
 13:    123.18   0.000301    1.52  0.000762  (-0.003147 -0.015008  0.022958)
 14:    129.94   0.000138    0.70  0.000332  ( 0.002115  0.014420  0.010935)
 15:    150.82   0.000124    0.63  0.000256  ( 0.010188  0.005230 -0.011187)
 16:    168.85   0.000358    1.81  0.000662  (-0.018905 -0.003563  0.017071)
 17:    194.95   0.000135    0.68  0.000215  (-0.001711  0.014126 -0.003605)
 18:    214.75   0.002378   12.02  0.003455  (-0.039042 -0.039217  0.019822)
 19:    250.73   0.002482   12.54  0.003089  (-0.002590 -0.031447  0.045750)
 20:    255.42   0.000623    3.15  0.000762  (-0.025399 -0.007420 -0.007849)
 21:    282.26   0.000656    3.31  0.000725  ( 0.007161 -0.007430 -0.024867)
 22:    312.38   0.001151    5.82  0.001150  ( 0.028014  0.017272  0.008177)
 23:    328.96   0.000319    1.61  0.000302  (-0.015358 -0.008108 -0.000911)
 24:    348.36   0.004282   21.64  0.003836  ( 0.041059  0.016013  0.043516)
 25:    390.49   0.000659    3.33  0.000527  (-0.007829 -0.012827 -0.017352)
 26:    441.91   0.002800   14.15  0.001977  (-0.042324 -0.007684 -0.011256)
 27:    471.30   0.001557    7.87  0.001031  (-0.002577  0.028169 -0.015187)
 28:    492.54   0.002407   12.17  0.001525  (-0.007048  0.031488  0.022001)
 29:    498.12   0.000370    1.87  0.000232  ( 0.010430  0.009298  0.006062)
 30:    532.38   0.004470   22.59  0.002620  ( 0.038376 -0.000477 -0.033873)
 31:    568.40   0.000565    2.85  0.000310  (-0.006441  0.005326  0.015501)
 32:    583.37   0.001144    5.78  0.000612  (-0.015409  0.014001  0.013362)
 33:    606.66   0.004076   20.60  0.002097  (-0.045125  0.000514 -0.007758)
 34:    633.67   0.006550   33.10  0.003226  (-0.048998 -0.026026 -0.012150)
 35:    652.53   0.015238   77.01  0.007287  (-0.021345  0.053422  0.063070)
 36:    693.93   0.000472    2.39  0.000212  ( 0.006716  0.012721  0.002327)
 37:    716.58   0.004052   20.48  0.001765  ( 0.003669 -0.037635 -0.018298)
 38:    730.63   0.003285   16.60  0.001403  (-0.034855  0.006780 -0.011925)
 39:    741.92   0.010735   54.25  0.004515  ( 0.036046 -0.039009  0.041163)
 40:    765.50   0.015209   76.86  0.006200  (-0.041010 -0.027137  0.061497)
 41:    773.07   0.014243   71.98  0.005750  ( 0.031947  0.061153 -0.031454)
 42:    785.86   0.002291   11.58  0.000910  (-0.002044  0.024038 -0.018099)
 43:    817.30   0.006674   33.73  0.002548  ( 0.009807  0.040664  0.028258)
 44:    850.41   0.004051   20.47  0.001486  ( 0.002258  0.037556 -0.008417)
 45:    876.06   0.001236    6.25  0.000440  ( 0.009540  0.015796 -0.009984)
 46:    898.98   0.003644   18.41  0.001265  ( 0.026566 -0.020481  0.011815)
 47:    944.32   0.060929  307.91  0.020135  ( 0.121894  0.067946  0.025689)
 48:    956.62   0.004412   22.30  0.001439  ( 0.037389  0.004729 -0.004372)
 49:    968.35   0.001666    8.42  0.000537  ( 0.017252 -0.014887  0.004206)
 50:    991.59   0.000047    0.24  0.000015  (-0.002854 -0.001989 -0.001658)
 51:   1008.53   0.006520   32.95  0.002017  (-0.018795 -0.039633 -0.009657)
 52:   1045.04   0.003278   16.56  0.000979  ( 0.006187 -0.021871 -0.021497)
 53:   1071.35   0.013924   70.37  0.004056  ( 0.053906 -0.016216  0.029782)
 54:   1084.30   0.009366   47.33  0.002695  ( 0.020373  0.018833  0.043883)
 55:   1097.74   0.016265   82.20  0.004624  (-0.026473  0.002593 -0.062580)
 56:   1138.72   0.010016   50.62  0.002745  ( 0.035550 -0.006934  0.037857)
 57:   1171.46   0.000194    0.98  0.000052  (-0.003694 -0.005233  0.003277)
 58:   1171.76   0.000158    0.80  0.000042  (-0.001391  0.002242 -0.005920)
 59:   1175.40   0.001711    8.65  0.000454  ( 0.018070 -0.006917  0.008936)
 60:   1193.67   0.001731    8.75  0.000453  ( 0.004035  0.020887  0.000091)
 61:   1206.00   0.003932   19.87  0.001017  ( 0.016155  0.013026  0.024222)
 62:   1211.98   0.002559   12.93  0.000659  ( 0.021469  0.011835  0.007615)
 63:   1223.65   0.002150   10.87  0.000548  (-0.001832 -0.021313  0.009523)
 64:   1242.29   0.040707  205.71  0.010225  (-0.065432 -0.014579 -0.075707)
 65:   1280.53   0.033565  169.62  0.008180  ( 0.022524  0.054964  0.068201)
 66:   1293.08   0.092135  465.61  0.022235  (-0.101414 -0.024293 -0.106585)
 67:   1306.75   0.012444   62.89  0.002972  (-0.007594 -0.026658 -0.046941)
 68:   1318.91   0.014857   75.08  0.003515  ( 0.021416  0.027485  0.047970)
 69:   1343.83   0.000374    1.89  0.000087  ( 0.001041  0.009117 -0.001656)
 70:   1373.67   0.004319   21.83  0.000981  (-0.002685  0.027205  0.015291)
 71:   1392.34   0.031881  161.11  0.007145  (-0.049148 -0.013513 -0.067434)
 72:   1423.15   0.019122   96.63  0.004193  ( 0.030699 -0.044184  0.036032)
 73:   1465.70   0.007072   35.74  0.001506  (-0.013950 -0.013804 -0.033474)
 74:   1466.50   0.003673   18.56  0.000781  (-0.013725 -0.021715  0.011026)
 75:   1470.08   0.010033   50.70  0.002130  ( 0.013352  0.021442  0.038624)
 76:   1473.32   0.003198   16.16  0.000677  (-0.023647  0.008780 -0.006420)
 77:   1473.78   0.003018   15.25  0.000639  (-0.012447 -0.016014  0.015088)
 78:   1483.28   0.005573   28.17  0.001173  (-0.008410 -0.018547 -0.027529)
 79:   1498.64   0.015037   75.99  0.003131  (-0.027691 -0.014144 -0.046521)
 80:   1536.65   0.038215  193.12  0.007761  ( 0.034197  0.035726  0.072904)
 81:   1648.64   0.013642   68.94  0.002582  (-0.033343  0.019537 -0.032997)
 82:   1663.24   0.020852  105.38  0.003912  ( 0.020244  0.010773  0.058194)
 83:   1696.47   0.192003  970.31  0.035319  (-0.054645  0.138450 -0.114736)
 84:   1805.29   0.103202  521.54  0.017840  ( 0.101280 -0.082734  0.027146)
 85:   2220.67   0.001364    6.90  0.000192  ( 0.003652  0.010616 -0.008107)
 86:   3038.54   0.012351   62.42  0.001268  (-0.029121  0.005933 -0.019627)
 87:   3075.34   0.005213   26.34  0.000529  ( 0.001968  0.013902  0.018217)
 88:   3109.88   0.000317    1.60  0.000032  (-0.003671  0.004217 -0.000766)
 89:   3110.43   0.007264   36.71  0.000729  ( 0.013453  0.017008 -0.016080)
 90:   3146.71   0.000343    1.73  0.000034  ( 0.002213  0.000780  0.005338)
 91:   3160.81   0.003240   16.38  0.000320  (-0.010017 -0.012024  0.008661)
 92:   3166.98   0.003748   18.94  0.000369  ( 0.000258  0.013056  0.014099)
 93:   3189.91   0.000264    1.33  0.000026  (-0.004159  0.001661 -0.002404)
 94:   3194.55   0.001818    9.19  0.000178  (-0.011028  0.004170 -0.006213)
 95:   3197.25   0.001679    8.48  0.000164  ( 0.009423 -0.008619 -0.000861)
 96:   3215.32   0.002679   13.54  0.000260  (-0.002139 -0.009819 -0.012612)
 97:   3231.05   0.000330    1.67  0.000032  (-0.004760  0.001666 -0.002540)
 98:   3445.48   0.040673  205.55  0.003684  ( 0.043543  0.038300 -0.017916)

* The epsilon (eps) is given for a Dirac delta lineshape.
** The dipole moment derivative (T) already includes vibrational overlap.

The first frequency considered to be a vibration is 6
The total number of vibrations considered is 93


--------------------------
THERMOCHEMISTRY AT 298.15K
--------------------------

Temperature         ... 298.15 K
Pressure            ... 1.00 atm
Total Mass          ... 275.26 AMU

Throughout the following assumptions are being made:
  (1) The electronic state is orbitally nondegenerate
  (2) There are no thermally accessible electronically excited states
  (3) Hindered rotations indicated by low frequency modes are not
      treated as such but are treated as vibrations and this may
      cause some error
  (4) All equations used are the standard statistical mechanics
      equations for an ideal gas
  (5) All vibrations are strictly harmonic

freq.      16.89  E(vib)   ...       0.57 
freq.      31.53  E(vib)   ...       0.55 
freq.      48.13  E(vib)   ...       0.53 
freq.      63.18  E(vib)   ...       0.51 
freq.      72.67  E(vib)   ...       0.49 
freq.      98.42  E(vib)   ...       0.46 
freq.     101.93  E(vib)   ...       0.46 
freq.     123.18  E(vib)   ...       0.43 
freq.     129.94  E(vib)   ...       0.43 
freq.     150.82  E(vib)   ...       0.40 
freq.     168.85  E(vib)   ...       0.38 
freq.     194.95  E(vib)   ...       0.36 
freq.     214.75  E(vib)   ...       0.34 
freq.     250.73  E(vib)   ...       0.30 
freq.     255.42  E(vib)   ...       0.30 
freq.     282.26  E(vib)   ...       0.28 
freq.     312.38  E(vib)   ...       0.25 
freq.     328.96  E(vib)   ...       0.24 
freq.     348.36  E(vib)   ...       0.23 
freq.     390.49  E(vib)   ...       0.20 
freq.     441.91  E(vib)   ...       0.17 
freq.     471.30  E(vib)   ...       0.15 
freq.     492.54  E(vib)   ...       0.14 
freq.     498.12  E(vib)   ...       0.14 
freq.     532.38  E(vib)   ...       0.13 
freq.     568.40  E(vib)   ...       0.11 
freq.     583.37  E(vib)   ...       0.11 
freq.     606.66  E(vib)   ...       0.10 
freq.     633.67  E(vib)   ...       0.09 
freq.     652.53  E(vib)   ...       0.08 
freq.     693.93  E(vib)   ...       0.07 
freq.     716.58  E(vib)   ...       0.07 
freq.     730.63  E(vib)   ...       0.06 
freq.     741.92  E(vib)   ...       0.06 
freq.     765.50  E(vib)   ...       0.06 
freq.     773.07  E(vib)   ...       0.05 
freq.     785.86  E(vib)   ...       0.05 
freq.     817.30  E(vib)   ...       0.05 
freq.     850.41  E(vib)   ...       0.04 
freq.     876.06  E(vib)   ...       0.04 
freq.     898.98  E(vib)   ...       0.03 
freq.     944.32  E(vib)   ...       0.03 
freq.     956.62  E(vib)   ...       0.03 
freq.     968.35  E(vib)   ...       0.03 
freq.     991.59  E(vib)   ...       0.02 
freq.    1008.53  E(vib)   ...       0.02 
freq.    1045.04  E(vib)   ...       0.02 
freq.    1071.35  E(vib)   ...       0.02 
freq.    1084.30  E(vib)   ...       0.02 
freq.    1097.74  E(vib)   ...       0.02 
freq.    1138.72  E(vib)   ...       0.01 
freq.    1171.46  E(vib)   ...       0.01 
freq.    1171.76  E(vib)   ...       0.01 
freq.    1175.40  E(vib)   ...       0.01 
freq.    1193.67  E(vib)   ...       0.01 
freq.    1206.00  E(vib)   ...       0.01 
freq.    1211.98  E(vib)   ...       0.01 
freq.    1223.65  E(vib)   ...       0.01 
freq.    1242.29  E(vib)   ...       0.01 
freq.    1280.53  E(vib)   ...       0.01 
freq.    1293.08  E(vib)   ...       0.01 
freq.    1306.75  E(vib)   ...       0.01 
freq.    1318.91  E(vib)   ...       0.01 
freq.    1343.83  E(vib)   ...       0.01 
freq.    1373.67  E(vib)   ...       0.01 
freq.    1392.34  E(vib)   ...       0.00 
freq.    1423.15  E(vib)   ...       0.00 
freq.    1465.70  E(vib)   ...       0.00 
freq.    1466.50  E(vib)   ...       0.00 
freq.    1470.08  E(vib)   ...       0.00 
freq.    1473.32  E(vib)   ...       0.00 
freq.    1473.78  E(vib)   ...       0.00 
freq.    1483.28  E(vib)   ...       0.00 
freq.    1498.64  E(vib)   ...       0.00 
freq.    1536.65  E(vib)   ...       0.00 
freq.    1648.64  E(vib)   ...       0.00 
freq.    1663.24  E(vib)   ...       0.00 
freq.    1696.47  E(vib)   ...       0.00 
freq.    1805.29  E(vib)   ...       0.00 
freq.    2220.67  E(vib)   ...       0.00 
freq.    3038.54  E(vib)   ...       0.00 
freq.    3075.34  E(vib)   ...       0.00 
freq.    3109.88  E(vib)   ...       0.00 
freq.    3110.43  E(vib)   ...       0.00 
freq.    3146.71  E(vib)   ...       0.00 
freq.    3160.81  E(vib)   ...       0.00 
freq.    3166.98  E(vib)   ...       0.00 
freq.    3189.91  E(vib)   ...       0.00 
freq.    3194.55  E(vib)   ...       0.00 
freq.    3197.25  E(vib)   ...       0.00 
freq.    3215.32  E(vib)   ...       0.00 
freq.    3231.05  E(vib)   ...       0.00 
freq.    3445.48  E(vib)   ...       0.00 

------------
INNER ENERGY
------------

The inner energy is: U= E(el) + E(ZPE) + E(vib) + E(rot) + E(trans)
    E(el)   - is the total energy from the electronic structure calculation
              = E(kin-el) + E(nuc-el) + E(el-el) + E(nuc-nuc)
    E(ZPE)  - the the zero temperature vibrational energy from the frequency calculation
    E(vib)  - the the finite temperature correction to E(ZPE) due to population
              of excited vibrational states
    E(rot)  - is the rotational thermal energy
    E(trans)- is the translational thermal energy

Summary of contributions to the inner energy U:
Electronic energy                ...   -971.33610817 Eh
Zero point energy                ...      0.25181618 Eh     158.02 kcal/mol
Thermal vibrational correction   ...      0.01577469 Eh       9.90 kcal/mol
Thermal rotational correction    ...      0.00141627 Eh       0.89 kcal/mol
Thermal translational correction ...      0.00141627 Eh       0.89 kcal/mol
-----------------------------------------------------------------------
Total thermal energy                   -971.06568475 Eh


Summary of corrections to the electronic energy:
(perhaps to be used in another calculation)
Total thermal correction                  0.01860724 Eh      11.68 kcal/mol
Non-thermal (ZPE) correction              0.25181618 Eh     158.02 kcal/mol
-----------------------------------------------------------------------
Total correction                          0.27042342 Eh     169.69 kcal/mol


--------
ENTHALPY
--------

The enthalpy is H = U + kB*T
                kB is Boltzmann's constant
Total free energy                 ...   -971.06568475 Eh 
Thermal Enthalpy correction       ...      0.00094421 Eh       0.59 kcal/mol
-----------------------------------------------------------------------
Total Enthalpy                    ...   -971.06474054 Eh


Note: Only C1 symmetry has been detected, increase convergence thresholds 
      if your molecule has a higher symmetry. Symmetry factor of 1.0 is   
      used for the rotational entropy correction. 
 

Note: Rotational entropy computed according to Herzberg 
Infrared and Raman Spectra, Chapter V,1, Van Nostrand Reinhold, 1945 
Point Group:  C1, Symmetry Number:   1  
Rotational constants in cm-1:     0.013626     0.010870     0.007196 

Vibrational entropy computed according to the QRRHO of S. Grimme
Chem.Eur.J. 2012 18 9955


-------
ENTROPY
-------

The entropy contributions are T*S = T*(S(el)+S(vib)+S(rot)+S(trans))
     S(el)   - electronic entropy
     S(vib)  - vibrational entropy
     S(rot)  - rotational entropy
     S(trans)- translational entropy
The entropies will be listed as multiplied by the temperature to get
units of energy

Electronic entropy                ...      0.00000000 Eh      0.00 kcal/mol
Vibrational entropy               ...      0.02843990 Eh     17.85 kcal/mol
Rotational entropy                ...      0.01600286 Eh     10.04 kcal/mol
Translational entropy             ...      0.02030528 Eh     12.74 kcal/mol
-----------------------------------------------------------------------
Final entropy term                ...      0.06474804 Eh     40.63 kcal/mol

In case the symmetry of your molecule has not been determined correctly
or in case you have a reason to use a different symmetry number we print 
out the resulting rotational entropy values for sn=1,12 :
 --------------------------------------------------------
|  sn= 1 | S(rot)=       0.01600286 Eh     10.04 kcal/mol|
|  sn= 2 | S(rot)=       0.01534840 Eh      9.63 kcal/mol|
|  sn= 3 | S(rot)=       0.01496557 Eh      9.39 kcal/mol|
|  sn= 4 | S(rot)=       0.01469395 Eh      9.22 kcal/mol|
|  sn= 5 | S(rot)=       0.01448326 Eh      9.09 kcal/mol|
|  sn= 6 | S(rot)=       0.01431112 Eh      8.98 kcal/mol|
|  sn= 7 | S(rot)=       0.01416557 Eh      8.89 kcal/mol|
|  sn= 8 | S(rot)=       0.01403949 Eh      8.81 kcal/mol|
|  sn= 9 | S(rot)=       0.01392828 Eh      8.74 kcal/mol|
|  sn=10 | S(rot)=       0.01382880 Eh      8.68 kcal/mol|
|  sn=11 | S(rot)=       0.01373881 Eh      8.62 kcal/mol|
|  sn=12 | S(rot)=       0.01365666 Eh      8.57 kcal/mol|
 --------------------------------------------------------


-------------------
GIBBS FREE ENERGY
-------------------

The Gibbs free energy is G = H - T*S

Total enthalpy                    ...   -971.06474054 Eh 
Total entropy correction          ...     -0.06474804 Eh    -40.63 kcal/mol
-----------------------------------------------------------------------
Final Gibbs free energy         ...   -971.12948858 Eh

For completeness - the Gibbs free energy minus the electronic energy
G-E(el)                           ...      0.20661959 Eh    129.66 kcal/mol


Timings for individual modules:

Sum of individual times         ...     2523.017 sec (=  42.050 min)
GTO integral calculation        ...       29.097 sec (=   0.485 min)   1.2 %
SCF iterations                  ...      967.177 sec (=  16.120 min)  38.3 %
SCF Gradient evaluation         ...      262.520 sec (=   4.375 min)  10.4 %
Geometry relaxation             ...        1.508 sec (=   0.025 min)   0.1 %
Analytical frequency calculation...     1262.715 sec (=  21.045 min)  50.0 %
                             ****ORCA TERMINATED NORMALLY****
TOTAL RUN TIME: 0 days 0 hours 42 minutes 41 seconds 123 msec
