
                                 *****************
                                 * O   R   C   A *
                                 *****************

                                            #,                                       
                                            ###                                      
                                            ####                                     
                                            #####                                    
                                            ######                                   
                                           ########,                                 
                                     ,,################,,,,,                         
                               ,,#################################,,                 
                          ,,##########################################,,             
                       ,#########################################, ''#####,          
                    ,#############################################,,   '####,        
                  ,##################################################,,,,####,       
                ,###########''''           ''''###############################       
              ,#####''   ,,,,##########,,,,          '''####'''          '####       
            ,##' ,,,,###########################,,,                        '##       
           ' ,,###''''                  '''############,,,                           
         ,,##''                                '''############,,,,        ,,,,,,###''
      ,#''                                            '''#######################'''  
     '                                                          ''''####''''         
             ,#######,   #######,   ,#######,      ##                                
            ,#'     '#,  ##    ##  ,#'     '#,    #''#        ######   ,####,        
            ##       ##  ##   ,#'  ##            #'  '#       #        #'  '#        
            ##       ##  #######   ##           ,######,      #####,   #    #        
            '#,     ,#'  ##    ##  '#,     ,#' ,#      #,         ##   #,  ,#        
             '#######'   ##     ##  '#######'  #'      '#     #####' # '####'        



                  #######################################################
                  #                        -***-                        #
                  #          Department of theory and spectroscopy      #
                  #    Directorship and core code : Frank Neese         #
                  #        Max Planck Institute fuer Kohlenforschung    #
                  #                Kaiser Wilhelm Platz 1               #
                  #                 D-45470 Muelheim/Ruhr               #
                  #                      Germany                        #
                  #                                                     #
                  #                  All rights reserved                #
                  #                        -***-                        #
                  #######################################################


                         Program Version 5.0.4 -  RELEASE  -


 With contributions from (in alphabetic order):
   Daniel Aravena         : Magnetic Suceptibility
   Michael Atanasov       : Ab Initio Ligand Field Theory (pilot matlab implementation)
   Alexander A. Auer      : GIAO ZORA, VPT2 properties, NMR spectrum
   Ute Becker             : Parallelization
   Giovanni Bistoni       : ED, misc. LED, open-shell LED, HFLD
   Martin Brehm           : Molecular dynamics
   Dmytro Bykov           : SCF Hessian
   Vijay G. Chilkuri      : MRCI spin determinant printing, contributions to CSF-ICE
   Dipayan Datta          : RHF DLPNO-CCSD density
   Achintya Kumar Dutta   : EOM-CC, STEOM-CC
   Dmitry Ganyushin       : Spin-Orbit,Spin-Spin,Magnetic field MRCI
   Miquel Garcia          : C-PCM and meta-GGA Hessian, CC/C-PCM, Gaussian charge scheme
   Yang Guo               : DLPNO-NEVPT2, F12-NEVPT2, CIM, IAO-localization
   Andreas Hansen         : Spin unrestricted coupled pair/coupled cluster methods
   Benjamin Helmich-Paris : MC-RPA, TRAH-SCF, COSX integrals
   Lee Huntington         : MR-EOM, pCC
   Robert Izsak           : Overlap fitted RIJCOSX, COSX-SCS-MP3, EOM
   Marcus Kettner         : VPT2
   Christian Kollmar      : KDIIS, OOCD, Brueckner-CCSD(T), CCSD density, CASPT2, CASPT2-K
   Simone Kossmann        : Meta GGA functionals, TD-DFT gradient, OOMP2, MP2 Hessian
   Martin Krupicka        : Initial AUTO-CI
   Lucas Lang             : DCDCAS
   Marvin Lechner         : AUTO-CI (C++ implementation), FIC-MRCC
   Dagmar Lenk            : GEPOL surface, SMD
   Dimitrios Liakos       : Extrapolation schemes; Compound Job, initial MDCI parallelization
   Dimitrios Manganas     : Further ROCIS development; embedding schemes
   Dimitrios Pantazis     : SARC Basis sets
   Anastasios Papadopoulos: AUTO-CI, single reference methods and gradients
   Taras Petrenko         : DFT Hessian,TD-DFT gradient, ASA, ECA, R-Raman, ABS, FL, XAS/XES, NRVS
   Peter Pinski           : DLPNO-MP2, DLPNO-MP2 Gradient
   Christoph Reimann      : Effective Core Potentials
   Marius Retegan         : Local ZFS, SOC
   Christoph Riplinger    : Optimizer, TS searches, QM/MM, DLPNO-CCSD(T), (RO)-DLPNO pert. Triples
   Tobias Risthaus        : Range-separated hybrids, TD-DFT gradient, RPA, STAB
   Michael Roemelt        : Original ROCIS implementation
   Masaaki Saitow         : Open-shell DLPNO-CCSD energy and density
   Barbara Sandhoefer     : DKH picture change effects
   Avijit Sen             : IP-ROCIS
   Kantharuban Sivalingam : CASSCF convergence, NEVPT2, FIC-MRCI
   Bernardo de Souza      : ESD, SOC TD-DFT
   Georgi Stoychev        : AutoAux, RI-MP2 NMR, DLPNO-MP2 response
   Willem Van den Heuvel  : Paramagnetic NMR
   Boris Wezisla          : Elementary symmetry handling
   Frank Wennmohs         : Technical directorship


 We gratefully acknowledge several colleagues who have allowed us to
 interface, adapt or use parts of their codes:
   Stefan Grimme, W. Hujo, H. Kruse, P. Pracht,  : VdW corrections, initial TS optimization,
                  C. Bannwarth, S. Ehlert          DFT functionals, gCP, sTDA/sTD-DF
   Ed Valeev, F. Pavosevic, A. Kumar             : LibInt (2-el integral package), F12 methods
   Garnet Chan, S. Sharma, J. Yang, R. Olivares  : DMRG
   Ulf Ekstrom                                   : XCFun DFT Library
   Mihaly Kallay                                 : mrcc  (arbitrary order and MRCC methods)
   Jiri Pittner, Ondrej Demel                    : Mk-CCSD
   Frank Weinhold                                : gennbo (NPA and NBO analysis)
   Christopher J. Cramer and Donald G. Truhlar   : smd solvation model
   Lars Goerigk                                  : TD-DFT with DH, B97 family of functionals
   V. Asgeirsson, H. Jonsson                     : NEB implementation
   FAccTs GmbH                                   : IRC, NEB, NEB-TS, DLPNO-Multilevel, CI-OPT
                                                   MM, QMMM, 2- and 3-layer-ONIOM, Crystal-QMMM,
                                                   LR-CPCM, SF, NACMEs, symmetry and pop. for TD-DFT,
                                                   nearIR, NL-DFT gradient (VV10), updates on ESD,
                                                   ML-optimized integration grids
   S Lehtola, MJT Oliveira, MAL Marques          : LibXC Library
   Liviu Ungur et al                             : ANISO software


 Your calculation uses the libint2 library for the computation of 2-el integrals
 For citations please refer to: http://libint.valeyev.net

 Your ORCA version has been built with support for libXC version: 5.1.0
 For citations please refer to: https://tddft.org/programs/libxc/

 This ORCA versions uses:
   CBLAS   interface :  Fast vector & matrix operations
   LAPACKE interface :  Fast linear algebra routines
   SCALAPACK package :  Parallel linear algebra routines
   Shared memory     :  Shared parallel matrices
   BLAS/LAPACK       :  OpenBLAS 0.3.15  USE64BITINT DYNAMIC_ARCH NO_AFFINITY Haswell SINGLE_THREADED
        Core in use  :  Haswell
   Copyright (c) 2011-2014, The OpenBLAS Project


Your calculation utilizes the atom-pairwise dispersion correction
with the Becke-Johnson damping scheme (D3BJ)
Cite in your paper:
S.Grimme, S.Ehrlich, L.Goerigk, J Comput Chem, (2011), 32, 1456–1465 
S.Grimme, J.Antony, S.Ehrlich and H.Krieg, J.Chem.Phys., 132, (2010), 154104 
   

================================================================================

----- Orbital basis set information -----
Your calculation utilizes the basis: def2-TZVP
   F. Weigend and R. Ahlrichs, Phys. Chem. Chem. Phys. 7, 3297 (2005).

----- AuxJ basis set information -----
Your calculation utilizes the auxiliary basis: def2/J
   F. Weigend, Phys. Chem. Chem. Phys. 8, 1057 (2006).

================================================================================
                                        WARNINGS
                       Please study these warnings very carefully!
================================================================================


WARNING: Geometry Optimization
  ===> : Switching off AutoStart
         For restart on a previous wavefunction, please use MOREAD

INFO   : the flag for use of the SHARK integral package has been found!

================================================================================
                                       INPUT FILE
================================================================================
NAME = 4_CHCH2_free/4_CHCH2_free.inp
|  1> %pal nprocs 24 end
|  2> %maxcore 3500
|  3> ! PBE0 D3BJ def2-TZVP TightSCF OPT FREQ TightOpt
|  4> ! CPCM(dmso)
|  5> %scf
|  6> MaxIter 800
|  7> end
|  8> %geom
|  9> MaxIter 800
| 10> MaxStep 0.2
| 11> end
| 12> *xyz 0 1
| 13> C        1.317056000      0.709957000     -0.572901000
| 14> C        2.155186000      1.754612000      0.139411000
| 15> O        3.325850000      1.953231000     -0.057872000
| 16> O        1.413197000      2.396988000      1.027144000
| 17> C        2.087631000      3.362089000      1.842163000
| 18> H        0.346982000      1.132607000     -0.850550000
| 19> H        2.877358000      2.879087000      2.417826000
| 20> H        1.327967000      3.768830000      2.504110000
| 21> C        2.292590000     -1.373532000     -0.266419000
| 22> C        1.169792000     -0.565714000      0.289124000
| 23> C       -0.176584000     -1.234608000      0.159247000
| 24> C       -0.451161000     -2.132883000     -0.859248000
| 25> C       -1.699468000     -2.729499000     -0.979079000
| 26> C       -2.685685000     -2.423270000     -0.057101000
| 27> C       -2.437026000     -1.526104000      0.973119000
| 28> C       -1.188368000     -0.923633000      1.079016000
| 29> O       -0.867051000     -0.022693000      2.032624000
| 30> C       -1.830599000      0.274148000      3.024983000
| 31> N        2.696021000     -0.880487000     -1.405754000
| 32> O        3.531375000     -1.243982000     -2.223112000
| 33> H        1.344371000     -0.324811000      1.338680000
| 34> H        0.330017000     -2.378082000     -1.571317000
| 35> H       -1.893455000     -3.429027000     -1.783193000
| 36> H       -3.665941000     -2.880099000     -0.133771000
| 37> H       -3.220920000     -1.292228000      1.680565000
| 38> H       -1.361807000      0.994588000      3.692225000
| 39> H       -2.105500000     -0.622616000      3.587525000
| 40> H       -2.727692000      0.716606000      2.583348000
| 41> O        1.977725000      0.288853000     -1.753938000
| 42> H        2.513158000      4.148763000      1.219347000
| 43> C        2.885104000     -2.559435000      0.277884000
| 44> H        3.677916000     -3.007265000     -0.312312000
| 45> C        2.506622000     -3.103027000      1.437253000
| 46> H        1.713780000     -2.674463000      2.040368000
| 47> H        2.986344000     -3.999687000      1.808932000
| 48> *
| 49> 
| 50>                          ****END OF INPUT****
================================================================================

                       *****************************
                       * Geometry Optimization Run *
                       *****************************

Geometry optimization settings:
Update method            Update   .... BFGS
Choice of coordinates    CoordSys .... Z-matrix Internals
Initial Hessian          InHess   .... Almoef's Model

Convergence Tolerances:
Energy Change            TolE     ....  1.0000e-06 Eh
Max. Gradient            TolMAXG  ....  1.0000e-04 Eh/bohr
RMS Gradient             TolRMSG  ....  3.0000e-05 Eh/bohr
Max. Displacement        TolMAXD  ....  1.0000e-03 bohr
RMS Displacement         TolRMSD  ....  6.0000e-04 bohr
Strict Convergence                ....  False
------------------------------------------------------------------------------
                        ORCA OPTIMIZATION COORDINATE SETUP
------------------------------------------------------------------------------

The optimization will be done in new redundant internal coordinates
Making redundant internal coordinates   ...  (new redundants) done
Evaluating the initial hessian          ...  (Almloef) done
Evaluating the coordinates              ...  done
Calculating the B-matrix                .... done
Calculating the G-matrix                .... done
Diagonalizing the G-matrix              .... done
Small eigenvalue found = 4.407e-03
Small eigenvalue found = 1.056e-02
Small eigenvalue found = 1.096e-02
Small eigenvalue found = 1.858e-02
Small eigenvalue found = 2.161e-02
Small eigenvalue found = 2.619e-02
The first mode is                       ....   75
The number of degrees of freedom        ....   99

    -----------------------------------------------------------------
                    Redundant Internal Coordinates


    -----------------------------------------------------------------
         Definition                    Initial Value    Approx d2E/dq
    -----------------------------------------------------------------
      1. B(C   1,C   0)                  1.5170         0.391912   
      2. B(O   2,C   1)                  1.2037         1.109561   
      3. B(O   3,C   1)                  1.3234         0.714835   
      4. B(C   4,O   3)                  1.4320         0.479640   
      5. B(H   5,C   0)                  1.0940         0.354889   
      6. B(H   6,C   4)                  1.0901         0.359950   
      7. B(H   7,C   4)                  1.0866         0.364625   
      8. B(C   9,C   8)                  1.4906         0.431763   
      9. B(C   9,C   0)                  1.5466         0.351416   
     10. B(C  10,C   9)                  1.5090         0.403568   
     11. B(C  11,C  10)                  1.3855         0.635201   
     12. B(C  12,C  11)                  1.3887         0.627710   
     13. B(C  13,C  12)                  1.3844         0.637884   
     14. B(C  14,C  13)                  1.3886         0.628117   
     15. B(C  15,C  10)                  1.4023         0.597238   
     16. B(C  15,C  14)                  1.3904         0.623780   
     17. B(O  16,C  15)                  1.3507         0.646586   
     18. B(C  17,O  16)                  1.4147         0.511096   
     19. B(N  18,C   8)                  1.3053         0.763716   
     20. B(O  19,N  18)                  1.2239         0.922480   
     21. B(H  20,C   9)                  1.0909         0.358901   
     22. B(H  21,C  11)                  1.0851         0.366664   
     23. B(H  22,C  12)                  1.0833         0.369054   
     24. B(H  23,C  13)                  1.0842         0.367865   
     25. B(H  24,C  14)                  1.0815         0.371506   
     26. B(H  25,C  17)                  1.0881         0.362592   
     27. B(H  26,C  17)                  1.0937         0.355221   
     28. B(H  27,C  17)                  1.0934         0.355593   
     29. B(O  28,N  18)                  1.4158         0.455851   
     30. B(O  28,C   0)                  1.4173         0.506249   
     31. B(H  29,C   4)                  1.0899         0.360265   
     32. B(C  30,C   8)                  1.4331         0.533353   
     33. B(H  31,C  30)                  1.0851         0.366646   
     34. B(C  32,C  30)                  1.3352         0.764008   
     35. B(H  33,C  32)                  1.0844         0.367529   
     36. B(H  34,C  32)                  1.0827         0.369864   
     37. A(C   1,C   0,O  28)          109.7769         0.383648   
     38. A(C   9,C   0,O  28)          105.2938         0.376463   
     39. A(C   1,C   0,C   9)          111.0322         0.362531   
     40. A(C   1,C   0,H   5)          110.0630         0.326101   
     41. A(H   5,C   0,C   9)          112.0665         0.320320   
     42. A(H   5,C   0,O  28)          108.4610         0.338178   
     43. A(O   2,C   1,O   3)          125.1110         0.488876   
     44. A(C   0,C   1,O   2)          125.0317         0.440913   
     45. A(C   0,C   1,O   3)          109.8460         0.407579   
     46. A(C   1,O   3,C   4)          116.4159         0.419739   
     47. A(H   7,C   4,H  29)          110.5423         0.291432   
     48. A(O   3,C   4,H   6)          110.0685         0.335941   
     49. A(O   3,C   4,H   7)          105.6485         0.336663   
     50. A(O   3,C   4,H  29)          110.1885         0.335990   
     51. A(H   6,C   4,H   7)          110.5257         0.291392   
     52. A(H   6,C   4,H  29)          109.7998         0.290841   
     53. A(C   9,C   8,N  18)          110.6955         0.419551   
     54. A(N  18,C   8,C  30)          121.0839         0.435744   
     55. A(C   9,C   8,C  30)          128.1959         0.396282   
     56. A(C  10,C   9,H  20)          108.8736         0.328287   
     57. A(C   8,C   9,H  20)          110.9592         0.331973   
     58. A(C   0,C   9,H  20)          109.8067         0.320909   
     59. A(C   0,C   9,C  10)          113.7407         0.364352   
     60. A(C   8,C   9,C  10)          113.5643         0.377488   
     61. A(C   0,C   9,C   8)           99.6453         0.368593   
     62. A(C   9,C  10,C  11)          121.8358         0.403830   
     63. A(C  11,C  10,C  15)          118.8783         0.433038   
     64. A(C   9,C  10,C  15)          119.2763         0.399470   
     65. A(C  12,C  11,H  21)          119.5657         0.354733   
     66. A(C  10,C  11,H  21)          119.0935         0.355447   
     67. A(C  10,C  11,C  12)          121.3392         0.436935   
     68. A(C  13,C  12,H  22)          120.6387         0.356094   
     69. A(C  11,C  12,H  22)          120.1604         0.355124   
     70. A(C  11,C  12,C  13)          119.2003         0.437267   
     71. A(C  14,C  13,H  23)          119.1186         0.354968   
     72. A(C  12,C  13,H  23)          120.2519         0.355899   
     73. A(C  12,C  13,C  14)          120.6290         0.437318   
     74. A(C  13,C  14,C  15)          119.8202         0.435560   
     75. A(C  15,C  14,H  24)          120.4898         0.355144   
     76. A(C  13,C  14,H  24)          119.6858         0.355562   
     77. A(C  14,C  15,O  16)          123.8092         0.434970   
     78. A(C  10,C  15,O  16)          116.0634         0.431582   
     79. A(C  10,C  15,C  14)          120.1264         0.431628   
     80. A(C  15,O  16,C  17)          118.2416         0.416994   
     81. A(H  26,C  17,H  27)          109.4699         0.289644   
     82. A(H  25,C  17,H  27)          109.4645         0.290579   
     83. A(O  16,C  17,H  27)          111.1242         0.338827   
     84. A(H  25,C  17,H  26)          109.6187         0.290531   
     85. A(O  16,C  17,H  26)          111.0969         0.338768   
     86. A(O  16,C  17,H  25)          105.9998         0.339932   
     87. A(C   8,N  18,O  19)          132.9720         0.475025   
     88. A(O  19,N  18,O  28)          115.2976         0.429589   
     89. A(C   8,N  18,O  28)          111.7037         0.418099   
     90. A(C   0,O  28,N  18)          106.0790         0.388854   
     91. A(H  31,C  30,C  32)          120.7540         0.366815   
     92. A(C   8,C  30,C  32)          123.3316         0.438651   
     93. A(C   8,C  30,H  31)          115.9144         0.345111   
     94. A(H  33,C  32,H  34)          117.4063         0.293006   
     95. A(C  30,C  32,H  34)          120.6390         0.367365   
     96. A(C  30,C  32,H  33)          121.9545         0.366966   
     97. D(O   3,C   1,C   0,H   5)     44.4296         0.011421   
     98. D(O   3,C   1,C   0,C   9)    -80.2459         0.011421   
     99. D(O   2,C   1,C   0,O  28)    -17.4311         0.011421   
    100. D(O   2,C   1,C   0,H   5)   -136.7432         0.011421   
    101. D(O   3,C   1,C   0,O  28)    163.7417         0.011421   
    102. D(O   2,C   1,C   0,C   9)     98.5813         0.011421   
    103. D(C   4,O   3,C   1,C   0)    176.2296         0.038423   
    104. D(C   4,O   3,C   1,O   2)     -2.5965         0.038423   
    105. D(H   7,C   4,O   3,C   1)   -179.4133         0.018148   
    106. D(H   6,C   4,O   3,C   1)    -60.0730         0.018148   
    107. D(H  29,C   4,O   3,C   1)     61.1633         0.018148   
    108. D(C  10,C   9,C   0,C   1)    144.3370         0.009943   
    109. D(H  20,C   9,C   8,N  18)   -131.6407         0.013765   
    110. D(C   8,C   9,C   0,O  28)     24.2665         0.009943   
    111. D(C  10,C   9,C   8,C  30)    -72.8489         0.013765   
    112. D(C   8,C   9,C   0,C   1)    -94.4818         0.009943   
    113. D(C   0,C   9,C   8,C  30)    165.8426         0.013765   
    114. D(C   0,C   9,C   8,N  18)    -15.9725         0.013765   
    115. D(H  20,C   9,C   0,O  28)    140.8086         0.009943   
    116. D(H  20,C   9,C   0,H   5)   -101.4757         0.009943   
    117. D(H  20,C   9,C   0,C   1)     22.0603         0.009943   
    118. D(C  10,C   9,C   8,N  18)    105.3360         0.013765   
    119. D(C  10,C   9,C   0,O  28)    -96.9147         0.009943   
    120. D(C  10,C   9,C   0,H   5)     20.8010         0.009943   
    121. D(H  20,C   9,C   8,C  30)     50.1744         0.013765   
    122. D(C   8,C   9,C   0,H   5)    141.9821         0.009943   
    123. D(C  15,C  10,C   9,C   0)    -93.9126         0.012078   
    124. D(C  11,C  10,C   9,H  20)   -152.2603         0.012078   
    125. D(C  11,C  10,C   9,C   8)    -28.0992         0.012078   
    126. D(C  15,C  10,C   9,C   8)    153.0386         0.012078   
    127. D(C  11,C  10,C   9,C   0)     84.9496         0.012078   
    128. D(C  15,C  10,C   9,H  20)     28.8775         0.012078   
    129. D(H  21,C  11,C  10,C  15)   -179.8358         0.028005   
    130. D(H  21,C  11,C  10,C   9)      1.2976         0.028005   
    131. D(C  12,C  11,C  10,C  15)     -0.2941         0.028005   
    132. D(C  12,C  11,C  10,C   9)   -179.1607         0.028005   
    133. D(H  22,C  12,C  11,H  21)     -0.4820         0.027307   
    134. D(H  22,C  12,C  11,C  10)    179.9784         0.027307   
    135. D(C  13,C  12,C  11,H  21)    179.2390         0.027307   
    136. D(C  13,C  12,C  11,C  10)     -0.3006         0.027307   
    137. D(H  23,C  13,C  12,H  22)     -0.2038         0.028258   
    138. D(H  23,C  13,C  12,C  11)   -179.9234         0.028258   
    139. D(C  14,C  13,C  12,H  22)   -179.9679         0.028258   
    140. D(C  14,C  13,C  12,C  11)      0.3125         0.028258   
    141. D(H  24,C  14,C  13,H  23)     -0.2287         0.027344   
    142. D(H  24,C  14,C  13,C  12)    179.5381         0.027344   
    143. D(C  15,C  14,C  13,H  23)   -179.4921         0.027344   
    144. D(C  15,C  14,C  13,C  12)      0.2746         0.027344   
    145. D(O  16,C  15,C  14,H  24)     -0.5044         0.026945   
    146. D(C  10,C  15,C  14,H  24)    179.8646         0.026945   
    147. D(C  10,C  15,C  14,C  13)     -0.8779         0.026945   
    148. D(O  16,C  15,C  10,C  11)   -178.7753         0.024578   
    149. D(O  16,C  15,C  10,C   9)      0.1208         0.024578   
    150. D(O  16,C  15,C  14,C  13)    178.7531         0.026945   
    151. D(C  14,C  15,C  10,C  11)      0.8834         0.024578   
    152. D(C  14,C  15,C  10,C   9)    179.7795         0.024578   
    153. D(C  17,O  16,C  15,C  14)      3.5158         0.030871   
    154. D(C  17,O  16,C  15,C  10)   -176.8395         0.030871   
    155. D(H  27,C  17,O  16,C  15)    -62.3810         0.020682   
    156. D(H  26,C  17,O  16,C  15)     59.7631         0.020682   
    157. D(H  25,C  17,O  16,C  15)    178.7762         0.020682   
    158. D(O  19,N  18,C   8,C  30)      2.0185         0.049181   
    159. D(O  19,N  18,C   8,C   9)   -176.3159         0.049181   
    160. D(O  28,N  18,C   8,C  30)   -179.9970         0.049181   
    161. D(O  28,N  18,C   8,C   9)      1.6686         0.049181   
    162. D(C   0,O  28,N  18,O  19)   -166.4484         0.017291   
    163. D(C   0,O  28,N  18,C   8)     15.1825         0.017291   
    164. D(N  18,O  28,C   0,C   9)    -24.5557         0.020278   
    165. D(N  18,O  28,C   0,H   5)   -144.6811         0.020278   
    166. D(N  18,O  28,C   0,C   1)     95.0294         0.020278   
    167. D(C  32,C  30,C   8,N  18)   -179.9112         0.019423   
    168. D(C  32,C  30,C   8,C   9)     -1.8939         0.019423   
    169. D(H  31,C  30,C   8,N  18)      0.1098         0.019423   
    170. D(H  31,C  30,C   8,C   9)    178.1271         0.019423   
    171. D(H  34,C  32,C  30,H  31)      0.1125         0.041779   
    172. D(H  34,C  32,C  30,C   8)   -179.8656         0.041779   
    173. D(H  33,C  32,C  30,H  31)   -179.7163         0.041779   
    174. D(H  33,C  32,C  30,C   8)      0.3056         0.041779   
    -----------------------------------------------------------------

Number of atoms                         .... 35
Number of degrees of freedom            .... 174

         *************************************************************
         *                GEOMETRY OPTIMIZATION CYCLE   1            *
         *************************************************************
---------------------------------
CARTESIAN COORDINATES (ANGSTROEM)
---------------------------------
  C      1.317056    0.709957   -0.572901
  C      2.155186    1.754612    0.139411
  O      3.325850    1.953231   -0.057872
  O      1.413197    2.396988    1.027144
  C      2.087631    3.362089    1.842163
  H      0.346982    1.132607   -0.850550
  H      2.877358    2.879087    2.417826
  H      1.327967    3.768830    2.504110
  C      2.292590   -1.373532   -0.266419
  C      1.169792   -0.565714    0.289124
  C     -0.176584   -1.234608    0.159247
  C     -0.451161   -2.132883   -0.859248
  C     -1.699468   -2.729499   -0.979079
  C     -2.685685   -2.423270   -0.057101
  C     -2.437026   -1.526104    0.973119
  C     -1.188368   -0.923633    1.079016
  O     -0.867051   -0.022693    2.032624
  C     -1.830599    0.274148    3.024983
  N      2.696021   -0.880487   -1.405754
  O      3.531375   -1.243982   -2.223112
  H      1.344371   -0.324811    1.338680
  H      0.330017   -2.378082   -1.571317
  H     -1.893455   -3.429027   -1.783193
  H     -3.665941   -2.880099   -0.133771
  H     -3.220920   -1.292228    1.680565
  H     -1.361807    0.994588    3.692225
  H     -2.105500   -0.622616    3.587525
  H     -2.727692    0.716606    2.583348
  O      1.977725    0.288853   -1.753938
  H      2.513158    4.148763    1.219347
  C      2.885104   -2.559435    0.277884
  H      3.677916   -3.007265   -0.312312
  C      2.506622   -3.103027    1.437253
  H      1.713780   -2.674463    2.040368
  H      2.986344   -3.999687    1.808932

----------------------------
CARTESIAN COORDINATES (A.U.)
----------------------------
  NO LB      ZA    FRAG     MASS         X           Y           Z
   0 C     6.0000    0    12.011    2.488875    1.341624   -1.082626
   1 C     6.0000    0    12.011    4.072711    3.315736    0.263449
   2 O     8.0000    0    15.999    6.284946    3.691072   -0.109362
   3 O     8.0000    0    15.999    2.670555    4.529651    1.941021
   4 C     6.0000    0    12.011    3.945051    6.353427    3.481184
   5 H     1.0000    0     1.008    0.655701    2.140317   -1.607307
   6 H     1.0000    0     1.008    5.437419    5.440686    4.569029
   7 H     1.0000    0     1.008    2.509494    7.122057    4.732082
   8 C     6.0000    0    12.011    4.332367   -2.595599   -0.503459
   9 C     6.0000    0    12.011    2.210587   -1.069045    0.546365
  10 C     6.0000    0    12.011   -0.333695   -2.333071    0.300933
  11 C     6.0000    0    12.011   -0.852571   -4.030565   -1.623743
  12 C     6.0000    0    12.011   -3.211529   -5.158006   -1.850191
  13 C     6.0000    0    12.011   -5.075209   -4.579317   -0.107905
  14 C     6.0000    0    12.011   -4.605312   -2.883919    1.838928
  15 C     6.0000    0    12.011   -2.245690   -1.745413    2.039045
  16 O     8.0000    0    15.999   -1.638489   -0.042884    3.841103
  17 C     6.0000    0    12.011   -3.459331    0.518065    5.716389
  18 N     7.0000    0    14.007    5.094741   -1.663879   -2.656490
  19 O     8.0000    0    15.999    6.673332   -2.350785   -4.201073
  20 H     1.0000    0     1.008    2.540493   -0.613804    2.529739
  21 H     1.0000    0     1.008    0.623642   -4.493924   -2.969359
  22 H     1.0000    0     1.008   -3.578111   -6.479922   -3.369746
  23 H     1.0000    0     1.008   -6.927625   -5.442598   -0.252791
  24 H     1.0000    0     1.008   -6.086657   -2.441957    3.175808
  25 H     1.0000    0     1.008   -2.573442    1.879499    6.977294
  26 H     1.0000    0     1.008   -3.978818   -1.176574    6.779440
  27 H     1.0000    0     1.008   -5.154591    1.354189    4.881820
  28 O     8.0000    0    15.999    3.737359    0.545853   -3.314462
  29 H     1.0000    0     1.008    4.749180    7.840026    2.304232
  30 C     6.0000    0    12.011    5.452056   -4.836631    0.525125
  31 H     1.0000    0     1.008    6.950254   -5.682907   -0.590184
  32 C     6.0000    0    12.011    4.736829   -5.863871    2.716015
  33 H     1.0000    0     1.008    3.238575   -5.054003    3.855737
  34 H     1.0000    0     1.008    5.643372   -7.558313    3.418386

--------------------------------
INTERNAL COORDINATES (ANGSTROEM)
--------------------------------
 C      0   0   0     0.000000000000     0.00000000     0.00000000
 C      1   0   0     1.516955619413     0.00000000     0.00000000
 O      2   1   0     1.203671171934   125.03171101     0.00000000
 O      2   1   3     1.323353498044   109.84597020   181.17277578
 C      4   2   1     1.431969668295   116.41585902   176.22959121
 H      1   2   3     1.093967803538   110.06301603   223.25683616
 H      5   4   2     1.090113551930   110.06847138   299.92699593
 H      5   4   2     1.086600876489   105.64850485   180.58667654
 C      1   2   3     2.320888669153   108.90311096    56.72830659
 C      9   1   2     1.490594946582    41.07007715   100.40023223
 C     10   9   1     1.508978313874   113.56431671   121.30848240
 C     11  10   9     1.385504445889   121.83577533   331.90079530
 C     12  11  10     1.388733410798   121.33918300   180.83933381
 C     13  12  11     1.384356747379   119.20025672   359.69937632
 C     14  13  12     1.388557301028   120.62900304     0.31251527
 C     15  14  13     1.390443196040   119.82021770     0.27463825
 O     16  15  14     1.350668618038   123.80920663   178.75305170
 C     17  16  15     1.414678660497   118.24155123     3.51577797
 N      9   1   2     1.305348300650    71.06903320   264.60866021
 O     19   9   1     1.223935872709   132.97203670   172.66575472
 H     10   9   1     1.090907823689   110.95922883   244.33176896
 H     12  11  10     1.085082429148   119.09351335     1.29759983
 H     13  12  11     1.083314222167   120.16044042   179.97842341
 H     14  13  12     1.084192256787   120.25194275   180.07662408
 H     15  14  13     1.081511733421   119.68584516   179.53809450
 H     18  17  16     1.088122979919   105.99981921   178.77621124
 H     18  17  16     1.093713734604   111.09687582    59.76313700
 H     18  17  16     1.093428738253   111.12422835   297.61895328
 O     19   9   1     1.415816823276   111.70370373   350.65029508
 H      5   4   2     1.089875671745   110.18852722    61.16325643
 C      9   1   2     1.433075197404   165.19933690    51.59655616
 H     31   9  19     1.085096260550   115.91442677     0.10978651
 C     31   9  19     1.335244309087   123.33157983   180.08882402
 H     33  31   9     1.084441442534   121.95453010     0.30564694
 H     33  31   9     1.082717706480   120.63899497   180.13442515

---------------------------
INTERNAL COORDINATES (A.U.)
---------------------------
 C      0   0   0     0.000000000000     0.00000000     0.00000000
 C      1   0   0     2.866630678004     0.00000000     0.00000000
 O      2   1   0     2.274608870252   125.03171101     0.00000000
 O      2   1   3     2.500775689670   109.84597020   181.17277578
 C      4   2   1     2.706030505160   116.41585902   176.22959121
 H      1   2   3     2.067299548014   110.06301603   223.25683616
 H      5   4   2     2.060016068024   110.06847138   299.92699593
 H      5   4   2     2.053378073442   105.64850485   180.58667654
 C      1   2   3     4.385843972019   108.90311096    56.72830659
 C      9   1   2     2.816816225648    41.07007715   100.40023223
 C     10   9   1     2.851555755247   113.56431671   121.30848240
 C     11  10   9     2.618223960061   121.83577533   331.90079530
 C     12  11  10     2.624325819434   121.33918300   180.83933381
 C     13  12  11     2.616055124192   119.20025672   359.69937632
 C     14  13  12     2.623993020199   120.62900304     0.31251527
 C     15  14  13     2.627556845290   119.82021770     0.27463825
 O     16  15  14     2.552393785774   123.80920663   178.75305170
 C     17  16  15     2.673355235842   118.24155123     3.51577797
 N      9   1   2     2.466750797609    71.06903320   264.60866021
 O     19   9   1     2.312903604903   132.97203670   172.66575472
 H     10   9   1     2.061517024124   110.95922883   244.33176896
 H     12  11  10     2.050508623820   119.09351335     1.29759983
 H     13  12  11     2.047167196877   120.16044042   179.97842341
 H     14  13  12     2.048826441846   120.25194275   180.07662408
 H     15  14  13     2.043760986789   119.68584516   179.53809450
 H     18  17  16     2.056254432073   105.99981921   178.77621124
 H     18  17  16     2.066819427309   111.09687582    59.76313700
 H     18  17  16     2.066280862258   111.12422835   297.61895328
 O     19   9   1     2.675506051790   111.70370373   350.65029508
 H      5   4   2     2.059566539621   110.18852722    61.16325643
 C      9   1   2     2.708119652408   165.19933690    51.59655616
 H     31   9  19     2.050534761382   115.91442677     0.10978651
 C     31   9  19     2.523246066051   123.33157983   180.08882402
 H     33  31   9     2.049297334664   121.95453010     0.30564694
 H     33  31   9     2.046039945594   120.63899497   180.13442515

---------------------
BASIS SET INFORMATION
---------------------
There are 4 groups of distinct atoms

 Group   1 Type C   : 11s6p2d1f contracted to 5s3p2d1f pattern {62111/411/11/1}
 Group   2 Type O   : 11s6p2d1f contracted to 5s3p2d1f pattern {62111/411/11/1}
 Group   3 Type H   : 5s1p contracted to 3s1p pattern {311/1}
 Group   4 Type N   : 11s6p2d1f contracted to 5s3p2d1f pattern {62111/411/11/1}

Atom   0C    basis set group =>   1
Atom   1C    basis set group =>   1
Atom   2O    basis set group =>   2
Atom   3O    basis set group =>   2
Atom   4C    basis set group =>   1
Atom   5H    basis set group =>   3
Atom   6H    basis set group =>   3
Atom   7H    basis set group =>   3
Atom   8C    basis set group =>   1
Atom   9C    basis set group =>   1
Atom  10C    basis set group =>   1
Atom  11C    basis set group =>   1
Atom  12C    basis set group =>   1
Atom  13C    basis set group =>   1
Atom  14C    basis set group =>   1
Atom  15C    basis set group =>   1
Atom  16O    basis set group =>   2
Atom  17C    basis set group =>   1
Atom  18N    basis set group =>   4
Atom  19O    basis set group =>   2
Atom  20H    basis set group =>   3
Atom  21H    basis set group =>   3
Atom  22H    basis set group =>   3
Atom  23H    basis set group =>   3
Atom  24H    basis set group =>   3
Atom  25H    basis set group =>   3
Atom  26H    basis set group =>   3
Atom  27H    basis set group =>   3
Atom  28O    basis set group =>   2
Atom  29H    basis set group =>   3
Atom  30C    basis set group =>   1
Atom  31H    basis set group =>   3
Atom  32C    basis set group =>   1
Atom  33H    basis set group =>   3
Atom  34H    basis set group =>   3
---------------------------------
AUXILIARY/J BASIS SET INFORMATION
---------------------------------
There are 4 groups of distinct atoms

 Group   1 Type C   : 12s5p4d2f1g contracted to 6s4p3d1f1g pattern {711111/2111/211/2/1}
 Group   2 Type O   : 12s5p4d2f1g contracted to 6s4p3d1f1g pattern {711111/2111/211/2/1}
 Group   3 Type H   : 5s2p1d contracted to 3s1p1d pattern {311/2/1}
 Group   4 Type N   : 12s5p4d2f1g contracted to 6s4p3d1f1g pattern {711111/2111/211/2/1}

Atom   0C    basis set group =>   1
Atom   1C    basis set group =>   1
Atom   2O    basis set group =>   2
Atom   3O    basis set group =>   2
Atom   4C    basis set group =>   1
Atom   5H    basis set group =>   3
Atom   6H    basis set group =>   3
Atom   7H    basis set group =>   3
Atom   8C    basis set group =>   1
Atom   9C    basis set group =>   1
Atom  10C    basis set group =>   1
Atom  11C    basis set group =>   1
Atom  12C    basis set group =>   1
Atom  13C    basis set group =>   1
Atom  14C    basis set group =>   1
Atom  15C    basis set group =>   1
Atom  16O    basis set group =>   2
Atom  17C    basis set group =>   1
Atom  18N    basis set group =>   4
Atom  19O    basis set group =>   2
Atom  20H    basis set group =>   3
Atom  21H    basis set group =>   3
Atom  22H    basis set group =>   3
Atom  23H    basis set group =>   3
Atom  24H    basis set group =>   3
Atom  25H    basis set group =>   3
Atom  26H    basis set group =>   3
Atom  27H    basis set group =>   3
Atom  28O    basis set group =>   2
Atom  29H    basis set group =>   3
Atom  30C    basis set group =>   1
Atom  31H    basis set group =>   3
Atom  32C    basis set group =>   1
Atom  33H    basis set group =>   3
Atom  34H    basis set group =>   3


           ************************************************************
           *        Program running with 24 parallel MPI-processes    *
           *              working on a common directory               *
           ************************************************************
------------------------------------------------------------------------------
                           ORCA GTO INTEGRAL CALCULATION
                           -- RI-GTO INTEGRALS CHOSEN --
------------------------------------------------------------------------------
------------------------------------------------------------------------------
                   ___                                                        
                  /   \      - P O W E R E D   B Y -                         
                 /     \                                                     
                 |  |  |   _    _      __       _____    __    __             
                 |  |  |  | |  | |    /  \     |  _  \  |  |  /  |          
                  \  \/   | |  | |   /    \    | | | |  |  | /  /          
                 / \  \   | |__| |  /  /\  \   | |_| |  |  |/  /          
                |  |  |   |  __  | /  /__\  \  |    /   |      \           
                |  |  |   | |  | | |   __   |  |    \   |  |\   \          
                \     /   | |  | | |  |  |  |  | |\  \  |  | \   \       
                 \___/    |_|  |_| |__|  |__|  |_| \__\ |__|  \__/        
                                                                              
                      - O R C A' S   B I G   F R I E N D -                    
                                      &                                       
                       - I N T E G R A L  F E E D E R -                       
                                                                              
 v1 FN, 2020, v2 2021                                                         
------------------------------------------------------------------------------


Reading SHARK input file 4_CHCH2_free/4_CHCH2_free.SHARKINP.tmp ... ok
----------------------
SHARK INTEGRAL PACKAGE
----------------------

Number of atoms                             ...     35
Number of basis functions                   ...    710
Number of shells                            ...    280
Maximum angular momentum                    ...      3
Integral batch strategy                     ... SHARK/LIBINT Hybrid
RI-J (if used) integral strategy            ... SPLIT-RIJ (Revised 2003 algorithm where possible)
Printlevel                                  ...      1
Contraction scheme used                     ... SEGMENTED contraction
Coulomb Range Separation                    ... NOT USED
Exchange Range Separation                   ... NOT USED
Finite Nucleus Model                        ... NOT USED
Auxiliary Coulomb fitting basis             ... AVAILABLE
   # of basis functions in Aux-J            ...   1145
   # of shells in Aux-J                     ...    375
   Maximum angular momentum in Aux-J        ...      4
Auxiliary J/K fitting basis                 ... NOT available
Auxiliary Correlation fitting basis         ... NOT available
Auxiliary 'external' fitting basis          ... NOT available
Integral threshold                          ...     2.500000e-11
Primitive cut-off                           ...     2.500000e-12
Primitive pair pre-selection threshold      ...     2.500000e-12

Calculating pre-screening integrals         ... done (  0.1 sec) Dimension = 280
Organizing shell pair data                  ... done (  0.3 sec)
Shell pair information
Total number of shell pairs                 ...     39340
Shell pairs after pre-screening             ...     29653
Total number of primitive shell pairs       ...    120780
Primitive shell pairs kept                  ...     60923
          la=0 lb=0:   7643 shell pairs
          la=1 lb=0:   8471 shell pairs
          la=1 lb=1:   2366 shell pairs
          la=2 lb=0:   4244 shell pairs
          la=2 lb=1:   2408 shell pairs
          la=2 lb=2:    640 shell pairs
          la=3 lb=0:   2006 shell pairs
          la=3 lb=1:   1151 shell pairs
          la=3 lb=2:    576 shell pairs
          la=3 lb=3:    148 shell pairs

Calculating one electron integrals          ... done (  0.1 sec)
Calculating RI/J V-Matrix + Cholesky decomp.... done (  0.2 sec)
Calculating Nuclear repulsion               ... done (  0.0 sec) ENN=   1627.101882620008 Eh

SHARK setup successfully completed in   1.3 seconds

Maximum memory used throughout the entire GTOINT-calculation: 45.9 MB


           ************************************************************
           *        Program running with 24 parallel MPI-processes    *
           *              working on a common directory               *
           ************************************************************
-------------------------------------------------------------------------------
                                 ORCA SCF
-------------------------------------------------------------------------------

------------
SCF SETTINGS
------------
Hamiltonian:
 Density Functional     Method          .... DFT(GTOs)
 Exchange Functional    Exchange        .... PBE
   PBE kappa parameter   XKappa         ....  0.804000
   PBE mue parameter    XMuePBE         ....  0.219520
 Correlation Functional Correlation     .... PBE
   PBE beta parameter  CBetaPBE         ....  0.066725
 LDA part of GGA corr.  LDAOpt          .... PW91-LDA
 Gradients option       PostSCFGGA      .... off
 Hybrid DFT is turned on
   Fraction HF Exchange ScalHFX         ....  0.250000
   Scaling of DF-GGA-X  ScalDFX         ....  0.750000
   Scaling of DF-GGA-C  ScalDFC         ....  1.000000
   Scaling of DF-LDA-C  ScalLDAC        ....  1.000000
   Perturbative correction              ....  0.000000
   Density functional embedding theory  .... OFF
   NL short-range parameter             ....  6.900000
 RI-approximation to the Coulomb term is turned on
   Number of AuxJ basis functions       .... 1145
   RIJ-COSX (HFX calculated with COS-X)).... on


General Settings:
 Integral files         IntName         .... 4_CHCH2_free/4_CHCH2_free
 Hartree-Fock type      HFTyp           .... RHF
 Total Charge           Charge          ....    0
 Multiplicity           Mult            ....    1
 Number of Electrons    NEL             ....  146
 Basis Dimension        Dim             ....  710
 Nuclear Repulsion      ENuc            ....   1627.1018826200 Eh

Convergence Acceleration:
 DIIS                   CNVDIIS         .... on
   Start iteration      DIISMaxIt       ....    12
   Startup error        DIISStart       ....  0.200000
   # of expansion vecs  DIISMaxEq       ....     5
   Bias factor          DIISBfac        ....   1.050
   Max. coefficient     DIISMaxC        ....  10.000
 Trust-Rad. Augm. Hess. CNVTRAH         .... auto
   Auto Start mean grad. ratio tolernc. ....  1.125000
   Auto Start start iteration           ....    20
   Auto Start num. interpolation iter.  ....    10
   Max. Number of Micro iterations      ....    16
   Max. Number of Macro iterations      .... Maxiter - #DIIS iter
   Number of Davidson start vectors     ....     2
   Converg. threshold I  (grad. norm)   ....   1.000e-05
   Converg. threshold II (energy diff.) ....   1.000e-08
   Grad. Scal. Fac. for Micro threshold ....   0.100
   Minimum threshold for Micro iter.    ....   0.010
   NR start threshold (gradient norm)   ....   0.001
   Initial trust radius                 ....   0.400
   Minimum AH scaling param. (alpha)    ....   1.000
   Maximum AH scaling param. (alpha)    .... 1000.000
   Orbital update algorithm             .... Taylor
   White noise on init. David. guess    .... on
   Maximum white noise                  ....   0.010
   Quad. conv. algorithm                .... NR
 SOSCF                  CNVSOSCF        .... on
   Start iteration      SOSCFMaxIt      ....   150
   Startup grad/error   SOSCFStart      ....  0.003300
 Level Shifting         CNVShift        .... on
   Level shift para.    LevelShift      ....    0.2500
   Turn off err/grad.   ShiftErr        ....    0.0010
 Zerner damping         CNVZerner       .... off
 Static damping         CNVDamp         .... on
   Fraction old density DampFac         ....    0.7000
   Max. Damping (<1)    DampMax         ....    0.9800
   Min. Damping (>=0)   DampMin         ....    0.0000
   Turn off err/grad.   DampErr         ....    0.1000
 Fernandez-Rico         CNVRico         .... off

SCF Procedure:
 Maximum # iterations   MaxIter         ....   800
 SCF integral mode      SCFMode         .... Direct
   Integral package                     .... SHARK and LIBINT hybrid scheme
 Reset frequency        DirectResetFreq ....    20
 Integral Threshold     Thresh          ....  2.500e-11 Eh
 Primitive CutOff       TCut            ....  2.500e-12 Eh

Convergence Tolerance:
 Convergence Check Mode ConvCheckMode   .... Total+1el-Energy
 Convergence forced     ConvForced      .... 0
 Energy Change          TolE            ....  1.000e-08 Eh
 1-El. energy change                    ....  1.000e-05 Eh
 Orbital Gradient       TolG            ....  1.000e-05
 Orbital Rotation angle TolX            ....  1.000e-05
 DIIS Error             TolErr          ....  5.000e-07


Diagonalization of the overlap matrix:
Smallest eigenvalue                        ... 6.346e-06
Time for diagonalization                   ...    0.155 sec
Threshold for overlap eigenvalues          ... 1.000e-08
Number of eigenvalues below threshold      ... 0
Time for construction of square roots      ...    0.099 sec
Total time needed                          ...    0.260 sec

Time for model grid setup =    0.453 sec

------------------------------
INITIAL GUESS: MODEL POTENTIAL
------------------------------
Loading Hartree-Fock densities                     ... done
Calculating cut-offs                               ... done
Initializing the effective Hamiltonian             ... done
Setting up the integral package (SHARK)            ... done
Starting the Coulomb interaction                   ... done (   0.3 sec)
Reading the grid                                   ... done
Mapping shells                                     ... done
Starting the XC term evaluation                    ... done (   0.1 sec)
  promolecular density results
     # of electrons  =    145.998839171
     EX              =   -123.414136797
     EC              =     -4.934873986
     EX+EC           =   -128.349010783
Transforming the Hamiltonian                       ... done (   0.1 sec)
Diagonalizing the Hamiltonian                      ... done (   0.1 sec)
Back transforming the eigenvectors                 ... done (   0.0 sec)
Now organizing SCF variables                       ... done
                      ------------------
                      INITIAL GUESS DONE (   1.3 sec)
                      ------------------
-------------------
DFT GRID GENERATION
-------------------

General Integration Accuracy     IntAcc      ... 4.388
Radial Grid Type                 RadialGrid  ... OptM3 with GC (2021)
Angular Grid (max. ang.)         AngularGrid ... 4 (Lebedev-302)
Angular grid pruning method      GridPruning ... 4 (adaptive)
Weight generation scheme         WeightScheme... Becke
Basis function cutoff            BFCut       ... 1.0000e-11
Integration weight cutoff        WCut        ... 1.0000e-14
Angular grids for H and He will be reduced by one unit
Partially contracted basis set               ... off
Rotationally invariant grid construction     ... off

Total number of grid points                  ...   167762
Total number of batches                      ...     2638
Average number of points per batch           ...       63
Average number of grid points per atom       ...     4793
Time for grid setup =    0.965 sec

--------------------
COSX GRID GENERATION
--------------------

GRIDX 1
-------
General Integration Accuracy     IntAcc      ... 3.816
Radial Grid Type                 RadialGrid  ... OptM3 with GC (2021)
Angular Grid (max. ang.)         AngularGrid ... 1 (Lebedev-50)
Angular grid pruning method      GridPruning ... 4 (adaptive)
Weight generation scheme         WeightScheme... Becke
Basis function cutoff            BFCut       ... 1.0000e-11
Integration weight cutoff        WCut        ... 1.0000e-14
Angular grids for H and He will be reduced by one unit
Partially contracted basis set               ... on
Rotationally invariant grid construction     ... off

Total number of grid points                  ...    21298
Total number of batches                      ...      352
Average number of points per batch           ...       60
Average number of grid points per atom       ...      609
UseSFitting                                  ... on

GRIDX 2
-------
General Integration Accuracy     IntAcc      ... 4.020
Radial Grid Type                 RadialGrid  ... OptM3 with GC (2021)
Angular Grid (max. ang.)         AngularGrid ... 2 (Lebedev-110)
Angular grid pruning method      GridPruning ... 4 (adaptive)
Weight generation scheme         WeightScheme... Becke
Basis function cutoff            BFCut       ... 1.0000e-11
Integration weight cutoff        WCut        ... 1.0000e-14
Angular grids for H and He will be reduced by one unit
Partially contracted basis set               ... on
Rotationally invariant grid construction     ... off

Total number of grid points                  ...    46320
Total number of batches                      ...      741
Average number of points per batch           ...       62
Average number of grid points per atom       ...     1323
UseSFitting                                  ... on

GRIDX 3
-------
General Integration Accuracy     IntAcc      ... 4.338
Radial Grid Type                 RadialGrid  ... OptM3 with GC (2021)
Angular Grid (max. ang.)         AngularGrid ... 3 (Lebedev-194)
Angular grid pruning method      GridPruning ... 4 (adaptive)
Weight generation scheme         WeightScheme... Becke
Basis function cutoff            BFCut       ... 1.0000e-11
Integration weight cutoff        WCut        ... 1.0000e-14
Angular grids for H and He will be reduced by one unit
Partially contracted basis set               ... on
Rotationally invariant grid construction     ... off

Total number of grid points                  ...   101425
Total number of batches                      ...     1603
Average number of points per batch           ...       63
Average number of grid points per atom       ...     2898
UseSFitting                                  ... on

Time for X-Grid setup             =    1.731 sec


--------------------
CPCM SOLVATION MODEL
--------------------
CPCM parameters:
  Epsilon                                         ...      47.2000
  Refrac                                          ...       1.4790
  Rsolv                                           ...       1.3000
  Surface type                                    ... GAUSSIAN VDW
  Epsilon function type                           ...         CPCM
Radii:
 Radius for C  used is    3.8550 Bohr (=   2.0400 Ang.)
 Radius for O  used is    3.4469 Bohr (=   1.8240 Ang.)
 Radius for H  used is    2.4944 Bohr (=   1.3200 Ang.)
 Radius for N  used is    3.5149 Bohr (=   1.8600 Ang.)
Calculating surface                               ...        done! (  0.0s)
GEPOL surface points                              ...         1871
GEPOL Volume                                      ...    2167.6386
GEPOL Surface-area                                ...    1129.0861
Calculating surface distance matrix               ...        done! (  0.1s)
Performing Cholesky decomposition & store         ...        done! (  0.5s)
Overall time for CPCM initialization              ...                 0.6s
--------------
SCF ITERATIONS
--------------
ITER       Energy         Delta-E        Max-DP      RMS-DP      [F,P]     Damp
               ***  Starting incremental Fock matrix formation  ***
  0   -972.0990360068   0.000000000000 0.22915509  0.00085524  0.2705025 0.7000
  1   -972.3096256545  -0.210589647625 0.19661855  0.00075815  0.1078290 0.7000
                               ***Turning on DIIS***
  2   -972.3927951252  -0.083169470787 0.29831704  0.00147515  0.0318561 0.0000
  3   -972.5299343219  -0.137139196639 0.11557187  0.00044668  0.0523677 0.0000
  4   -972.5557499470  -0.025815625079 0.01586347  0.00015653  0.0172380 0.0000
  5   -972.5574806460  -0.001730699068 0.01336228  0.00006680  0.0063284 0.0000
                      *** Initiating the SOSCF procedure ***
                           *** Shutting down DIIS ***
                      *** Re-Reading the Fockian *** 
                      *** Removing any level shift *** 
ITER      Energy       Delta-E        Grad      Rot      Max-DP    RMS-DP
  6   -972.55762712  -0.0001464789  0.000393  0.000393  0.001555  0.000020
               *** Restarting incremental Fock matrix formation ***
  7   -972.55761856   0.0000085664  0.000342  0.001890  0.001583  0.000018
  8   -972.55761691   0.0000016474  0.000536  0.000885  0.003140  0.000011
  9   -972.55762208  -0.0000051671  0.000053  0.000146  0.000941  0.000004
 10   -972.55762196   0.0000001182  0.000047  0.000075  0.000709  0.000002
 11   -972.55762225  -0.0000002898  0.000006  0.000019  0.000098  0.000001
 12   -972.55762226  -0.0000000099  0.000005  0.000012  0.000122  0.000001
                  ***Gradient check signals convergence***
              ***Rediagonalizing the Fockian in SOSCF/NRSCF***

               *****************************************************
               *                     SUCCESS                       *
               *           SCF CONVERGED AFTER  13 CYCLES          *
               *****************************************************

Old exchange energy                            =    -31.424749541 Eh
New exchange energy                            =    -31.424734719 Eh
Exchange energy change after final integration =      0.000014821 Eh
Total energy after final integration           =   -972.557607424 Eh
Final COS-X integration done in                =     9.124 sec

----------------
TOTAL SCF ENERGY
----------------

Total Energy       :         -972.55760742 Eh          -26464.63793 eV

Components:
Nuclear Repulsion  :         1627.10188262 Eh           44275.69316 eV
Electronic Energy  :        -2599.65949004 Eh          -70740.33109 eV
One Electron Energy:        -4559.40321930 Eh         -124067.66908 eV
Two Electron Energy:         1959.74372926 Eh           53327.33798 eV
Max COSX asymmetry :            0.00000199 Eh               0.00005 eV
CPCM Dielectric    :           -0.02905348 Eh              -0.79059 eV

Virial components:
Potential Energy   :        -1940.90623511 Eh          -52814.74371 eV
Kinetic Energy     :          968.34862768 Eh           26350.10577 eV
Virial Ratio       :            2.00434655


DFT components:
N(Alpha)           :       73.000138637947 electrons
N(Beta)            :       73.000138637947 electrons
N(Total)           :      146.000277275894 electrons
E(X)               :      -94.133828002669 Eh       
E(C)               :       -4.933533918962 Eh       
E(XC)              :      -99.067361921631 Eh       
DFET-embed. en.    :        0.000000000000 Eh       
CPCM Solvation Model Properties:
Surface-charge          :           -0.02787132
Charge-correction       :           -0.00016901 Eh              -0.00460 eV
Free-energy (cav+disp)  :  This term is not implemented in the current solvation scheme

---------------
SCF CONVERGENCE
---------------

  Last Energy change         ...    1.4579e-08  Tolerance :   1.0000e-08
  Last MAX-Density change    ...    1.6653e-15  Tolerance :   1.0000e-07
  Last RMS-Density change    ...    1.3069e-17  Tolerance :   5.0000e-09
  Last Orbital Gradient      ...    1.6493e-06  Tolerance :   1.0000e-05
  Last Orbital Rotation      ...    4.9713e-06  Tolerance :   1.0000e-05

             **** THE GBW FILE WAS UPDATED (4_CHCH2_free/4_CHCH2_free.gbw) ****
             **** DENSITY 4_CHCH2_free/4_CHCH2_free.scfp WAS UPDATED ****
             **** ENERGY FILE WAS UPDATED (4_CHCH2_free/4_CHCH2_free.en.tmp) ****
             **** THE GBW FILE WAS UPDATED (4_CHCH2_free/4_CHCH2_free.gbw) ****
             **** DENSITY 4_CHCH2_free/4_CHCH2_free.scfp WAS UPDATED ****
----------------
ORBITAL ENERGIES
----------------

  NO   OCC          E(Eh)            E(eV) 
   0   2.0000     -19.285684      -524.7901 
   1   2.0000     -19.270075      -524.3654 
   2   2.0000     -19.247340      -523.7468 
   3   2.0000     -19.223389      -523.0950 
   4   2.0000     -19.211629      -522.7750 
   5   2.0000     -14.587987      -396.9593 
   6   2.0000     -10.364871      -282.0425 
   7   2.0000     -10.313961      -280.6572 
   8   2.0000     -10.293109      -280.0897 
   9   2.0000     -10.287741      -279.9437 
  10   2.0000     -10.273413      -279.5538 
  11   2.0000     -10.270040      -279.4620 
  12   2.0000     -10.267409      -279.3904 
  13   2.0000     -10.246441      -278.8198 
  14   2.0000     -10.242814      -278.7211 
  15   2.0000     -10.232219      -278.4328 
  16   2.0000     -10.231952      -278.4256 
  17   2.0000     -10.230832      -278.3951 
  18   2.0000     -10.227197      -278.2962 
  19   2.0000     -10.222792      -278.1763 
  20   2.0000      -1.235931       -33.6314 
  21   2.0000      -1.160401       -31.5761 
  22   2.0000      -1.110179       -30.2095 
  23   2.0000      -1.103246       -30.0209 
  24   2.0000      -1.067061       -29.0362 
  25   2.0000      -0.926231       -25.2040 
  26   2.0000      -0.891870       -24.2690 
  27   2.0000      -0.844503       -22.9801 
  28   2.0000      -0.808579       -22.0026 
  29   2.0000      -0.794048       -21.6071 
  30   2.0000      -0.780303       -21.2331 
  31   2.0000      -0.754437       -20.5293 
  32   2.0000      -0.722751       -19.6671 
  33   2.0000      -0.703991       -19.1566 
  34   2.0000      -0.660970       -17.9859 
  35   2.0000      -0.632166       -17.2021 
  36   2.0000      -0.619733       -16.8638 
  37   2.0000      -0.612563       -16.6687 
  38   2.0000      -0.581282       -15.8175 
  39   2.0000      -0.578221       -15.7342 
  40   2.0000      -0.556768       -15.1504 
  41   2.0000      -0.547373       -14.8948 
  42   2.0000      -0.538460       -14.6522 
  43   2.0000      -0.520990       -14.1769 
  44   2.0000      -0.517685       -14.0869 
  45   2.0000      -0.512612       -13.9489 
  46   2.0000      -0.505512       -13.7557 
  47   2.0000      -0.493019       -13.4157 
  48   2.0000      -0.488678       -13.2976 
  49   2.0000      -0.477150       -12.9839 
  50   2.0000      -0.461083       -12.5467 
  51   2.0000      -0.455607       -12.3977 
  52   2.0000      -0.447361       -12.1733 
  53   2.0000      -0.445165       -12.1136 
  54   2.0000      -0.438448       -11.9308 
  55   2.0000      -0.431175       -11.7329 
  56   2.0000      -0.421351       -11.4656 
  57   2.0000      -0.408769       -11.1232 
  58   2.0000      -0.391770       -10.6606 
  59   2.0000      -0.386466       -10.5163 
  60   2.0000      -0.385993       -10.5034 
  61   2.0000      -0.379584       -10.3290 
  62   2.0000      -0.369179       -10.0459 
  63   2.0000      -0.354328        -9.6418 
  64   2.0000      -0.345684        -9.4065 
  65   2.0000      -0.343841        -9.3564 
  66   2.0000      -0.336474        -9.1559 
  67   2.0000      -0.333159        -9.0657 
  68   2.0000      -0.320862        -8.7311 
  69   2.0000      -0.309736        -8.4283 
  70   2.0000      -0.272029        -7.4023 
  71   2.0000      -0.242570        -6.6007 
  72   2.0000      -0.238131        -6.4799 
  73   0.0000      -0.057155        -1.5553 
  74   0.0000      -0.020758        -0.5649 
  75   0.0000      -0.003962        -0.1078 
  76   0.0000       0.002835         0.0771 
  77   0.0000       0.043299         1.1782 
  78   0.0000       0.049429         1.3450 
  79   0.0000       0.060516         1.6467 
  80   0.0000       0.065093         1.7713 
  81   0.0000       0.074197         2.0190 
  82   0.0000       0.081194         2.2094 
  83   0.0000       0.083067         2.2604 
  84   0.0000       0.085895         2.3373 
  85   0.0000       0.092356         2.5131 
  86   0.0000       0.096156         2.6165 
  87   0.0000       0.102508         2.7894 
  88   0.0000       0.117762         3.2045 
  89   0.0000       0.118584         3.2268 
  90   0.0000       0.129617         3.5270 
  91   0.0000       0.133630         3.6363 
  92   0.0000       0.137697         3.7469 
  93   0.0000       0.143158         3.8955 
  94   0.0000       0.146230         3.9791 
  95   0.0000       0.148532         4.0418 
  96   0.0000       0.154859         4.2139 
  97   0.0000       0.157775         4.2933 
  98   0.0000       0.163371         4.4456 
  99   0.0000       0.168906         4.5962 
 100   0.0000       0.182658         4.9704 
 101   0.0000       0.194557         5.2942 
 102   0.0000       0.195702         5.3253 
 103   0.0000       0.204193         5.5564 
 104   0.0000       0.210687         5.7331 
 105   0.0000       0.215050         5.8518 
 106   0.0000       0.221044         6.0149 
 107   0.0000       0.222626         6.0580 
 108   0.0000       0.226312         6.1583 
 109   0.0000       0.227514         6.1910 
 110   0.0000       0.231400         6.2967 
 111   0.0000       0.240984         6.5575 
 112   0.0000       0.247375         6.7314 
 113   0.0000       0.251316         6.8386 
 114   0.0000       0.253851         6.9076 
 115   0.0000       0.257995         7.0204 
 116   0.0000       0.269671         7.3381 
 117   0.0000       0.271824         7.3967 
 118   0.0000       0.286466         7.7951 
 119   0.0000       0.290653         7.9091 
 120   0.0000       0.295590         8.0434 
 121   0.0000       0.300507         8.1772 
 122   0.0000       0.302588         8.2338 
 123   0.0000       0.308488         8.3944 
 124   0.0000       0.313220         8.5231 
 125   0.0000       0.323843         8.8122 
 126   0.0000       0.331267         9.0142 
 127   0.0000       0.333142         9.0653 
 128   0.0000       0.334204         9.0942 
 129   0.0000       0.339720         9.2443 
 130   0.0000       0.347998         9.4695 
 131   0.0000       0.352593         9.5945 
 132   0.0000       0.356417         9.6986 
 133   0.0000       0.363030         9.8785 
 134   0.0000       0.367960        10.0127 
 135   0.0000       0.372892        10.1469 
 136   0.0000       0.377508        10.2725 
 137   0.0000       0.381837        10.3903 
 138   0.0000       0.385661        10.4944 
 139   0.0000       0.392479        10.6799 
 140   0.0000       0.398653        10.8479 
 141   0.0000       0.401399        10.9226 
 142   0.0000       0.406965        11.0741 
 143   0.0000       0.408108        11.1052 
 144   0.0000       0.414391        11.2761 
 145   0.0000       0.419640        11.4190 
 146   0.0000       0.423711        11.5298 
 147   0.0000       0.428850        11.6696 
 148   0.0000       0.439106        11.9487 
 149   0.0000       0.440250        11.9798 
 150   0.0000       0.446808        12.1583 
 151   0.0000       0.452204        12.3051 
 152   0.0000       0.453854        12.3500 
 153   0.0000       0.459283        12.4977 
 154   0.0000       0.465145        12.6572 
 155   0.0000       0.470608        12.8059 
 156   0.0000       0.471363        12.8265 
 157   0.0000       0.477535        12.9944 
 158   0.0000       0.478031        13.0079 
 159   0.0000       0.479743        13.0545 
 160   0.0000       0.486965        13.2510 
 161   0.0000       0.493784        13.4365 
 162   0.0000       0.499321        13.5872 
 163   0.0000       0.500642        13.6232 
 164   0.0000       0.505329        13.7507 
 165   0.0000       0.515586        14.0298 
 166   0.0000       0.518537        14.1101 
 167   0.0000       0.525751        14.3064 
 168   0.0000       0.530854        14.4453 
 169   0.0000       0.536818        14.6076 
 170   0.0000       0.538581        14.6555 
 171   0.0000       0.550067        14.9681 
 172   0.0000       0.555896        15.1267 
 173   0.0000       0.565664        15.3925 
 174   0.0000       0.578655        15.7460 
 175   0.0000       0.582682        15.8556 
 176   0.0000       0.590428        16.0664 
 177   0.0000       0.590899        16.0792 
 178   0.0000       0.594258        16.1706 
 179   0.0000       0.604367        16.4457 
 180   0.0000       0.617042        16.7906 
 181   0.0000       0.625398        17.0179 
 182   0.0000       0.628092        17.0912 
 183   0.0000       0.640418        17.4266 
 184   0.0000       0.647919        17.6308 
 185   0.0000       0.657850        17.9010 
 186   0.0000       0.659771        17.9533 
 187   0.0000       0.661146        17.9907 
 188   0.0000       0.666030        18.1236 
 189   0.0000       0.673508        18.3271 
 190   0.0000       0.683522        18.5996 
 191   0.0000       0.697551        18.9813 
 192   0.0000       0.705290        19.1919 
 193   0.0000       0.714965        19.4552 
 194   0.0000       0.719389        19.5756 
 195   0.0000       0.721337        19.6286 
 196   0.0000       0.730616        19.8811 
 197   0.0000       0.739515        20.1232 
 198   0.0000       0.749784        20.4027 
 199   0.0000       0.750721        20.4282 
 200   0.0000       0.762917        20.7600 
 201   0.0000       0.770639        20.9701 
 202   0.0000       0.775872        21.1126 
 203   0.0000       0.783578        21.3223 
 204   0.0000       0.789757        21.4904 
 205   0.0000       0.793850        21.6018 
 206   0.0000       0.799426        21.7535 
 207   0.0000       0.813822        22.1452 
 208   0.0000       0.826803        22.4985 
 209   0.0000       0.831394        22.6234 
 210   0.0000       0.839425        22.8419 
 211   0.0000       0.845630        23.0108 
 212   0.0000       0.862656        23.4741 
 213   0.0000       0.863685        23.5021 
 214   0.0000       0.869742        23.6669 
 215   0.0000       0.878736        23.9116 
 216   0.0000       0.896752        24.4019 
 217   0.0000       0.898616        24.4526 
 218   0.0000       0.900695        24.5092 
 219   0.0000       0.907142        24.6846 
 220   0.0000       0.912237        24.8232 
 221   0.0000       0.915084        24.9007 
 222   0.0000       0.934727        25.4352 
 223   0.0000       0.945059        25.7164 
 224   0.0000       0.954062        25.9614 
 225   0.0000       0.965522        26.2732 
 226   0.0000       0.970885        26.4191 
 227   0.0000       0.973932        26.5020 
 228   0.0000       0.984186        26.7811 
 229   0.0000       0.993582        27.0367 
 230   0.0000       1.000567        27.2268 
 231   0.0000       1.008487        27.4423 
 232   0.0000       1.015423        27.6311 
 233   0.0000       1.032110        28.0851 
 234   0.0000       1.036711        28.2103 
 235   0.0000       1.043816        28.4037 
 236   0.0000       1.064423        28.9644 
 237   0.0000       1.068336        29.0709 
 238   0.0000       1.073036        29.1988 
 239   0.0000       1.081066        29.4173 
 240   0.0000       1.086618        29.5684 
 241   0.0000       1.094499        29.7828 
 242   0.0000       1.101412        29.9709 
 243   0.0000       1.109058        30.1790 
 244   0.0000       1.129132        30.7252 
 245   0.0000       1.134522        30.8719 
 246   0.0000       1.150715        31.3126 
 247   0.0000       1.153886        31.3988 
 248   0.0000       1.174280        31.9538 
 249   0.0000       1.180393        32.1201 
 250   0.0000       1.187704        32.3191 
 251   0.0000       1.196690        32.5636 
 252   0.0000       1.209481        32.9116 
 253   0.0000       1.218240        33.1500 
 254   0.0000       1.226942        33.3868 
 255   0.0000       1.236756        33.6538 
 256   0.0000       1.239581        33.7307 
 257   0.0000       1.253649        34.1135 
 258   0.0000       1.259893        34.2834 
 259   0.0000       1.266556        34.4647 
 260   0.0000       1.283824        34.9346 
 261   0.0000       1.290670        35.1209 
 262   0.0000       1.309546        35.6346 
 263   0.0000       1.322152        35.9776 
 264   0.0000       1.335189        36.3323 
 265   0.0000       1.347623        36.6707 
 266   0.0000       1.351524        36.7768 
 267   0.0000       1.371137        37.3105 
 268   0.0000       1.380802        37.5735 
 269   0.0000       1.382064        37.6079 
 270   0.0000       1.396437        37.9990 
 271   0.0000       1.404788        38.2262 
 272   0.0000       1.412297        38.4306 
 273   0.0000       1.443657        39.2839 
 274   0.0000       1.448929        39.4274 
 275   0.0000       1.451062        39.4854 
 276   0.0000       1.456114        39.6229 
 277   0.0000       1.465327        39.8736 
 278   0.0000       1.476545        40.1788 
 279   0.0000       1.481046        40.3013 
 280   0.0000       1.486063        40.4378 
 281   0.0000       1.492111        40.6024 
 282   0.0000       1.495777        40.7022 
 283   0.0000       1.503814        40.9209 
 284   0.0000       1.513950        41.1967 
 285   0.0000       1.518138        41.3106 
 286   0.0000       1.521006        41.3887 
 287   0.0000       1.529353        41.6158 
 288   0.0000       1.532130        41.6914 
 289   0.0000       1.538016        41.8515 
 290   0.0000       1.548606        42.1397 
 291   0.0000       1.550647        42.1953 
 292   0.0000       1.559618        42.4394 
 293   0.0000       1.571862        42.7725 
 294   0.0000       1.578011        42.9399 
 295   0.0000       1.588201        43.2172 
 296   0.0000       1.597934        43.4820 
 297   0.0000       1.602055        43.5941 
 298   0.0000       1.610414        43.8216 
 299   0.0000       1.612880        43.8887 
 300   0.0000       1.619940        44.0808 
 301   0.0000       1.634242        44.4700 
 302   0.0000       1.638418        44.5836 
 303   0.0000       1.646611        44.8066 
 304   0.0000       1.658683        45.1351 
 305   0.0000       1.666406        45.3452 
 306   0.0000       1.672262        45.5046 
 307   0.0000       1.691103        46.0172 
 308   0.0000       1.699956        46.2582 
 309   0.0000       1.708018        46.4775 
 310   0.0000       1.714547        46.6552 
 311   0.0000       1.726104        46.9697 
 312   0.0000       1.729857        47.0718 
 313   0.0000       1.734583        47.2004 
 314   0.0000       1.738866        47.3170 
 315   0.0000       1.760344        47.9014 
 316   0.0000       1.767013        48.0829 
 317   0.0000       1.769534        48.1515 
 318   0.0000       1.775698        48.3192 
 319   0.0000       1.791394        48.7463 
 320   0.0000       1.801674        49.0260 
 321   0.0000       1.822186        49.5842 
 322   0.0000       1.837906        50.0120 
 323   0.0000       1.847930        50.2847 
 324   0.0000       1.854226        50.4561 
 325   0.0000       1.862979        50.6942 
 326   0.0000       1.877059        51.0774 
 327   0.0000       1.878622        51.1199 
 328   0.0000       1.884997        51.2934 
 329   0.0000       1.893561        51.5264 
 330   0.0000       1.900522        51.7158 
 331   0.0000       1.912039        52.0292 
 332   0.0000       1.927916        52.4613 
 333   0.0000       1.938493        52.7491 
 334   0.0000       1.941490        52.8306 
 335   0.0000       1.961799        53.3833 
 336   0.0000       1.975255        53.7494 
 337   0.0000       1.983916        53.9851 
 338   0.0000       1.989251        54.1303 
 339   0.0000       2.001257        54.4570 
 340   0.0000       2.009816        54.6899 
 341   0.0000       2.014123        54.8071 
 342   0.0000       2.023268        55.0559 
 343   0.0000       2.034460        55.3605 
 344   0.0000       2.043656        55.6107 
 345   0.0000       2.060675        56.0738 
 346   0.0000       2.064708        56.1836 
 347   0.0000       2.076476        56.5038 
 348   0.0000       2.078061        56.5469 
 349   0.0000       2.088063        56.8191 
 350   0.0000       2.109240        57.3953 
 351   0.0000       2.119617        57.6777 
 352   0.0000       2.121733        57.7353 
 353   0.0000       2.127580        57.8944 
 354   0.0000       2.135408        58.1074 
 355   0.0000       2.145073        58.3704 
 356   0.0000       2.148828        58.4726 
 357   0.0000       2.164672        58.9037 
 358   0.0000       2.177369        59.2492 
 359   0.0000       2.180054        59.3223 
 360   0.0000       2.194873        59.7255 
 361   0.0000       2.206254        60.0352 
 362   0.0000       2.217025        60.3283 
 363   0.0000       2.234545        60.8051 
 364   0.0000       2.237524        60.8861 
 365   0.0000       2.248321        61.1799 
 366   0.0000       2.256111        61.3919 
 367   0.0000       2.264830        61.6292 
 368   0.0000       2.275843        61.9288 
 369   0.0000       2.283349        62.1331 
 370   0.0000       2.289163        62.2913 
 371   0.0000       2.290355        62.3237 
 372   0.0000       2.299365        62.5689 
 373   0.0000       2.314472        62.9800 
 374   0.0000       2.327451        63.3332 
 375   0.0000       2.332381        63.4673 
 376   0.0000       2.353748        64.0487 
 377   0.0000       2.364068        64.3296 
 378   0.0000       2.372902        64.5699 
 379   0.0000       2.386648        64.9440 
 380   0.0000       2.400476        65.3203 
 381   0.0000       2.402340        65.3710 
 382   0.0000       2.414726        65.7080 
 383   0.0000       2.420548        65.8665 
 384   0.0000       2.433599        66.2216 
 385   0.0000       2.438211        66.3471 
 386   0.0000       2.451857        66.7184 
 387   0.0000       2.457458        66.8708 
 388   0.0000       2.471292        67.2473 
 389   0.0000       2.483946        67.5916 
 390   0.0000       2.502452        68.0952 
 391   0.0000       2.506726        68.2115 
 392   0.0000       2.517857        68.5144 
 393   0.0000       2.528210        68.7961 
 394   0.0000       2.539108        69.0926 
 395   0.0000       2.545771        69.2740 
 396   0.0000       2.556429        69.5640 
 397   0.0000       2.557811        69.6016 
 398   0.0000       2.572851        70.0108 
 399   0.0000       2.581012        70.2329 
 400   0.0000       2.591005        70.5048 
 401   0.0000       2.597741        70.6881 
 402   0.0000       2.605017        70.8861 
 403   0.0000       2.613080        71.1055 
 404   0.0000       2.624888        71.4268 
 405   0.0000       2.639444        71.8229 
 406   0.0000       2.646623        72.0183 
 407   0.0000       2.650277        72.1177 
 408   0.0000       2.658650        72.3455 
 409   0.0000       2.662224        72.4428 
 410   0.0000       2.676131        72.8212 
 411   0.0000       2.688864        73.1677 
 412   0.0000       2.690007        73.1988 
 413   0.0000       2.703530        73.5668 
 414   0.0000       2.704850        73.6027 
 415   0.0000       2.712973        73.8237 
 416   0.0000       2.718993        73.9876 
 417   0.0000       2.734060        74.3976 
 418   0.0000       2.740327        74.5681 
 419   0.0000       2.750279        74.8389 
 420   0.0000       2.764100        75.2150 
 421   0.0000       2.772520        75.4441 
 422   0.0000       2.774821        75.5067 
 423   0.0000       2.780893        75.6719 
 424   0.0000       2.801853        76.2423 
 425   0.0000       2.814289        76.5807 
 426   0.0000       2.821629        76.7804 
 427   0.0000       2.829343        76.9903 
 428   0.0000       2.835867        77.1679 
 429   0.0000       2.847095        77.4734 
 430   0.0000       2.855014        77.6889 
 431   0.0000       2.856326        77.7246 
 432   0.0000       2.864659        77.9513 
 433   0.0000       2.870850        78.1198 
 434   0.0000       2.876935        78.2854 
 435   0.0000       2.884510        78.4915 
 436   0.0000       2.888699        78.6055 
 437   0.0000       2.904175        79.0266 
 438   0.0000       2.906810        79.0983 
 439   0.0000       2.909163        79.1624 
 440   0.0000       2.919671        79.4483 
 441   0.0000       2.925509        79.6071 
 442   0.0000       2.953398        80.3661 
 443   0.0000       2.967411        80.7474 
 444   0.0000       2.973580        80.9152 
 445   0.0000       2.997676        81.5709 
 446   0.0000       3.003880        81.7397 
 447   0.0000       3.009062        81.8807 
 448   0.0000       3.012245        81.9673 
 449   0.0000       3.024696        82.3062 
 450   0.0000       3.036298        82.6219 
 451   0.0000       3.043151        82.8083 
 452   0.0000       3.051913        83.0468 
 453   0.0000       3.055804        83.1527 
 454   0.0000       3.065855        83.4262 
 455   0.0000       3.073155        83.6248 
 456   0.0000       3.081329        83.8472 
[...]
     68       0.626392  -0.074143  -0.000472
     69       0.333652  -0.217470  -0.000245
     70       0.153041  -0.102535  -0.000108
     71       0.022220  -0.017879  -0.000018
     72      -0.144459  -0.699502  -0.000488
     73       0.045249   0.227573   0.000150
     74       0.125256   0.616636   0.000401
     75      -0.004349  -0.011861   0.000028
     76      -0.005924  -0.014732   0.000049
     77      -0.005042  -0.011962   0.000051
     78      -0.001083  -0.004216  -0.000032
     79      -0.004260  -0.015241  -0.000045
     80       0.002496   0.008331   0.000034
     81      -0.003877  -0.013590  -0.000063
     82       0.002146   0.006707   0.000024
     83      -0.002771  -0.009753  -0.000031
     84       0.000002   0.000003   0.000044
     85      -0.000020   0.000006  -0.000031
     86       0.000014  -0.000009  -0.000033
     87      -0.000046   0.000028   0.000026
     88      -0.000069   0.000040   0.000040
     89       0.000036  -0.000017  -0.000023
     90       0.000056  -0.000033  -0.009108
     91      -0.000024   0.000022   0.004668
     92      -0.000008   0.000011   0.007286
     93      -0.000518   0.000380   0.096145
     94       0.000302  -0.000237  -0.051708
     95       0.000353  -0.000269  -0.074271
     96      -0.000031   0.000056  -0.066448
     97       0.000051  -0.000063   0.072644
     98      -0.000026  -0.000001   0.007749
     99       0.000066  -0.000381   0.449363
    100      -0.000031   0.000208  -0.226683
    101       0.000013   0.000253  -0.359359
    102       0.000240  -0.000264   0.352237
    103      -0.000458   0.000498  -0.635404
    104       0.000171  -0.000193   0.249714


-----------
IR SPECTRUM
-----------

 Mode   freq       eps      Int      T**2         TX        TY        TZ
       cm**-1   L/(mol*cm) km/mol    a.u.
----------------------------------------------------------------------------
  6:     17.75   0.000112    0.57  0.001978  ( 0.041778 -0.000088  0.015250)
  7:     32.27   0.000510    2.58  0.004927  ( 0.041934 -0.015487  0.054120)
  8:     53.57   0.000268    1.35  0.001560  ( 0.018216  0.032670 -0.012666)
  9:     62.16   0.000252    1.27  0.001263  ( 0.020418  0.028570 -0.005505)
 10:     73.70   0.000050    0.25  0.000212  (-0.007094 -0.002188  0.012515)
 11:     96.47   0.000363    1.84  0.001176  (-0.000496 -0.034194  0.002492)
 12:     99.98   0.001172    5.92  0.003657  (-0.027845  0.030071 -0.044463)
 13:    129.09   0.000036    0.18  0.000087  ( 0.003143 -0.007695  0.004279)
 14:    145.20   0.000194    0.98  0.000418  (-0.013565 -0.007919 -0.013087)
 15:    148.00   0.000162    0.82  0.000342  (-0.009480  0.006474 -0.014486)
 16:    162.06   0.000396    2.00  0.000762  (-0.019048 -0.008961 -0.017850)
 17:    180.43   0.000701    3.54  0.001212  (-0.009636  0.028467 -0.017584)
 18:    200.75   0.000052    0.26  0.000080  (-0.003684 -0.007702 -0.002692)
 19:    233.76   0.001232    6.23  0.001645  (-0.015306  0.037406 -0.003436)
 20:    248.82   0.002176   11.00  0.002729  ( 0.007264  0.015517 -0.049351)
 21:    259.62   0.002475   12.51  0.002975  (-0.019224  0.046590 -0.020849)
 22:    300.92   0.000542    2.74  0.000562  ( 0.013037  0.004357  0.019305)
 23:    313.79   0.002112   10.67  0.002101  ( 0.023124 -0.039297  0.004665)
 24:    346.82   0.003571   18.05  0.003213  ( 0.014898 -0.038655 -0.038695)
 25:    362.43   0.000365    1.84  0.000314  ( 0.007631 -0.015974 -0.000735)
 26:    391.58   0.000757    3.82  0.000603  (-0.005262 -0.019460 -0.014026)
 27:    410.26   0.000348    1.76  0.000265  (-0.014072  0.001646 -0.008015)
 28:    479.80   0.001864    9.42  0.001213  ( 0.001746 -0.026974  0.021952)
 29:    498.29   0.002055   10.38  0.001287  (-0.032970  0.003346 -0.013729)
 30:    561.12   0.000890    4.50  0.000495  ( 0.016120 -0.013714  0.006873)
 31:    574.95   0.003724   18.82  0.002021  ( 0.037236  0.000122  0.025194)
 32:    588.39   0.001879    9.50  0.000997  (-0.006293  0.030424 -0.005605)
 33:    604.37   0.002605   13.16  0.001345  ( 0.028036 -0.020039 -0.012547)
 34:    628.87   0.003946   19.94  0.001958  (-0.016347  0.040907 -0.004192)
 35:    633.16   0.004856   24.54  0.002393  (-0.020062 -0.042036 -0.014959)
 36:    719.15   0.001580    7.99  0.000686  ( 0.013399  0.017716  0.013871)
 37:    727.34   0.001726    8.72  0.000740  (-0.018466 -0.015933  0.012062)
 38:    734.12   0.002314   11.70  0.000984  (-0.029596  0.008687 -0.005695)
 39:    768.04   0.014847   75.03  0.006032  ( 0.039998 -0.040215  0.053059)
 40:    772.17   0.017276   87.30  0.006982  ( 0.000271  0.070976 -0.044092)
 41:    784.60   0.002376   12.01  0.000945  (-0.000834  0.015298 -0.026650)
 42:    816.07   0.006973   35.24  0.002667  ( 0.015756  0.043937  0.022087)
 43:    857.03   0.006727   34.00  0.002450  (-0.009428 -0.044091  0.020412)
 44:    875.34   0.000993    5.02  0.000354  (-0.001671  0.015471 -0.010581)
 45:    900.15   0.003249   16.42  0.001126  ( 0.022673  0.012939 -0.021089)
 46:    927.51   0.058759  296.94  0.019770  ( 0.075402 -0.117981 -0.012837)
 47:    952.57   0.016415   82.96  0.005378  ( 0.046140  0.043833  0.036435)
 48:    957.56   0.002674   13.51  0.000872  (-0.026661  0.011892 -0.004395)
 49:    968.74   0.001445    7.30  0.000465  (-0.019220 -0.005969  0.007769)
 50:    991.92   0.000071    0.36  0.000022  ( 0.000159 -0.004656 -0.000879)
 51:   1003.46   0.003493   17.65  0.001086  (-0.009325 -0.031603  0.000706)
 52:   1022.72   0.005602   28.31  0.001709  (-0.027583 -0.025332 -0.017516)
 53:   1025.97   0.001477    7.47  0.000449  (-0.016901 -0.006304 -0.011137)
 54:   1054.73   0.002797   14.14  0.000828  (-0.010194 -0.024102 -0.011949)
 55:   1071.65   0.012253   61.92  0.003568  (-0.046072  0.010894  0.036424)
 56:   1083.90   0.008166   41.27  0.002351  (-0.000199  0.029221  0.038694)
 57:   1104.05   0.018786   94.94  0.005310  ( 0.014582 -0.036385 -0.061428)
 58:   1137.36   0.010737   54.26  0.002946  (-0.024058  0.019012  0.044786)
 59:   1171.22   0.000249    1.26  0.000066  ( 0.000864 -0.007753  0.002316)
 60:   1171.66   0.000176    0.89  0.000047  (-0.000068 -0.002036  0.006542)
 61:   1175.23   0.001755    8.87  0.000466  (-0.015830  0.004389  0.014003)
 62:   1194.95   0.001072    5.42  0.000280  ( 0.003319  0.015312 -0.005879)
 63:   1205.52   0.004924   24.88  0.001275  ( 0.004760 -0.026541 -0.023399)
 64:   1212.87   0.002440   12.33  0.000628  (-0.014135  0.017378  0.011223)
 65:   1236.90   0.034921  176.47  0.008810  ( 0.036576 -0.063033 -0.059155)
 66:   1243.18   0.008686   43.90  0.002180  (-0.009017  0.000854  0.045809)
 67:   1276.96   0.061801  312.32  0.015103  ( 0.007917 -0.101043 -0.069503)
 68:   1288.59   0.030498  154.12  0.007386  (-0.056435 -0.001377  0.064799)
 69:   1296.39   0.054514  275.49  0.013122  ( 0.021882 -0.071829 -0.086512)
 70:   1308.85   0.013753   69.50  0.003279  (-0.025275 -0.034717 -0.037881)
 71:   1325.89   0.016169   81.71  0.003806  (-0.016870  0.032831  0.049428)
 72:   1355.43   0.015139   76.51  0.003486  ( 0.036069  0.009403 -0.045785)
 73:   1373.62   0.004141   20.93  0.000941  (-0.016991 -0.023758 -0.009359)
 74:   1396.10   0.032070  162.07  0.007168  (-0.025510  0.046217  0.066194)
 75:   1414.38   0.001507    7.62  0.000332  ( 0.003527 -0.003531  0.017537)
 76:   1465.75   0.003347   16.92  0.000713  ( 0.012589  0.019490  0.013203)
 77:   1466.05   0.004341   21.94  0.000924  (-0.000224  0.027710 -0.012496)
 78:   1469.69   0.011132   56.26  0.002364  ( 0.003935  0.034094  0.034435)
 79:   1472.59   0.002832   14.31  0.000600  ( 0.022965 -0.004685 -0.007133)
 80:   1473.63   0.002909   14.70  0.000616  (-0.008833  0.016608 -0.016191)
 81:   1477.47   0.011309   57.15  0.002389  (-0.026863 -0.005260  0.040490)
 82:   1483.69   0.005343   27.00  0.001124  ( 0.008713  0.025264  0.020240)
 83:   1498.98   0.014712   74.35  0.003063  (-0.007247  0.031039  0.045242)
 84:   1536.72   0.039266  198.44  0.007974  (-0.005181 -0.056520 -0.068939)
 85:   1649.48   0.012514   63.24  0.002367  ( 0.028445 -0.007435 -0.038769)
 86:   1663.64   0.018588   93.94  0.003487  ( 0.001882  0.031668  0.049803)
 87:   1683.36   0.002267   11.46  0.000420  ( 0.004555 -0.013102  0.015093)
 88:   1701.79   0.233170  1178.35  0.042757  ( 0.101358  0.056374 -0.171189)
 89:   1805.63   0.102311  517.04  0.017682  ( 0.123636  0.005019 -0.048694)
 90:   3037.58   0.012123   61.27  0.001245  ( 0.022543 -0.010798 -0.024914)
 91:   3074.81   0.005242   26.49  0.000532  ( 0.008528  0.016517  0.013657)
 92:   3109.11   0.007266   36.72  0.000729  (-0.007964  0.019802 -0.016547)
 93:   3109.44   0.000424    2.14  0.000043  (-0.006491 -0.000518 -0.000427)
 94:   3144.49   0.000425    2.15  0.000042  (-0.003161  0.004258  0.003753)
 95:   3160.21   0.003311   16.73  0.000327  ( 0.003263 -0.013337  0.011767)
 96:   3164.53   0.000177    0.89  0.000017  (-0.002897  0.001485  0.002612)
 97:   3165.77   0.003806   19.23  0.000375  ( 0.009087  0.013077  0.011028)
 98:   3188.35   0.000376    1.90  0.000037  (-0.004736  0.001092  0.003628)
 99:   3193.27   0.001840    9.30  0.000180  ( 0.010550 -0.004192 -0.007138)
100:   3194.44   0.000500    2.53  0.000049  (-0.000668  0.004481 -0.005323)
101:   3196.79   0.001577    7.97  0.000154  (-0.011845 -0.002787  0.002429)
102:   3214.97   0.002875   14.53  0.000279  (-0.005887 -0.011327 -0.010773)
103:   3231.28   0.000382    1.93  0.000037  ( 0.004737 -0.001095 -0.003637)
104:   3258.94   0.000510    2.58  0.000049  (-0.005342  0.004353  0.001153)

* The epsilon (eps) is given for a Dirac delta lineshape.
** The dipole moment derivative (T) already includes vibrational overlap.

The first frequency considered to be a vibration is 6
The total number of vibrations considered is 99


--------------------------
THERMOCHEMISTRY AT 298.15K
--------------------------

Temperature         ... 298.15 K
Pressure            ... 1.00 atm
Total Mass          ... 277.28 AMU

Throughout the following assumptions are being made:
  (1) The electronic state is orbitally nondegenerate
  (2) There are no thermally accessible electronically excited states
  (3) Hindered rotations indicated by low frequency modes are not
      treated as such but are treated as vibrations and this may
      cause some error
  (4) All equations used are the standard statistical mechanics
      equations for an ideal gas
  (5) All vibrations are strictly harmonic

freq.      17.75  E(vib)   ...       0.57 
freq.      32.27  E(vib)   ...       0.55 
freq.      53.57  E(vib)   ...       0.52 
freq.      62.16  E(vib)   ...       0.51 
freq.      73.70  E(vib)   ...       0.49 
freq.      96.47  E(vib)   ...       0.47 
freq.      99.98  E(vib)   ...       0.46 
freq.     129.09  E(vib)   ...       0.43 
freq.     145.20  E(vib)   ...       0.41 
freq.     148.00  E(vib)   ...       0.41 
freq.     162.06  E(vib)   ...       0.39 
freq.     180.43  E(vib)   ...       0.37 
freq.     200.75  E(vib)   ...       0.35 
freq.     233.76  E(vib)   ...       0.32 
freq.     248.82  E(vib)   ...       0.31 
freq.     259.62  E(vib)   ...       0.30 
freq.     300.92  E(vib)   ...       0.26 
freq.     313.79  E(vib)   ...       0.25 
freq.     346.82  E(vib)   ...       0.23 
freq.     362.43  E(vib)   ...       0.22 
freq.     391.58  E(vib)   ...       0.20 
freq.     410.26  E(vib)   ...       0.19 
freq.     479.80  E(vib)   ...       0.15 
freq.     498.29  E(vib)   ...       0.14 
freq.     561.12  E(vib)   ...       0.11 
freq.     574.95  E(vib)   ...       0.11 
freq.     588.39  E(vib)   ...       0.10 
freq.     604.37  E(vib)   ...       0.10 
freq.     628.87  E(vib)   ...       0.09 
freq.     633.16  E(vib)   ...       0.09 
freq.     719.15  E(vib)   ...       0.07 
freq.     727.34  E(vib)   ...       0.06 
freq.     734.12  E(vib)   ...       0.06 
freq.     768.04  E(vib)   ...       0.06 
freq.     772.17  E(vib)   ...       0.05 
freq.     784.60  E(vib)   ...       0.05 
freq.     816.07  E(vib)   ...       0.05 
freq.     857.03  E(vib)   ...       0.04 
freq.     875.34  E(vib)   ...       0.04 
freq.     900.15  E(vib)   ...       0.03 
freq.     927.51  E(vib)   ...       0.03 
freq.     952.57  E(vib)   ...       0.03 
freq.     957.56  E(vib)   ...       0.03 
freq.     968.74  E(vib)   ...       0.03 
freq.     991.92  E(vib)   ...       0.02 
freq.    1003.46  E(vib)   ...       0.02 
freq.    1022.72  E(vib)   ...       0.02 
freq.    1025.97  E(vib)   ...       0.02 
freq.    1054.73  E(vib)   ...       0.02 
freq.    1071.65  E(vib)   ...       0.02 
freq.    1083.90  E(vib)   ...       0.02 
freq.    1104.05  E(vib)   ...       0.02 
freq.    1137.36  E(vib)   ...       0.01 
freq.    1171.22  E(vib)   ...       0.01 
freq.    1171.66  E(vib)   ...       0.01 
freq.    1175.23  E(vib)   ...       0.01 
freq.    1194.95  E(vib)   ...       0.01 
freq.    1205.52  E(vib)   ...       0.01 
freq.    1212.87  E(vib)   ...       0.01 
freq.    1236.90  E(vib)   ...       0.01 
freq.    1243.18  E(vib)   ...       0.01 
freq.    1276.96  E(vib)   ...       0.01 
freq.    1288.59  E(vib)   ...       0.01 
freq.    1296.39  E(vib)   ...       0.01 
freq.    1308.85  E(vib)   ...       0.01 
freq.    1325.89  E(vib)   ...       0.01 
freq.    1355.43  E(vib)   ...       0.01 
freq.    1373.62  E(vib)   ...       0.01 
freq.    1396.10  E(vib)   ...       0.00 
freq.    1414.38  E(vib)   ...       0.00 
freq.    1465.75  E(vib)   ...       0.00 
freq.    1466.05  E(vib)   ...       0.00 
freq.    1469.69  E(vib)   ...       0.00 
freq.    1472.59  E(vib)   ...       0.00 
freq.    1473.63  E(vib)   ...       0.00 
freq.    1477.47  E(vib)   ...       0.00 
freq.    1483.69  E(vib)   ...       0.00 
freq.    1498.98  E(vib)   ...       0.00 
freq.    1536.72  E(vib)   ...       0.00 
freq.    1649.48  E(vib)   ...       0.00 
freq.    1663.64  E(vib)   ...       0.00 
freq.    1683.36  E(vib)   ...       0.00 
freq.    1701.79  E(vib)   ...       0.00 
freq.    1805.63  E(vib)   ...       0.00 
freq.    3037.58  E(vib)   ...       0.00 
freq.    3074.81  E(vib)   ...       0.00 
freq.    3109.11  E(vib)   ...       0.00 
freq.    3109.44  E(vib)   ...       0.00 
freq.    3144.49  E(vib)   ...       0.00 
freq.    3160.21  E(vib)   ...       0.00 
freq.    3164.53  E(vib)   ...       0.00 
freq.    3165.77  E(vib)   ...       0.00 
freq.    3188.35  E(vib)   ...       0.00 
freq.    3193.27  E(vib)   ...       0.00 
freq.    3194.44  E(vib)   ...       0.00 
freq.    3196.79  E(vib)   ...       0.00 
freq.    3214.97  E(vib)   ...       0.00 
freq.    3231.28  E(vib)   ...       0.00 
freq.    3258.94  E(vib)   ...       0.00 

------------
INNER ENERGY
------------

The inner energy is: U= E(el) + E(ZPE) + E(vib) + E(rot) + E(trans)
    E(el)   - is the total energy from the electronic structure calculation
              = E(kin-el) + E(nuc-el) + E(el-el) + E(nuc-nuc)
    E(ZPE)  - the the zero temperature vibrational energy from the frequency calculation
    E(vib)  - the the finite temperature correction to E(ZPE) due to population
              of excited vibrational states
    E(rot)  - is the rotational thermal energy
    E(trans)- is the translational thermal energy

Summary of contributions to the inner energy U:
Electronic energy                ...   -972.59645577 Eh
Zero point energy                ...      0.27573743 Eh     173.03 kcal/mol
Thermal vibrational correction   ...      0.01603177 Eh      10.06 kcal/mol
Thermal rotational correction    ...      0.00141627 Eh       0.89 kcal/mol
Thermal translational correction ...      0.00141627 Eh       0.89 kcal/mol
-----------------------------------------------------------------------
Total thermal energy                   -972.30185403 Eh


Summary of corrections to the electronic energy:
(perhaps to be used in another calculation)
Total thermal correction                  0.01886431 Eh      11.84 kcal/mol
Non-thermal (ZPE) correction              0.27573743 Eh     173.03 kcal/mol
-----------------------------------------------------------------------
Total correction                          0.29460174 Eh     184.86 kcal/mol


--------
ENTHALPY
--------

The enthalpy is H = U + kB*T
                kB is Boltzmann's constant
Total free energy                 ...   -972.30185403 Eh 
Thermal Enthalpy correction       ...      0.00094421 Eh       0.59 kcal/mol
-----------------------------------------------------------------------
Total Enthalpy                    ...   -972.30090982 Eh


Note: Only C1 symmetry has been detected, increase convergence thresholds 
      if your molecule has a higher symmetry. Symmetry factor of 1.0 is   
      used for the rotational entropy correction. 
 

Note: Rotational entropy computed according to Herzberg 
Infrared and Raman Spectra, Chapter V,1, Van Nostrand Reinhold, 1945 
Point Group:  C1, Symmetry Number:   1  
Rotational constants in cm-1:     0.013991     0.010545     0.007422 

Vibrational entropy computed according to the QRRHO of S. Grimme
Chem.Eur.J. 2012 18 9955


-------
ENTROPY
-------

The entropy contributions are T*S = T*(S(el)+S(vib)+S(rot)+S(trans))
     S(el)   - electronic entropy
     S(vib)  - vibrational entropy
     S(rot)  - rotational entropy
     S(trans)- translational entropy
The entropies will be listed as multiplied by the temperature to get
units of energy

Electronic entropy                ...      0.00000000 Eh      0.00 kcal/mol
Vibrational entropy               ...      0.02890047 Eh     18.14 kcal/mol
Rotational entropy                ...      0.01599012 Eh     10.03 kcal/mol
Translational entropy             ...      0.02031562 Eh     12.75 kcal/mol
-----------------------------------------------------------------------
Final entropy term                ...      0.06520621 Eh     40.92 kcal/mol

In case the symmetry of your molecule has not been determined correctly
or in case you have a reason to use a different symmetry number we print 
out the resulting rotational entropy values for sn=1,12 :
 --------------------------------------------------------
|  sn= 1 | S(rot)=       0.01599012 Eh     10.03 kcal/mol|
|  sn= 2 | S(rot)=       0.01533566 Eh      9.62 kcal/mol|
|  sn= 3 | S(rot)=       0.01495283 Eh      9.38 kcal/mol|
|  sn= 4 | S(rot)=       0.01468120 Eh      9.21 kcal/mol|
|  sn= 5 | S(rot)=       0.01447052 Eh      9.08 kcal/mol|
|  sn= 6 | S(rot)=       0.01429837 Eh      8.97 kcal/mol|
|  sn= 7 | S(rot)=       0.01415283 Eh      8.88 kcal/mol|
|  sn= 8 | S(rot)=       0.01402675 Eh      8.80 kcal/mol|
|  sn= 9 | S(rot)=       0.01391554 Eh      8.73 kcal/mol|
|  sn=10 | S(rot)=       0.01381606 Eh      8.67 kcal/mol|
|  sn=11 | S(rot)=       0.01372607 Eh      8.61 kcal/mol|
|  sn=12 | S(rot)=       0.01364392 Eh      8.56 kcal/mol|
 --------------------------------------------------------


-------------------
GIBBS FREE ENERGY
-------------------

The Gibbs free energy is G = H - T*S

Total enthalpy                    ...   -972.30090982 Eh 
Total entropy correction          ...     -0.06520621 Eh    -40.92 kcal/mol
-----------------------------------------------------------------------
Final Gibbs free energy         ...   -972.36611602 Eh

For completeness - the Gibbs free energy minus the electronic energy
G-E(el)                           ...      0.23033975 Eh    144.54 kcal/mol


Timings for individual modules:

Sum of individual times         ...     2172.863 sec (=  36.214 min)
GTO integral calculation        ...       24.896 sec (=   0.415 min)   1.1 %
SCF iterations                  ...      692.211 sec (=  11.537 min)  31.9 %
SCF Gradient evaluation         ...      190.671 sec (=   3.178 min)   8.8 %
Geometry relaxation             ...        1.233 sec (=   0.021 min)   0.1 %
Analytical frequency calculation...     1263.852 sec (=  21.064 min)  58.2 %
                             ****ORCA TERMINATED NORMALLY****
TOTAL RUN TIME: 0 days 0 hours 36 minutes 50 seconds 983 msec
