
                                 *****************
                                 * O   R   C   A *
                                 *****************

                                            #,                                       
                                            ###                                      
                                            ####                                     
                                            #####                                    
                                            ######                                   
                                           ########,                                 
                                     ,,################,,,,,                         
                               ,,#################################,,                 
                          ,,##########################################,,             
                       ,#########################################, ''#####,          
                    ,#############################################,,   '####,        
                  ,##################################################,,,,####,       
                ,###########''''           ''''###############################       
              ,#####''   ,,,,##########,,,,          '''####'''          '####       
            ,##' ,,,,###########################,,,                        '##       
           ' ,,###''''                  '''############,,,                           
         ,,##''                                '''############,,,,        ,,,,,,###''
      ,#''                                            '''#######################'''  
     '                                                          ''''####''''         
             ,#######,   #######,   ,#######,      ##                                
            ,#'     '#,  ##    ##  ,#'     '#,    #''#        ######   ,####,        
            ##       ##  ##   ,#'  ##            #'  '#       #        #'  '#        
            ##       ##  #######   ##           ,######,      #####,   #    #        
            '#,     ,#'  ##    ##  '#,     ,#' ,#      #,         ##   #,  ,#        
             '#######'   ##     ##  '#######'  #'      '#     #####' # '####'        



                  #######################################################
                  #                        -***-                        #
                  #          Department of theory and spectroscopy      #
                  #    Directorship and core code : Frank Neese         #
                  #        Max Planck Institute fuer Kohlenforschung    #
                  #                Kaiser Wilhelm Platz 1               #
                  #                 D-45470 Muelheim/Ruhr               #
                  #                      Germany                        #
                  #                                                     #
                  #                  All rights reserved                #
                  #                        -***-                        #
                  #######################################################


                         Program Version 5.0.4 -  RELEASE  -


 With contributions from (in alphabetic order):
   Daniel Aravena         : Magnetic Suceptibility
   Michael Atanasov       : Ab Initio Ligand Field Theory (pilot matlab implementation)
   Alexander A. Auer      : GIAO ZORA, VPT2 properties, NMR spectrum
   Ute Becker             : Parallelization
   Giovanni Bistoni       : ED, misc. LED, open-shell LED, HFLD
   Martin Brehm           : Molecular dynamics
   Dmytro Bykov           : SCF Hessian
   Vijay G. Chilkuri      : MRCI spin determinant printing, contributions to CSF-ICE
   Dipayan Datta          : RHF DLPNO-CCSD density
   Achintya Kumar Dutta   : EOM-CC, STEOM-CC
   Dmitry Ganyushin       : Spin-Orbit,Spin-Spin,Magnetic field MRCI
   Miquel Garcia          : C-PCM and meta-GGA Hessian, CC/C-PCM, Gaussian charge scheme
   Yang Guo               : DLPNO-NEVPT2, F12-NEVPT2, CIM, IAO-localization
   Andreas Hansen         : Spin unrestricted coupled pair/coupled cluster methods
   Benjamin Helmich-Paris : MC-RPA, TRAH-SCF, COSX integrals
   Lee Huntington         : MR-EOM, pCC
   Robert Izsak           : Overlap fitted RIJCOSX, COSX-SCS-MP3, EOM
   Marcus Kettner         : VPT2
   Christian Kollmar      : KDIIS, OOCD, Brueckner-CCSD(T), CCSD density, CASPT2, CASPT2-K
   Simone Kossmann        : Meta GGA functionals, TD-DFT gradient, OOMP2, MP2 Hessian
   Martin Krupicka        : Initial AUTO-CI
   Lucas Lang             : DCDCAS
   Marvin Lechner         : AUTO-CI (C++ implementation), FIC-MRCC
   Dagmar Lenk            : GEPOL surface, SMD
   Dimitrios Liakos       : Extrapolation schemes; Compound Job, initial MDCI parallelization
   Dimitrios Manganas     : Further ROCIS development; embedding schemes
   Dimitrios Pantazis     : SARC Basis sets
   Anastasios Papadopoulos: AUTO-CI, single reference methods and gradients
   Taras Petrenko         : DFT Hessian,TD-DFT gradient, ASA, ECA, R-Raman, ABS, FL, XAS/XES, NRVS
   Peter Pinski           : DLPNO-MP2, DLPNO-MP2 Gradient
   Christoph Reimann      : Effective Core Potentials
   Marius Retegan         : Local ZFS, SOC
   Christoph Riplinger    : Optimizer, TS searches, QM/MM, DLPNO-CCSD(T), (RO)-DLPNO pert. Triples
   Tobias Risthaus        : Range-separated hybrids, TD-DFT gradient, RPA, STAB
   Michael Roemelt        : Original ROCIS implementation
   Masaaki Saitow         : Open-shell DLPNO-CCSD energy and density
   Barbara Sandhoefer     : DKH picture change effects
   Avijit Sen             : IP-ROCIS
   Kantharuban Sivalingam : CASSCF convergence, NEVPT2, FIC-MRCI
   Bernardo de Souza      : ESD, SOC TD-DFT
   Georgi Stoychev        : AutoAux, RI-MP2 NMR, DLPNO-MP2 response
   Willem Van den Heuvel  : Paramagnetic NMR
   Boris Wezisla          : Elementary symmetry handling
   Frank Wennmohs         : Technical directorship


 We gratefully acknowledge several colleagues who have allowed us to
 interface, adapt or use parts of their codes:
   Stefan Grimme, W. Hujo, H. Kruse, P. Pracht,  : VdW corrections, initial TS optimization,
                  C. Bannwarth, S. Ehlert          DFT functionals, gCP, sTDA/sTD-DF
   Ed Valeev, F. Pavosevic, A. Kumar             : LibInt (2-el integral package), F12 methods
   Garnet Chan, S. Sharma, J. Yang, R. Olivares  : DMRG
   Ulf Ekstrom                                   : XCFun DFT Library
   Mihaly Kallay                                 : mrcc  (arbitrary order and MRCC methods)
   Jiri Pittner, Ondrej Demel                    : Mk-CCSD
   Frank Weinhold                                : gennbo (NPA and NBO analysis)
   Christopher J. Cramer and Donald G. Truhlar   : smd solvation model
   Lars Goerigk                                  : TD-DFT with DH, B97 family of functionals
   V. Asgeirsson, H. Jonsson                     : NEB implementation
   FAccTs GmbH                                   : IRC, NEB, NEB-TS, DLPNO-Multilevel, CI-OPT
                                                   MM, QMMM, 2- and 3-layer-ONIOM, Crystal-QMMM,
                                                   LR-CPCM, SF, NACMEs, symmetry and pop. for TD-DFT,
                                                   nearIR, NL-DFT gradient (VV10), updates on ESD,
                                                   ML-optimized integration grids
   S Lehtola, MJT Oliveira, MAL Marques          : LibXC Library
   Liviu Ungur et al                             : ANISO software


 Your calculation uses the libint2 library for the computation of 2-el integrals
 For citations please refer to: http://libint.valeyev.net

 Your ORCA version has been built with support for libXC version: 5.1.0
 For citations please refer to: https://tddft.org/programs/libxc/

 This ORCA versions uses:
   CBLAS   interface :  Fast vector & matrix operations
   LAPACKE interface :  Fast linear algebra routines
   SCALAPACK package :  Parallel linear algebra routines
   Shared memory     :  Shared parallel matrices
   BLAS/LAPACK       :  OpenBLAS 0.3.15  USE64BITINT DYNAMIC_ARCH NO_AFFINITY Haswell SINGLE_THREADED
        Core in use  :  Haswell
   Copyright (c) 2011-2014, The OpenBLAS Project


Your calculation utilizes the atom-pairwise dispersion correction
with the Becke-Johnson damping scheme (D3BJ)
Cite in your paper:
S.Grimme, S.Ehrlich, L.Goerigk, J Comput Chem, (2011), 32, 1456–1465 
S.Grimme, J.Antony, S.Ehrlich and H.Krieg, J.Chem.Phys., 132, (2010), 154104 
   

================================================================================

----- Orbital basis set information -----
Your calculation utilizes the basis: def2-TZVP
   F. Weigend and R. Ahlrichs, Phys. Chem. Chem. Phys. 7, 3297 (2005).

----- AuxJ basis set information -----
Your calculation utilizes the auxiliary basis: def2/J
   F. Weigend, Phys. Chem. Chem. Phys. 8, 1057 (2006).

================================================================================
                                        WARNINGS
                       Please study these warnings very carefully!
================================================================================


WARNING: Geometry Optimization
  ===> : Switching off AutoStart
         For restart on a previous wavefunction, please use MOREAD

INFO   : the flag for use of the SHARK integral package has been found!

================================================================================
                                       INPUT FILE
================================================================================
NAME = 4_CHCHNMe2_free/4_CHCHNMe2_free.inp
|  1> %pal nprocs 24 end
|  2> %maxcore 3500
|  3> ! PBE0 D3BJ def2-TZVP TightSCF OPT FREQ TightOpt
|  4> ! CPCM(dmso)
|  5> %scf
|  6> MaxIter 800
|  7> end
|  8> %geom
|  9> MaxIter 800
| 10> MaxStep 0.2
| 11> end
| 12> *xyz 0 1
| 13> C        0.308421000      1.834307000     -0.240427000
| 14> C        0.560086000      2.648529000      1.020686000
| 15> O        0.094716000      2.332527000      2.088587000
| 16> O        1.285296000      3.729998000      0.807892000
| 17> C        1.517916000      4.562655000      1.950472000
| 18> H       -0.741344000      1.978794000     -0.515424000
| 19> H        2.118866000      5.392932000      1.589750000
| 20> H        2.055773000      4.005668000      2.717512000
| 21> C        2.030689000      0.313447000     -0.554815000
| 22> C        0.636249000      0.349873000     -0.012340000
| 23> C       -0.276803000     -0.614989000     -0.728213000
| 24> C       -0.409670000     -0.576506000     -2.108804000
| 25> C       -1.251532000     -1.451477000     -2.780308000
| 26> C       -1.966675000     -2.390488000     -2.054707000
| 27> C       -1.845095000     -2.457256000     -0.673711000
| 28> C       -1.003069000     -1.571719000     -0.006803000
| 29> O       -0.825547000     -1.578415000      1.333847000
| 30> C       -1.509960000     -2.555505000      2.093742000
| 31> N        2.255095000      1.372756000     -1.281955000
| 32> O        3.221436000      1.728509000     -1.977574000
| 33> H        0.615832000      0.139561000      1.055200000
| 34> H        0.160609000      0.156131000     -2.670270000
| 35> H       -1.343818000     -1.400118000     -3.858504000
| 36> H       -2.629010000     -3.083971000     -2.560562000
| 37> H       -2.410508000     -3.196626000     -0.122946000
| 38> H       -2.593417000     -2.442926000      1.997500000
| 39> H       -1.218614000     -2.388869000      3.128726000
| 40> H       -1.219833000     -3.565444000      1.789836000
| 41> O        1.117283000      2.242362000     -1.322910000
| 42> H        0.570451000      4.921190000      2.352647000
| 43> C        2.985851000     -0.723402000     -0.398626000
| 44> H        3.919615000     -0.627597000     -0.936753000
| 45> C        2.708935000     -1.810413000      0.377251000
| 46> H        1.772781000     -1.849701000      0.926255000
| 47> N        3.481284000     -2.892064000      0.536684000
| 48> C        3.180289000     -3.868069000      1.557374000
| 49> H        2.147668000     -3.748175000      1.884311000
| 50> H        3.309389000     -4.877219000      1.159848000
| 51> H        3.837781000     -3.752619000      2.426614000
| 52> C        4.770209000     -2.970413000     -0.103050000
| 53> H        5.148191000     -3.988227000     -0.019434000
| 54> H        4.683436000     -2.715627000     -1.161985000
| 55> H        5.493521000     -2.286781000      0.358016000
| 56> **                         ****END OF INPUT****
================================================================================

                       *****************************
                       * Geometry Optimization Run *
                       *****************************

Geometry optimization settings:
Update method            Update   .... BFGS
Choice of coordinates    CoordSys .... Z-matrix Internals
Initial Hessian          InHess   .... Almoef's Model

Convergence Tolerances:
Energy Change            TolE     ....  1.0000e-06 Eh
Max. Gradient            TolMAXG  ....  1.0000e-04 Eh/bohr
RMS Gradient             TolRMSG  ....  3.0000e-05 Eh/bohr
Max. Displacement        TolMAXD  ....  1.0000e-03 bohr
RMS Displacement         TolRMSD  ....  6.0000e-04 bohr
Strict Convergence                ....  False
------------------------------------------------------------------------------
                        ORCA OPTIMIZATION COORDINATE SETUP
------------------------------------------------------------------------------

The optimization will be done in new redundant internal coordinates
Making redundant internal coordinates   ...  (new redundants) done
Evaluating the initial hessian          ...  (Almloef) done
Evaluating the coordinates              ...  done
Calculating the B-matrix                .... done
Calculating the G-matrix                .... done
Diagonalizing the G-matrix              .... done
Small eigenvalue found = 4.761e-03
Small eigenvalue found = 6.695e-03
Small eigenvalue found = 1.058e-02
Small eigenvalue found = 1.073e-02
Small eigenvalue found = 1.773e-02
Small eigenvalue found = 2.300e-02
The first mode is                       ....   91
The number of degrees of freedom        ....  123

    -----------------------------------------------------------------
                    Redundant Internal Coordinates


    -----------------------------------------------------------------
         Definition                    Initial Value    Approx d2E/dq
    -----------------------------------------------------------------
      1. B(C   1,C   0)                  1.5221         0.384617   
      2. B(O   2,C   1)                  1.2070         1.096092   
      3. B(O   3,C   1)                  1.3194         0.725323   
      4. B(C   4,O   3)                  1.4328         0.478178   
      5. B(H   5,C   0)                  1.0948         0.353854   
      6. B(H   6,C   4)                  1.0866         0.364674   
      7. B(H   7,C   4)                  1.0899         0.360237   
      8. B(C   9,C   8)                  1.4967         0.422209   
      9. B(C   9,C   0)                  1.5372         0.363799   
     10. B(C  10,C   9)                  1.5090         0.403528   
     11. B(C  11,C  10)                  1.3875         0.630553   
     12. B(C  12,C  11)                  1.3875         0.630505   
     13. B(C  13,C  12)                  1.3855         0.635162   
     14. B(C  14,C  13)                  1.3879         0.629532   
     15. B(C  15,C  10)                  1.4012         0.599717   
     16. B(C  15,C  14)                  1.3921         0.619989   
     17. B(O  16,C  15)                  1.3524         0.642560   
     18. B(C  17,O  16)                  1.4144         0.511593   
     19. B(N  18,C   8)                  1.3043         0.766633   
     20. B(O  19,N  18)                  1.2427         0.861088   
     21. B(H  20,C   9)                  1.0883         0.362422   
     22. B(H  21,C  11)                  1.0850         0.366779   
     23. B(H  22,C  12)                  1.0834         0.368997   
     24. B(H  23,C  13)                  1.0842         0.367851   
     25. B(H  24,C  14)                  1.0815         0.371484   
     26. B(H  25,C  17)                  1.0935         0.355456   
     27. B(H  26,C  17)                  1.0880         0.362696   
     28. B(H  27,C  17)                  1.0939         0.355042   
     29. B(O  28,N  18)                  1.4327         0.428504   
     30. B(O  28,C   0)                  1.4116         0.516962   
     31. B(H  29,C   4)                  1.0899         0.360172   
     32. B(C  30,C   8)                  1.4184         0.562949   
     33. B(H  31,C  30)                  1.0820         0.370871   
     34. B(C  32,C  30)                  1.3639         0.687634   
     35. B(H  33,C  32)                  1.0860         0.365469   
     36. B(N  34,C  32)                  1.3386         0.675841   
     37. B(C  35,N  34)                  1.4440         0.458988   
     38. B(H  36,H  27)                  3.3738         0.000016   
     39. B(H  36,C  35)                  1.0898         0.360423   
     40. B(H  37,C  35)                  1.0923         0.357095   
     41. B(H  38,C  35)                  1.0960         0.352258   
     42. B(C  39,N  34)                  1.4411         0.463845   
     43. B(H  40,C  39)                  1.0889         0.361495   
     44. B(H  41,C  39)                  1.0926         0.356668   
     45. B(H  42,C  39)                  1.0969         0.351131   
     46. A(C   1,C   0,H   5)          107.2218         0.324939   
     47. A(C   1,C   0,C   9)          111.0005         0.363514   
     48. A(H   5,C   0,O  28)          108.5835         0.339196   
     49. A(C   1,C   0,O  28)          112.7058         0.383791   
     50. A(C   9,C   0,O  28)          105.7079         0.380101   
     51. A(H   5,C   0,C   9)          111.6672         0.321986   
     52. A(O   2,C   1,O   3)          124.6958         0.489089   
     53. A(C   0,C   1,O   2)          121.9558         0.438452   
     54. A(C   0,C   1,O   3)          113.3116         0.407275   
     55. A(C   1,O   3,C   4)          115.9107         0.420602   
     56. A(H   6,C   4,H   7)          110.5613         0.291434   
     57. A(H   7,C   4,H  29)          109.7190         0.290866   
     58. A(O   3,C   4,H   6)          105.6120         0.336500   
     59. A(O   3,C   4,H  29)          110.1379         0.335805   
     60. A(O   3,C   4,H   7)          110.1422         0.335815   
     61. A(H   6,C   4,H  29)          110.6044         0.291426   
     62. A(C   9,C   8,N  18)          110.0349         0.418165   
     63. A(N  18,C   8,C  30)          122.6310         0.440312   
     64. A(C   9,C   8,C  30)          127.2500         0.398490   
     65. A(C  10,C   9,H  20)          109.2962         0.328811   
     66. A(C   8,C   9,H  20)          111.6126         0.331280   
     67. A(C   0,C   9,H  20)          109.1579         0.323251   
     68. A(C   0,C   9,C  10)          114.7096         0.366512   
     69. A(C   8,C   9,C  10)          112.1001         0.376024   
     70. A(C   0,C   9,C   8)           99.6957         0.369369   
     71. A(C   9,C  10,C  11)          120.8134         0.403301   
     72. A(C  11,C  10,C  15)          118.7904         0.432789   
     73. A(C   9,C  10,C  15)          120.3957         0.399754   
     74. A(C  12,C  11,H  21)          119.6217         0.355019   
     75. A(C  10,C  11,H  21)          118.9011         0.355023   
     76. A(C  10,C  11,C  12)          121.4771         0.436706   
     77. A(C  13,C  12,H  22)          120.6218         0.355826   
     78. A(C  11,C  12,C  13)          119.1499         0.437280   
     79. A(C  11,C  12,H  22)          120.2281         0.355382   
     80. A(C  14,C  13,H  23)          119.1420         0.355102   
     81. A(C  12,C  13,H  23)          120.2960         0.355638   
     82. A(C  12,C  13,C  14)          120.5620         0.437158   
     83. A(C  13,C  14,C  15)          119.9372         0.435258   
     84. A(C  15,C  14,H  24)          120.4724         0.354774   
     85. A(C  13,C  14,H  24)          119.5900         0.355694   
     86. A(C  14,C  15,O  16)          123.4468         0.434005   
     87. A(C  10,C  15,O  16)          116.4712         0.431419   
     88. A(C  10,C  15,C  14)          120.0803         0.431477   
     89. A(C  15,O  16,C  17)          118.1965         0.416602   
     90. A(H  26,C  17,H  27)          109.5521         0.290522   
     91. A(H  25,C  17,H  27)          109.4747         0.289604   
     92. A(O  16,C  17,H  27)          111.1129         0.338795   
     93. A(H  25,C  17,H  26)          109.4664         0.290575   
     94. A(O  16,C  17,H  26)          106.0027         0.340004   
     95. A(O  16,C  17,H  25)          111.1631         0.338861   
     96. A(C   8,N  18,O  19)          132.7157         0.469383   
     97. A(O  19,N  18,O  28)          115.3291         0.419659   
     98. A(C   8,N  18,O  28)          111.8555         0.413803   
     99. A(C   0,O  28,N  18)          104.9338         0.386089   
    100. A(H  31,C  30,C  32)          121.9186         0.360975   
    101. A(C   8,C  30,C  32)          120.5652         0.434614   
    102. A(C   8,C  30,H  31)          117.4953         0.348934   
    103. A(H  33,C  32,N  34)          114.0750         0.356792   
    104. A(C  30,C  32,N  34)          126.4838         0.446247   
    105. A(C  30,C  32,H  33)          119.4351         0.360073   
    106. A(C  32,N  34,C  35)          120.6698         0.412329   
    107. A(C  35,N  34,C  39)          117.6127         0.385924   
    108. A(C  32,N  34,C  39)          120.4716         0.413100   
    109. A(N  34,C  35,H  37)          110.0345         0.333053   
    110. A(N  34,C  35,H  36)          109.5864         0.333566   
    111. A(H  37,C  35,H  38)          108.3645         0.289455   
    112. A(H  36,C  35,H  38)          108.5978         0.289877   
    113. A(N  34,C  35,H  38)          111.3690         0.332301   
    114. A(H  36,C  35,H  37)          108.8340         0.290498   
    115. A(H  41,C  39,H  42)          108.3262         0.289256   
    116. A(H  40,C  39,H  42)          108.7460         0.289866   
    117. A(N  34,C  39,H  42)          111.6736         0.332705   
    118. A(H  40,C  39,H  41)          108.6596         0.290579   
    119. A(N  34,C  39,H  41)          110.2754         0.333569   
    120. A(N  34,C  39,H  40)          109.0981         0.334314   
    121. D(O   2,C   1,C   0,O  28)   -170.0010         0.011023   
    122. D(O   2,C   1,C   0,H   5)     70.5681         0.011023   
    123. D(O   3,C   1,C   0,H   5)   -107.3239         0.011023   
    124. D(O   3,C   1,C   0,C   9)    130.4652         0.011023   
    125. D(O   3,C   1,C   0,O  28)     12.1070         0.011023   
    126. D(O   2,C   1,C   0,C   9)    -51.6427         0.011023   
    127. D(C   4,O   3,C   1,O   2)      0.1295         0.039676   
    128. D(C   4,O   3,C   1,C   0)    177.9541         0.039676   
    129. D(H  29,C   4,O   3,C   1)    -60.3222         0.018035   
    130. D(H   7,C   4,O   3,C   1)     60.8283         0.018035   
    131. D(H   6,C   4,O   3,C   1)   -179.7714         0.018035   
    132. D(C  10,C   9,C   0,C   1)    143.9105         0.010603   
    133. D(H  20,C   9,C   8,N  18)   -131.6861         0.013177   
    134. D(C   8,C   9,C   0,O  28)     26.3399         0.010603   
    135. D(C  10,C   9,C   8,C  30)    -71.3841         0.013177   
    136. D(C   8,C   9,C   0,C   1)    -96.1711         0.010603   
    137. D(C  10,C   9,C   8,N  18)    105.3234         0.013177   
    138. D(C   0,C   9,C   8,C  30)    166.8073         0.013177   
    139. D(C   0,C   9,C   8,N  18)    -16.4852         0.013177   
    140. D(H  20,C   9,C   0,O  28)    143.4005         0.010603   
    141. D(H  20,C   9,C   0,H   5)    -98.6983         0.010603   
    142. D(C  10,C   9,C   0,O  28)    -93.5784         0.010603   
    143. D(C  10,C   9,C   0,H   5)     24.3228         0.010603   
    144. D(H  20,C   9,C   0,C   1)     20.8894         0.010603   
    145. D(H  20,C   9,C   8,C  30)     51.6064         0.013177   
    146. D(C   8,C   9,C   0,H   5)    144.2412         0.010603   
    147. D(C  15,C  10,C   9,C   0)   -121.8697         0.012075   
    148. D(C  11,C  10,C   9,H  20)   -178.6666         0.012075   
    149. D(C  11,C  10,C   9,C   8)    -54.3776         0.012075   
    150. D(C  15,C  10,C   9,C   8)    125.3661         0.012075   
    151. D(C  11,C  10,C   9,C   0)     58.3866         0.012075   
    152. D(C  15,C  10,C   9,H  20)      1.0770         0.012075   
    153. D(H  21,C  11,C  10,C  15)   -179.3038         0.027571   
    154. D(H  21,C  11,C  10,C   9)      0.4439         0.027571   
    155. D(C  12,C  11,C  10,C  15)      0.6620         0.027571   
    156. D(C  12,C  11,C  10,C   9)   -179.5903         0.027571   
    157. D(H  22,C  12,C  11,H  21)     -0.3587         0.027566   
    158. D(H  22,C  12,C  11,C  10)    179.6757         0.027566   
    159. D(C  13,C  12,C  11,H  21)    179.4643         0.027566   
    160. D(C  13,C  12,C  11,C  10)     -0.5013         0.027566   
    161. D(H  23,C  13,C  12,H  22)     -0.1098         0.028002   
    162. D(H  23,C  13,C  12,C  11)   -179.9320         0.028002   
    163. D(C  14,C  13,C  12,H  22)    179.8471         0.028002   
    164. D(C  14,C  13,C  12,C  11)      0.0249         0.028002   
    165. D(H  24,C  14,C  13,H  23)     -0.0264         0.027476   
    166. D(H  24,C  14,C  13,C  12)   -179.9838         0.027476   
    167. D(C  15,C  14,C  13,H  23)   -179.7688         0.027476   
    168. D(C  15,C  14,C  13,C  12)      0.2738         0.027476   
    169. D(O  16,C  15,C  14,H  24)      0.6400         0.026598   
    170. D(C  10,C  15,C  14,H  24)   -179.8470         0.026598   
    171. D(C  10,C  15,C  14,C  13)     -0.1070         0.026598   
    172. D(O  16,C  15,C  10,C  11)    179.1939         0.024793   
    173. D(O  16,C  15,C  10,C   9)     -0.5549         0.024793   
    174. D(O  16,C  15,C  14,C  13)   -179.6199         0.026598   
    175. D(C  14,C  15,C  10,C  11)     -0.3521         0.024793   
    176. D(C  14,C  15,C  10,C   9)    179.8991         0.024793   
    177. D(C  17,O  16,C  15,C  14)      1.4044         0.030457   
    178. D(C  17,O  16,C  15,C  10)   -178.1249         0.030457   
    179. D(H  27,C  17,O  16,C  15)     60.3897         0.020724   
    180. D(H  26,C  17,O  16,C  15)    179.3332         0.020724   
    181. D(H  25,C  17,O  16,C  15)    -61.7990         0.020724   
    182. D(O  19,N  18,C   8,C  30)      1.5091         0.049601   
    183. D(O  19,N  18,C   8,C   9)   -175.3791         0.049601   
    184. D(O  28,N  18,C   8,C  30)    177.6181         0.049601   
    185. D(O  28,N  18,C   8,C   9)      0.7300         0.049601   
    186. D(C   0,O  28,N  18,O  19)   -165.9938         0.015255   
    187. D(C   0,O  28,N  18,C   8)     17.1682         0.015255   
    188. D(N  18,O  28,C   0,C   9)    -26.8958         0.021178   
    189. D(N  18,O  28,C   0,H   5)   -146.8424         0.021178   
    190. D(N  18,O  28,C   0,C   1)     94.5191         0.021178   
    191. D(C  32,C  30,C   8,N  18)    179.7013         0.021717   
    192. D(C  32,C  30,C   8,C   9)     -3.9722         0.021717   
    193. D(H  31,C  30,C   8,N  18)     -1.9273         0.021717   
    194. D(H  31,C  30,C   8,C   9)    174.3992         0.021717   
    195. D(N  34,C  32,C  30,H  31)     -2.9970         0.033204   
    196. D(N  34,C  32,C  30,C   8)    175.3010         0.033204   
    197. D(H  33,C  32,C  30,H  31)    177.9656         0.033204   
    198. D(H  33,C  32,C  30,C   8)     -3.7364         0.033204   
    199. D(C  39,N  34,C  32,H  33)   -178.4284         0.037541   
    200. D(C  39,N  34,C  32,C  30)      2.4899         0.037541   
    201. D(C  35,N  34,C  32,H  33)    -11.4822         0.037541   
    202. D(C  35,N  34,C  32,C  30)    169.4360         0.037541   
    203. D(H  38,C  35,N  34,C  39)     65.0841         0.017982   
    204. D(H  38,C  35,N  34,C  32)   -102.2249         0.017982   
    205. D(H  37,C  35,N  34,C  39)    -55.1006         0.017982   
    206. D(H  37,C  35,N  34,C  32)    137.5904         0.017982   
    207. D(H  36,C  35,N  34,C  39)   -174.7357         0.017982   
    208. D(H  36,C  35,N  34,C  32)     17.9553         0.017982   
    209. D(H  42,C  39,N  34,C  35)    -96.3047         0.018372   
    210. D(H  42,C  39,N  34,C  32)     71.0306         0.018372   
    211. D(H  41,C  39,N  34,C  35)    143.1970         0.018372   
    212. D(H  41,C  39,N  34,C  32)    -49.4676         0.018372   
    213. D(H  40,C  39,N  34,C  35)     23.9316         0.018372   
    214. D(H  40,C  39,N  34,C  32)   -168.7330         0.018372   
    -----------------------------------------------------------------

Number of atoms                         .... 43
Number of degrees of freedom            .... 214

         *************************************************************
         *                GEOMETRY OPTIMIZATION CYCLE   1            *
         *************************************************************
---------------------------------
CARTESIAN COORDINATES (ANGSTROEM)
---------------------------------
  C      0.308421    1.834307   -0.240427
  C      0.560086    2.648529    1.020686
  O      0.094716    2.332527    2.088587
  O      1.285296    3.729998    0.807892
  C      1.517916    4.562655    1.950472
  H     -0.741344    1.978794   -0.515424
  H      2.118866    5.392932    1.589750
  H      2.055773    4.005668    2.717512
  C      2.030689    0.313447   -0.554815
  C      0.636249    0.349873   -0.012340
  C     -0.276803   -0.614989   -0.728213
  C     -0.409670   -0.576506   -2.108804
  C     -1.251532   -1.451477   -2.780308
  C     -1.966675   -2.390488   -2.054707
  C     -1.845095   -2.457256   -0.673711
  C     -1.003069   -1.571719   -0.006803
  O     -0.825547   -1.578415    1.333847
  C     -1.509960   -2.555505    2.093742
  N      2.255095    1.372756   -1.281955
  O      3.221436    1.728509   -1.977574
  H      0.615832    0.139561    1.055200
  H      0.160609    0.156131   -2.670270
  H     -1.343818   -1.400118   -3.858504
  H     -2.629010   -3.083971   -2.560562
  H     -2.410508   -3.196626   -0.122946
  H     -2.593417   -2.442926    1.997500
  H     -1.218614   -2.388869    3.128726
  H     -1.219833   -3.565444    1.789836
  O      1.117283    2.242362   -1.322910
  H      0.570451    4.921190    2.352647
  C      2.985851   -0.723402   -0.398626
  H      3.919615   -0.627597   -0.936753
  C      2.708935   -1.810413    0.377251
  H      1.772781   -1.849701    0.926255
  N      3.481284   -2.892064    0.536684
  C      3.180289   -3.868069    1.557374
  H      2.147668   -3.748175    1.884311
  H      3.309389   -4.877219    1.159848
  H      3.837781   -3.752619    2.426614
  C      4.770209   -2.970413   -0.103050
  H      5.148191   -3.988227   -0.019434
  H      4.683436   -2.715627   -1.161985
  H      5.493521   -2.286781    0.358016

----------------------------
CARTESIAN COORDINATES (A.U.)
----------------------------
  NO LB      ZA    FRAG     MASS         X           Y           Z
   0 C     6.0000    0    12.011    0.582831    3.466338   -0.454341
   1 C     6.0000    0    12.011    1.058409    5.004994    1.928817
   2 O     8.0000    0    15.999    0.178987    4.407837    3.946857
   3 O     8.0000    0    15.999    2.428857    7.048675    1.526695
   4 C     6.0000    0    12.011    2.868446    8.622168    3.685858
   5 H     1.0000    0     1.008   -1.400937    3.739379   -0.974010
   6 H     1.0000    0     1.008    4.004076   10.191165    3.004192
   7 H     1.0000    0     1.008    3.884848    7.569616    5.135353
   8 C     6.0000    0    12.011    3.837446    0.592329   -1.048448
   9 C     6.0000    0    12.011    1.202336    0.661164   -0.023319
  10 C     6.0000    0    12.011   -0.523082   -1.162161   -1.376123
  11 C     6.0000    0    12.011   -0.774164   -1.089438   -3.985062
  12 C     6.0000    0    12.011   -2.365053   -2.742894   -5.254021
  13 C     6.0000    0    12.011   -3.716477   -4.517368   -3.882834
  14 C     6.0000    0    12.011   -3.486724   -4.643541   -1.273129
  15 C     6.0000    0    12.011   -1.895526   -2.970118   -0.012856
  16 O     8.0000    0    15.999   -1.560058   -2.982772    2.520606
  17 C     6.0000    0    12.011   -2.853411   -4.829205    3.956599
  18 N     7.0000    0    14.007    4.261512    2.594133   -2.422544
  19 O     8.0000    0    15.999    6.087632    3.266409   -3.737073
  20 H     1.0000    0     1.008    1.163754    0.263732    1.994039
  21 H     1.0000    0     1.008    0.303507    0.295045   -5.046079
  22 H     1.0000    0     1.008   -2.539448   -2.645840   -7.291516
  23 H     1.0000    0     1.008   -4.968109   -5.827861   -4.838761
  24 H     1.0000    0     1.008   -4.555200   -6.040748   -0.232334
  25 H     1.0000    0     1.008   -4.900848   -4.616461    3.774728
  26 H     1.0000    0     1.008   -2.302847   -4.514308    5.912435
  27 H     1.0000    0     1.008   -2.305150   -6.737713    3.382300
  28 O     8.0000    0    15.999    2.111359    4.237450   -2.499938
  29 H     1.0000    0     1.008    1.077996    9.299701    4.445859
  30 C     6.0000    0    12.011    5.642441   -1.367032   -0.753294
  31 H     1.0000    0     1.008    7.406999   -1.185986   -1.770207
  32 C     6.0000    0    12.011    5.119145   -3.421185    0.712901
  33 H     1.0000    0     1.008    3.350071   -3.495428    1.750368
  34 N     7.0000    0    14.007    6.578673   -5.465209    1.014186
  35 C     6.0000    0    12.011    6.009875   -7.309591    2.943010
  36 H     1.0000    0     1.008    4.058504   -7.083024    3.560832
  37 H     1.0000    0     1.008    6.253839   -9.216608    2.191795
  38 H     1.0000    0     1.008    7.252355   -7.091422    4.585636
  39 C     6.0000    0    12.011    9.014389   -5.613267   -0.194736
  40 H     1.0000    0     1.008    9.728671   -7.536657   -0.036725
  41 H     1.0000    0     1.008    8.850411   -5.131791   -2.195833
  42 H     1.0000    0     1.008   10.381250   -4.321390    0.676552

--------------------------------
INTERNAL COORDINATES (ANGSTROEM)
--------------------------------
 C      0   0   0     0.000000000000     0.00000000     0.00000000
 C      1   0   0     1.522070542478     0.00000000     0.00000000
 O      2   1   0     1.206995876838   121.95582876     0.00000000
 O      2   1   3     1.319388505520   113.31159146   182.10796187
 C      4   2   1     1.432801033099   115.91069951   177.95411872
 H      1   2   3     1.094763170007   107.22183491    70.56809326
 H      5   4   2     1.086563923804   105.61195186   180.22856171
 H      5   4   2     1.089896798884   110.14223820    60.82825192
 C      1   2   3     2.319064901629   109.89821905   266.08643745
 C      9   1   2     1.496685969969    40.79791024    99.21352919
 C     10   9   1     1.509005230566   112.10005055   121.80858555
 C     11  10   9     1.387503546035   120.81343607   305.62241372
 C     12  11  10     1.387524233987   121.47714139   180.40974343
 C     13  12  11     1.385520833395   119.14990463   359.49867661
 C     14  13  12     1.387944384419   120.56196808     0.02489928
 C     15  14  13     1.392102669888   119.93717791     0.27381356
 O     16  15  14     1.352368780843   123.44681377   180.38006487
 C     17  16  15     1.414413812749   118.19653553     1.40435101
 N      9   1   2     1.304310618648    70.77553275   262.81366844
 O     19   9   1     1.242682951702   132.71568518   173.29665480
 H     10   9   1     1.088250726089   111.61260463   244.79905164
 H     12  11  10     1.084997318322   118.90114040     0.44392692
 H     13  12  11     1.083356389695   120.22806227   179.67571313
 H     14  13  12     1.084202750660   120.29599904   180.06796114
 H     15  14  13     1.081527596825   119.58996509   180.01620268
 H     18  17  16     1.093533549853   111.16307172   298.20095495
 H     18  17  16     1.088045002961   106.00266603   179.33321132
 H     18  17  16     1.093850682994   111.11294845    60.38968907
 O      1   2   3     1.411572195588   112.70577660   189.99903537
 H      5   4   2     1.089945871626   110.13788235   299.67779458
 C      9   1   2     1.418374174457   164.70810515    55.67628516
 H     31   9   1     1.081977113367   117.49534005   208.83052449
 C     31   9   1     1.363913671867   120.56522346    30.45912251
 H     33  31   9     1.085971109503   119.43507213   356.26362349
 N     33  31   9     1.338622704533   126.48376269   175.30098096
 C     35  33  31     1.443950077444   120.66982760   169.43602167
 H     36  35  33     1.089756166693   109.58635470    17.95526987
 H     36  35  33     1.092280849038   110.03450091   137.59037921
 H     36  35  33     1.095993891481   111.36902796   257.77507616
 C     35  33  31     1.441084942737   120.47156430     2.48986224
 H     40  35  33     1.088947825369   109.09811191   191.26695640
 H     40  35  33     1.092606422071   110.27544267   310.53237990
 H     40  35  33     1.096865906629   111.67360145    71.03060415

---------------------------
INTERNAL COORDINATES (A.U.)
---------------------------
 C      0   0   0     0.000000000000     0.00000000     0.00000000
 C      1   0   0     2.876296481792     0.00000000     0.00000000
 O      2   1   0     2.280891651997   121.95582876     0.00000000
 O      2   1   3     2.493282939676   113.31159146   182.10796187
 C      4   2   1     2.707601556956   115.91069951   177.95411872
 H      1   2   3     2.068802572816   107.22183491    70.56809326
 H      5   4   2     2.053308242989   105.61195186   180.22856171
 H      5   4   2     2.059606464129   110.14223820    60.82825192
 C      1   2   3     4.382397550868   109.89821905   266.08643745
 C      9   1   2     2.828326591723    40.79791024    99.21352919
 C     10   9   1     2.851606620425   112.10005055   121.80858555
 C     11  10   9     2.622001711850   120.81343607   305.62241372
 C     12  11  10     2.622040806414   121.47714139   180.40974343
 C     13  12  11     2.618254927958   119.14990463   359.49867661
 C     14  13  12     2.622834775666   120.56196808     0.02489928
 C     15  14  13     2.630692796389   119.93717791     0.27381356
 O     16  15  14     2.555606627859   123.44681377   180.38006487
 C     17  16  15     2.672854746130   118.19653553     1.40435101
 N      9   1   2     2.464789862809    70.77553275   262.81366844
 O     19   9   1     2.348330450010   132.71568518   173.29665480
 H     10   9   1     2.056495837349   111.61260463   244.79905164
 H     12  11  10     2.050347787668   118.90114040     0.44392692
 H     13  12  11     2.047246881957   120.22806227   179.67571313
 H     14  13  12     2.048846272392   120.29599904   180.06796114
 H     15  14  13     2.043790964277   119.58996509   180.01620268
 H     18  17  16     2.066478927477   111.16307172   298.20095495
 H     18  17  16     2.056107076977   106.00266603   179.33321132
 H     18  17  16     2.067078222261   111.11294845    60.38968907
 O      1   2   3     2.667484867920   112.70577660   189.99903537
 H      5   4   2     2.059699198172   110.13788235   299.67779458
 C      9   1   2     2.680338745150   164.70810515    55.67628516
 H     31   9   1     2.044640427434   117.49534005   208.83052449
 C     31   9   1     2.577423310140   120.56522346    30.45912251
 H     33  31   9     2.052187986312   119.43507213   356.26362349
 N     33  31   9     2.529630308216   126.48376269   175.30098096
 C     35  33  31     2.728670197423   120.66982760   169.43602167
 H     36  35  33     2.059340707802   109.58635470    17.95526987
 H     36  35  33     2.064111666010   110.03450091   137.59037921
 H     36  35  33     2.071128299350   111.36902796   257.77507616
 C     35  33  31     2.723255877490   120.47156430     2.48986224
 H     40  35  33     2.057813164077   109.09811191   191.26695640
 H     40  35  33     2.064726909877   110.27544267   310.53237990
 H     40  35  33     2.072776169163   111.67360145    71.03060415

---------------------
BASIS SET INFORMATION
---------------------
There are 4 groups of distinct atoms

 Group   1 Type C   : 11s6p2d1f contracted to 5s3p2d1f pattern {62111/411/11/1}
 Group   2 Type O   : 11s6p2d1f contracted to 5s3p2d1f pattern {62111/411/11/1}
 Group   3 Type H   : 5s1p contracted to 3s1p pattern {311/1}
 Group   4 Type N   : 11s6p2d1f contracted to 5s3p2d1f pattern {62111/411/11/1}

Atom   0C    basis set group =>   1
Atom   1C    basis set group =>   1
Atom   2O    basis set group =>   2
Atom   3O    basis set group =>   2
Atom   4C    basis set group =>   1
Atom   5H    basis set group =>   3
Atom   6H    basis set group =>   3
Atom   7H    basis set group =>   3
Atom   8C    basis set group =>   1
Atom   9C    basis set group =>   1
Atom  10C    basis set group =>   1
Atom  11C    basis set group =>   1
Atom  12C    basis set group =>   1
Atom  13C    basis set group =>   1
Atom  14C    basis set group =>   1
Atom  15C    basis set group =>   1
Atom  16O    basis set group =>   2
Atom  17C    basis set group =>   1
Atom  18N    basis set group =>   4
Atom  19O    basis set group =>   2
Atom  20H    basis set group =>   3
Atom  21H    basis set group =>   3
Atom  22H    basis set group =>   3
Atom  23H    basis set group =>   3
Atom  24H    basis set group =>   3
Atom  25H    basis set group =>   3
Atom  26H    basis set group =>   3
Atom  27H    basis set group =>   3
Atom  28O    basis set group =>   2
Atom  29H    basis set group =>   3
Atom  30C    basis set group =>   1
Atom  31H    basis set group =>   3
Atom  32C    basis set group =>   1
Atom  33H    basis set group =>   3
Atom  34N    basis set group =>   4
Atom  35C    basis set group =>   1
Atom  36H    basis set group =>   3
Atom  37H    basis set group =>   3
Atom  38H    basis set group =>   3
Atom  39C    basis set group =>   1
Atom  40H    basis set group =>   3
Atom  41H    basis set group =>   3
Atom  42H    basis set group =>   3
---------------------------------
AUXILIARY/J BASIS SET INFORMATION
---------------------------------
There are 4 groups of distinct atoms

 Group   1 Type C   : 12s5p4d2f1g contracted to 6s4p3d1f1g pattern {711111/2111/211/2/1}
 Group   2 Type O   : 12s5p4d2f1g contracted to 6s4p3d1f1g pattern {711111/2111/211/2/1}
 Group   3 Type H   : 5s2p1d contracted to 3s1p1d pattern {311/2/1}
 Group   4 Type N   : 12s5p4d2f1g contracted to 6s4p3d1f1g pattern {711111/2111/211/2/1}

Atom   0C    basis set group =>   1
Atom   1C    basis set group =>   1
Atom   2O    basis set group =>   2
Atom   3O    basis set group =>   2
Atom   4C    basis set group =>   1
Atom   5H    basis set group =>   3
Atom   6H    basis set group =>   3
Atom   7H    basis set group =>   3
Atom   8C    basis set group =>   1
Atom   9C    basis set group =>   1
Atom  10C    basis set group =>   1
Atom  11C    basis set group =>   1
Atom  12C    basis set group =>   1
Atom  13C    basis set group =>   1
Atom  14C    basis set group =>   1
Atom  15C    basis set group =>   1
Atom  16O    basis set group =>   2
Atom  17C    basis set group =>   1
Atom  18N    basis set group =>   4
Atom  19O    basis set group =>   2
Atom  20H    basis set group =>   3
Atom  21H    basis set group =>   3
Atom  22H    basis set group =>   3
Atom  23H    basis set group =>   3
Atom  24H    basis set group =>   3
Atom  25H    basis set group =>   3
Atom  26H    basis set group =>   3
Atom  27H    basis set group =>   3
Atom  28O    basis set group =>   2
Atom  29H    basis set group =>   3
Atom  30C    basis set group =>   1
Atom  31H    basis set group =>   3
Atom  32C    basis set group =>   1
Atom  33H    basis set group =>   3
Atom  34N    basis set group =>   4
Atom  35C    basis set group =>   1
Atom  36H    basis set group =>   3
Atom  37H    basis set group =>   3
Atom  38H    basis set group =>   3
Atom  39C    basis set group =>   1
Atom  40H    basis set group =>   3
Atom  41H    basis set group =>   3
Atom  42H    basis set group =>   3


           ************************************************************
           *        Program running with 24 parallel MPI-processes    *
           *              working on a common directory               *
           ************************************************************
------------------------------------------------------------------------------
                           ORCA GTO INTEGRAL CALCULATION
                           -- RI-GTO INTEGRALS CHOSEN --
------------------------------------------------------------------------------
------------------------------------------------------------------------------
                   ___                                                        
                  /   \      - P O W E R E D   B Y -                         
                 /     \                                                     
                 |  |  |   _    _      __       _____    __    __             
                 |  |  |  | |  | |    /  \     |  _  \  |  |  /  |          
                  \  \/   | |  | |   /    \    | | | |  |  | /  /          
                 / \  \   | |__| |  /  /\  \   | |_| |  |  |/  /          
                |  |  |   |  __  | /  /__\  \  |    /   |      \           
                |  |  |   | |  | | |   __   |  |    \   |  |\   \          
                \     /   | |  | | |  |  |  |  | |\  \  |  | \   \       
                 \___/    |_|  |_| |__|  |__|  |_| \__\ |__|  \__/        
                                                                              
                      - O R C A' S   B I G   F R I E N D -                    
                                      &                                       
                       - I N T E G R A L  F E E D E R -                       
                                                                              
 v1 FN, 2020, v2 2021                                                         
------------------------------------------------------------------------------


Reading SHARK input file 4_CHCHNMe2_free/4_CHCHNMe2_free.SHARKINP.tmp ... ok
----------------------
SHARK INTEGRAL PACKAGE
----------------------

Number of atoms                             ...     43
Number of basis functions                   ...    833
Number of shells                            ...    333
Maximum angular momentum                    ...      3
Integral batch strategy                     ... SHARK/LIBINT Hybrid
RI-J (if used) integral strategy            ... SPLIT-RIJ (Revised 2003 algorithm where possible)
Printlevel                                  ...      1
Contraction scheme used                     ... SEGMENTED contraction
Coulomb Range Separation                    ... NOT USED
Exchange Range Separation                   ... NOT USED
Finite Nucleus Model                        ... NOT USED
Auxiliary Coulomb fitting basis             ... AVAILABLE
   # of basis functions in Aux-J            ...   1347
   # of shells in Aux-J                     ...    445
   Maximum angular momentum in Aux-J        ...      4
Auxiliary J/K fitting basis                 ... NOT available
Auxiliary Correlation fitting basis         ... NOT available
Auxiliary 'external' fitting basis          ... NOT available
Integral threshold                          ...     2.500000e-11
Primitive cut-off                           ...     2.500000e-12
Primitive pair pre-selection threshold      ...     2.500000e-12

Calculating pre-screening integrals         ... done (  0.1 sec) Dimension = 333
Organizing shell pair data                  ... done (  0.5 sec)
Shell pair information
Total number of shell pairs                 ...     55611
Shell pairs after pre-screening             ...     38774
Total number of primitive shell pairs       ...    169056
Primitive shell pairs kept                  ...     77768
          la=0 lb=0:  10400 shell pairs
          la=1 lb=0:  11300 shell pairs
          la=1 lb=1:   3094 shell pairs
          la=2 lb=0:   5419 shell pairs
          la=2 lb=1:   3001 shell pairs
          la=2 lb=2:    757 shell pairs
          la=3 lb=0:   2541 shell pairs
          la=3 lb=1:   1414 shell pairs
          la=3 lb=2:    679 shell pairs
          la=3 lb=3:    169 shell pairs

Calculating one electron integrals          ... done (  0.2 sec)
Calculating RI/J V-Matrix + Cholesky decomp.... done (  0.4 sec)
Calculating Nuclear repulsion               ... done (  0.0 sec) ENN=   2041.704841073102 Eh

SHARK setup successfully completed in   2.2 seconds

Maximum memory used throughout the entire GTOINT-calculation: 58.8 MB


           ************************************************************
           *        Program running with 24 parallel MPI-processes    *
           *              working on a common directory               *
           ************************************************************
-------------------------------------------------------------------------------
                                 ORCA SCF
-------------------------------------------------------------------------------

------------
SCF SETTINGS
------------
Hamiltonian:
 Density Functional     Method          .... DFT(GTOs)
 Exchange Functional    Exchange        .... PBE
   PBE kappa parameter   XKappa         ....  0.804000
   PBE mue parameter    XMuePBE         ....  0.219520
 Correlation Functional Correlation     .... PBE
   PBE beta parameter  CBetaPBE         ....  0.066725
 LDA part of GGA corr.  LDAOpt          .... PW91-LDA
 Gradients option       PostSCFGGA      .... off
 Hybrid DFT is turned on
   Fraction HF Exchange ScalHFX         ....  0.250000
   Scaling of DF-GGA-X  ScalDFX         ....  0.750000
   Scaling of DF-GGA-C  ScalDFC         ....  1.000000
   Scaling of DF-LDA-C  ScalLDAC        ....  1.000000
   Perturbative correction              ....  0.000000
   Density functional embedding theory  .... OFF
   NL short-range parameter             ....  6.900000
 RI-approximation to the Coulomb term is turned on
   Number of AuxJ basis functions       .... 1347
   RIJ-COSX (HFX calculated with COS-X)).... on


General Settings:
 Integral files         IntName         .... 4_CHCHNMe2_free/4_CHCHNMe2_free
 Hartree-Fock type      HFTyp           .... RHF
 Total Charge           Charge          ....    0
 Multiplicity           Mult            ....    1
 Number of Electrons    NEL             ....  170
 Basis Dimension        Dim             ....  833
 Nuclear Repulsion      ENuc            ....   2041.7048410731 Eh

Convergence Acceleration:
 DIIS                   CNVDIIS         .... on
   Start iteration      DIISMaxIt       ....    12
   Startup error        DIISStart       ....  0.200000
   # of expansion vecs  DIISMaxEq       ....     5
   Bias factor          DIISBfac        ....   1.050
   Max. coefficient     DIISMaxC        ....  10.000
 Trust-Rad. Augm. Hess. CNVTRAH         .... auto
   Auto Start mean grad. ratio tolernc. ....  1.125000
   Auto Start start iteration           ....    20
   Auto Start num. interpolation iter.  ....    10
   Max. Number of Micro iterations      ....    16
   Max. Number of Macro iterations      .... Maxiter - #DIIS iter
   Number of Davidson start vectors     ....     2
   Converg. threshold I  (grad. norm)   ....   1.000e-05
   Converg. threshold II (energy diff.) ....   1.000e-08
   Grad. Scal. Fac. for Micro threshold ....   0.100
   Minimum threshold for Micro iter.    ....   0.010
   NR start threshold (gradient norm)   ....   0.001
   Initial trust radius                 ....   0.400
   Minimum AH scaling param. (alpha)    ....   1.000
   Maximum AH scaling param. (alpha)    .... 1000.000
   Orbital update algorithm             .... Taylor
   White noise on init. David. guess    .... on
   Maximum white noise                  ....   0.010
   Quad. conv. algorithm                .... NR
 SOSCF                  CNVSOSCF        .... on
   Start iteration      SOSCFMaxIt      ....   150
   Startup grad/error   SOSCFStart      ....  0.003300
 Level Shifting         CNVShift        .... on
   Level shift para.    LevelShift      ....    0.2500
   Turn off err/grad.   ShiftErr        ....    0.0010
 Zerner damping         CNVZerner       .... off
 Static damping         CNVDamp         .... on
   Fraction old density DampFac         ....    0.7000
   Max. Damping (<1)    DampMax         ....    0.9800
   Min. Damping (>=0)   DampMin         ....    0.0000
   Turn off err/grad.   DampErr         ....    0.1000
 Fernandez-Rico         CNVRico         .... off

SCF Procedure:
 Maximum # iterations   MaxIter         ....   800
 SCF integral mode      SCFMode         .... Direct
   Integral package                     .... SHARK and LIBINT hybrid scheme
 Reset frequency        DirectResetFreq ....    20
 Integral Threshold     Thresh          ....  2.500e-11 Eh
 Primitive CutOff       TCut            ....  2.500e-12 Eh

Convergence Tolerance:
 Convergence Check Mode ConvCheckMode   .... Total+1el-Energy
 Convergence forced     ConvForced      .... 0
 Energy Change          TolE            ....  1.000e-08 Eh
 1-El. energy change                    ....  1.000e-05 Eh
 Orbital Gradient       TolG            ....  1.000e-05
 Orbital Rotation angle TolX            ....  1.000e-05
 DIIS Error             TolErr          ....  5.000e-07


Diagonalization of the overlap matrix:
Smallest eigenvalue                        ... 6.094e-06
Time for diagonalization                   ...    0.479 sec
Threshold for overlap eigenvalues          ... 1.000e-08
Number of eigenvalues below threshold      ... 0
Time for construction of square roots      ...    0.130 sec
Total time needed                          ...    0.614 sec

Time for model grid setup =    0.387 sec

------------------------------
INITIAL GUESS: MODEL POTENTIAL
------------------------------
Loading Hartree-Fock densities                     ... done
Calculating cut-offs                               ... done
Initializing the effective Hamiltonian             ... done
Setting up the integral package (SHARK)            ... done
Starting the Coulomb interaction                   ... done (   0.4 sec)
Reading the grid                                   ... done
Mapping shells                                     ... done
Starting the XC term evaluation                    ... done (   0.2 sec)
  promolecular density results
     # of electrons  =    169.994162820
     EX              =   -141.706821480
     EC              =     -5.742377488
     EX+EC           =   -147.449198968
Transforming the Hamiltonian                       ... done (   0.1 sec)
Diagonalizing the Hamiltonian                      ... done (   0.2 sec)
Back transforming the eigenvectors                 ... done (   0.0 sec)
Now organizing SCF variables                       ... done
                      ------------------
                      INITIAL GUESS DONE (   1.6 sec)
                      ------------------
-------------------
DFT GRID GENERATION
-------------------

General Integration Accuracy     IntAcc      ... 4.388
Radial Grid Type                 RadialGrid  ... OptM3 with GC (2021)
Angular Grid (max. ang.)         AngularGrid ... 4 (Lebedev-302)
Angular grid pruning method      GridPruning ... 4 (adaptive)
Weight generation scheme         WeightScheme... Becke
Basis function cutoff            BFCut       ... 1.0000e-11
Integration weight cutoff        WCut        ... 1.0000e-14
Angular grids for H and He will be reduced by one unit
Partially contracted basis set               ... off
Rotationally invariant grid construction     ... off

Total number of grid points                  ...   201289
Total number of batches                      ...     3168
Average number of points per batch           ...       63
Average number of grid points per atom       ...     4681
Time for grid setup =    1.394 sec

--------------------
COSX GRID GENERATION
--------------------

GRIDX 1
-------
General Integration Accuracy     IntAcc      ... 3.816
Radial Grid Type                 RadialGrid  ... OptM3 with GC (2021)
Angular Grid (max. ang.)         AngularGrid ... 1 (Lebedev-50)
Angular grid pruning method      GridPruning ... 4 (adaptive)
Weight generation scheme         WeightScheme... Becke
Basis function cutoff            BFCut       ... 1.0000e-11
Integration weight cutoff        WCut        ... 1.0000e-14
Angular grids for H and He will be reduced by one unit
Partially contracted basis set               ... on
Rotationally invariant grid construction     ... off

Total number of grid points                  ...    25564
Total number of batches                      ...      421
Average number of points per batch           ...       60
Average number of grid points per atom       ...      595
UseSFitting                                  ... on

GRIDX 2
-------
General Integration Accuracy     IntAcc      ... 4.020
Radial Grid Type                 RadialGrid  ... OptM3 with GC (2021)
Angular Grid (max. ang.)         AngularGrid ... 2 (Lebedev-110)
Angular grid pruning method      GridPruning ... 4 (adaptive)
Weight generation scheme         WeightScheme... Becke
Basis function cutoff            BFCut       ... 1.0000e-11
Integration weight cutoff        WCut        ... 1.0000e-14
Angular grids for H and He will be reduced by one unit
Partially contracted basis set               ... on
Rotationally invariant grid construction     ... off

Total number of grid points                  ...    55047
Total number of batches                      ...      883
Average number of points per batch           ...       62
Average number of grid points per atom       ...     1280
UseSFitting                                  ... on

GRIDX 3
-------
General Integration Accuracy     IntAcc      ... 4.338
Radial Grid Type                 RadialGrid  ... OptM3 with GC (2021)
Angular Grid (max. ang.)         AngularGrid ... 3 (Lebedev-194)
Angular grid pruning method      GridPruning ... 4 (adaptive)
Weight generation scheme         WeightScheme... Becke
Basis function cutoff            BFCut       ... 1.0000e-11
Integration weight cutoff        WCut        ... 1.0000e-14
Angular grids for H and He will be reduced by one unit
Partially contracted basis set               ... on
Rotationally invariant grid construction     ... off

Total number of grid points                  ...   120293
Total number of batches                      ...     1899
Average number of points per batch           ...       63
Average number of grid points per atom       ...     2798
UseSFitting                                  ... on

Time for X-Grid setup             =    2.337 sec


--------------------
CPCM SOLVATION MODEL
--------------------
CPCM parameters:
  Epsilon                                         ...      47.2000
  Refrac                                          ...       1.4790
  Rsolv                                           ...       1.3000
  Surface type                                    ... GAUSSIAN VDW
  Epsilon function type                           ...         CPCM
Radii:
 Radius for C  used is    3.8550 Bohr (=   2.0400 Ang.)
 Radius for O  used is    3.4469 Bohr (=   1.8240 Ang.)
 Radius for H  used is    2.4944 Bohr (=   1.3200 Ang.)
 Radius for N  used is    3.5149 Bohr (=   1.8600 Ang.)
Calculating surface                               ...        done! (  0.0s)
GEPOL surface points                              ...         2243
GEPOL Volume                                      ...    2528.2763
GEPOL Surface-area                                ...    1309.8363
Calculating surface distance matrix               ...        done! (  0.1s)
Performing Cholesky decomposition & store         ...        done! (  0.4s)
Overall time for CPCM initialization              ...                 0.5s
--------------
SCF ITERATIONS
--------------
ITER       Energy         Delta-E        Max-DP      RMS-DP      [F,P]     Damp
               ***  Starting incremental Fock matrix formation  ***
  0  -1105.9171858730   0.000000000000 0.20196690  0.00084601  0.2732324 0.7000
  1  -1106.1505650371  -0.233379164144 0.16642275  0.00076748  0.1098656 0.7000
                               ***Turning on DIIS***
  2  -1106.2453763903  -0.094811353199 0.19899706  0.00143443  0.0347413 0.0000
  3  -1106.4000106194  -0.154634229062 0.12781872  0.00054530  0.0519871 0.0000
  4  -1106.4287918432  -0.028781223792 0.02307249  0.00019599  0.0156326 0.0000
  5  -1106.4306958306  -0.001903987382 0.01306823  0.00007733  0.0068611 0.0000
                      *** Initiating the SOSCF procedure ***
                           *** Shutting down DIIS ***
                      *** Re-Reading the Fockian *** 
                      *** Removing any level shift *** 
ITER      Energy       Delta-E        Grad      Rot      Max-DP    RMS-DP
  6  -1106.43085574  -0.0001599053  0.000293  0.000293  0.002058  0.000020
               *** Restarting incremental Fock matrix formation ***
  7  -1106.43088927  -0.0000335336  0.000243  0.001461  0.003583  0.000031
  8  -1106.43088765   0.0000016160  0.000421  0.000845  0.001461  0.000010
  9  -1106.43089262  -0.0000049650  0.000047  0.000154  0.000749  0.000006
 10  -1106.43089246   0.0000001617  0.000057  0.000072  0.000616  0.000002
 11  -1106.43089275  -0.0000002947  0.000006  0.000021  0.000247  0.000002
 12  -1106.43089277  -0.0000000162  0.000007  0.000011  0.000133  0.000001
                  ***Gradient check signals convergence***
              ***Rediagonalizing the Fockian in SOSCF/NRSCF***

               *****************************************************
               *                     SUCCESS                       *
               *           SCF CONVERGED AFTER  13 CYCLES          *
               *****************************************************

Old exchange energy                            =    -36.128240882 Eh
New exchange energy                            =    -36.128248153 Eh
Exchange energy change after final integration =     -0.000007271 Eh
Total energy after final integration           =  -1106.430900013 Eh
Final COS-X integration done in                =    14.559 sec

----------------
TOTAL SCF ENERGY
----------------

Total Energy       :        -1106.43090001 Eh          -30107.51543 eV

Components:
Nuclear Repulsion  :         2041.70484107 Eh           55557.61322 eV
Electronic Energy  :        -3148.13574109 Eh          -85665.12865 eV
One Electron Energy:        -5567.87380993 Eh         -151509.54896 eV
Two Electron Energy:         2419.73806884 Eh           65844.42032 eV
Max COSX asymmetry :            0.00000186 Eh               0.00005 eV
CPCM Dielectric    :           -0.03759284 Eh              -1.02295 eV

Virial components:
Potential Energy   :        -2207.98439130 Eh          -60082.30981 eV
Kinetic Energy     :         1101.55349128 Eh           29974.79439 eV
Virial Ratio       :            2.00442775


DFT components:
N(Alpha)           :       85.000018206331 electrons
N(Beta)            :       85.000018206331 electrons
N(Total)           :      170.000036412662 electrons
E(X)               :     -108.188585021612 Eh       
E(C)               :       -5.737212810316 Eh       
E(XC)              :     -113.925797831928 Eh       
DFET-embed. en.    :        0.000000000000 Eh       
CPCM Solvation Model Properties:
Surface-charge          :           -0.03190354
Charge-correction       :           -0.00043503 Eh              -0.01184 eV
Free-energy (cav+disp)  :  This term is not implemented in the current solvation scheme

---------------
SCF CONVERGENCE
---------------

  Last Energy change         ...    2.4860e-08  Tolerance :   1.0000e-08
  Last MAX-Density change    ...    2.2204e-15  Tolerance :   1.0000e-07
  Last RMS-Density change    ...    1.3693e-17  Tolerance :   5.0000e-09
  Last Orbital Gradient      ...    1.7749e-06  Tolerance :   1.0000e-05
  Last Orbital Rotation      ...    4.1225e-06  Tolerance :   1.0000e-05

             **** THE GBW FILE WAS UPDATED (4_CHCHNMe2_free/4_CHCHNMe2_free.gbw) ****
             **** DENSITY 4_CHCHNMe2_free/4_CHCHNMe2_free.scfp WAS UPDATED ****
             **** ENERGY FILE WAS UPDATED (4_CHCHNMe2_free/4_CHCHNMe2_free.en.tmp) ****
             **** THE GBW FILE WAS UPDATED (4_CHCHNMe2_free/4_CHCHNMe2_free.gbw) ****
             **** DENSITY 4_CHCHNMe2_free/4_CHCHNMe2_free.scfp WAS UPDATED ****
----------------
ORBITAL ENERGIES
----------------

  NO   OCC          E(Eh)            E(eV) 
   0   2.0000     -19.270340      -524.3726 
   1   2.0000     -19.269284      -524.3439 
   2   2.0000     -19.246788      -523.7317 
   3   2.0000     -19.207442      -522.6611 
   4   2.0000     -19.196604      -522.3662 
   5   2.0000     -14.552323      -395.9888 
   6   2.0000     -14.423289      -392.4776 
   7   2.0000     -10.362426      -281.9759 
   8   2.0000     -10.307498      -280.4813 
   9   2.0000     -10.292097      -280.0622 
  10   2.0000     -10.279429      -279.7175 
  11   2.0000     -10.272349      -279.5248 
  12   2.0000     -10.269038      -279.4347 
  13   2.0000     -10.267142      -279.3831 
  14   2.0000     -10.259436      -279.1735 
  15   2.0000     -10.248297      -278.8703 
  16   2.0000     -10.246457      -278.8203 
  17   2.0000     -10.240596      -278.6608 
  18   2.0000     -10.230195      -278.3777 
  19   2.0000     -10.229818      -278.3675 
  20   2.0000     -10.226499      -278.2772 
  21   2.0000     -10.222050      -278.1561 
  22   2.0000     -10.217423      -278.0302 
  23   2.0000      -1.203996       -32.7624 
  24   2.0000      -1.158396       -31.5215 
  25   2.0000      -1.109246       -30.1841 
  26   2.0000      -1.078450       -29.3461 
  27   2.0000      -1.065074       -28.9821 
  28   2.0000      -0.996002       -27.1026 
  29   2.0000      -0.912354       -24.8264 
  30   2.0000      -0.887153       -24.1407 
  31   2.0000      -0.833149       -22.6711 
  32   2.0000      -0.799306       -21.7502 
  33   2.0000      -0.789322       -21.4785 
  34   2.0000      -0.778596       -21.1867 
  35   2.0000      -0.754079       -20.5195 
  36   2.0000      -0.751323       -20.4445 
  37   2.0000      -0.720536       -19.6068 
  38   2.0000      -0.708063       -19.2674 
  39   2.0000      -0.691810       -18.8251 
  40   2.0000      -0.630293       -17.1511 
  41   2.0000      -0.627483       -17.0747 
  42   2.0000      -0.612974       -16.6799 
  43   2.0000      -0.594037       -16.1646 
  44   2.0000      -0.580658       -15.8005 
  45   2.0000      -0.567952       -15.4548 
  46   2.0000      -0.553935       -15.0733 
  47   2.0000      -0.542767       -14.7694 
  48   2.0000      -0.531423       -14.4607 
  49   2.0000      -0.517950       -14.0941 
  50   2.0000      -0.514052       -13.9881 
  51   2.0000      -0.510780       -13.8990 
  52   2.0000      -0.502891       -13.6844 
  53   2.0000      -0.497127       -13.5275 
  54   2.0000      -0.493572       -13.4308 
  55   2.0000      -0.489297       -13.3145 
  56   2.0000      -0.487690       -13.2707 
  57   2.0000      -0.471385       -12.8270 
  58   2.0000      -0.466454       -12.6929 
  59   2.0000      -0.458249       -12.4696 
  60   2.0000      -0.449511       -12.2318 
  61   2.0000      -0.433641       -11.8000 
  62   2.0000      -0.431549       -11.7431 
  63   2.0000      -0.422919       -11.5082 
  64   2.0000      -0.415587       -11.3087 
  65   2.0000      -0.414299       -11.2736 
  66   2.0000      -0.409078       -11.1316 
  67   2.0000      -0.403809       -10.9882 
  68   2.0000      -0.395622       -10.7654 
  69   2.0000      -0.392414       -10.6781 
  70   2.0000      -0.386920       -10.5286 
  71   2.0000      -0.380299       -10.3485 
  72   2.0000      -0.377020       -10.2592 
  73   2.0000      -0.365466        -9.9448 
  74   2.0000      -0.355456        -9.6725 
  75   2.0000      -0.347890        -9.4666 
  76   2.0000      -0.343406        -9.3446 
  77   2.0000      -0.339999        -9.2519 
  78   2.0000      -0.334209        -9.0943 
  79   2.0000      -0.303428        -8.2567 
  80   2.0000      -0.296903        -8.0791 
  81   2.0000      -0.278221        -7.5708 
  82   2.0000      -0.265684        -7.2296 
  83   2.0000      -0.241576        -6.5736 
  84   2.0000      -0.193120        -5.2551 
  85   0.0000      -0.026973        -0.7340 
  86   0.0000      -0.018874        -0.5136 
  87   0.0000      -0.002090        -0.0569 
  88   0.0000       0.004373         0.1190 
  89   0.0000       0.043192         1.1753 
  90   0.0000       0.057679         1.5695 
  91   0.0000       0.059628         1.6225 
  92   0.0000       0.061956         1.6859 
  93   0.0000       0.072086         1.9616 
  94   0.0000       0.074406         2.0247 
  95   0.0000       0.082075         2.2334 
  96   0.0000       0.088081         2.3968 
  97   0.0000       0.089249         2.4286 
  98   0.0000       0.092622         2.5204 
  99   0.0000       0.103142         2.8066 
 100   0.0000       0.107050         2.9130 
 101   0.0000       0.109236         2.9725 
 102   0.0000       0.113565         3.0903 
 103   0.0000       0.116948         3.1823 
 104   0.0000       0.123731         3.3669 
 105   0.0000       0.128332         3.4921 
 106   0.0000       0.130844         3.5604 
 107   0.0000       0.133453         3.6314 
 108   0.0000       0.135756         3.6941 
 109   0.0000       0.140293         3.8176 
 110   0.0000       0.142431         3.8758 
 111   0.0000       0.143618         3.9080 
 112   0.0000       0.144956         3.9444 
 113   0.0000       0.149163         4.0589 
 114   0.0000       0.154460         4.2031 
 115   0.0000       0.161187         4.3861 
 116   0.0000       0.168938         4.5970 
 117   0.0000       0.174471         4.7476 
 118   0.0000       0.190338         5.1794 
 119   0.0000       0.196134         5.3371 
 120   0.0000       0.204847         5.5742 
 121   0.0000       0.208064         5.6617 
 122   0.0000       0.209298         5.6953 
 123   0.0000       0.213712         5.8154 
 124   0.0000       0.216318         5.8863 
 125   0.0000       0.219686         5.9780 
 126   0.0000       0.226401         6.1607 
 127   0.0000       0.230402         6.2696 
 128   0.0000       0.232313         6.3216 
 129   0.0000       0.234411         6.3787 
 130   0.0000       0.244658         6.6575 
 131   0.0000       0.246937         6.7195 
 132   0.0000       0.249989         6.8025 
 133   0.0000       0.253725         6.9042 
 134   0.0000       0.260843         7.0979 
 135   0.0000       0.263984         7.1834 
 136   0.0000       0.270207         7.3527 
 137   0.0000       0.274375         7.4661 
 138   0.0000       0.280870         7.6429 
 139   0.0000       0.287280         7.8173 
 140   0.0000       0.294863         8.0236 
 141   0.0000       0.295822         8.0497 
 142   0.0000       0.298500         8.1226 
 143   0.0000       0.305201         8.3049 
 144   0.0000       0.307560         8.3691 
 145   0.0000       0.313984         8.5439 
 146   0.0000       0.318379         8.6635 
 147   0.0000       0.323472         8.8021 
 148   0.0000       0.326163         8.8753 
 149   0.0000       0.329562         8.9678 
 150   0.0000       0.334956         9.1146 
 151   0.0000       0.344285         9.3685 
 152   0.0000       0.345964         9.4142 
 153   0.0000       0.353480         9.6187 
 154   0.0000       0.357904         9.7391 
 155   0.0000       0.362103         9.8533 
 156   0.0000       0.364866         9.9285 
 157   0.0000       0.372373        10.1328 
 158   0.0000       0.380655        10.3582 
 159   0.0000       0.382454        10.4071 
 160   0.0000       0.386888        10.5277 
 161   0.0000       0.391698        10.6587 
 162   0.0000       0.396289        10.7836 
 163   0.0000       0.400251        10.8914 
 164   0.0000       0.404503        11.0071 
 165   0.0000       0.406129        11.0513 
 166   0.0000       0.414531        11.2800 
 167   0.0000       0.414899        11.2900 
 168   0.0000       0.422442        11.4952 
 169   0.0000       0.425264        11.5720 
 170   0.0000       0.428384        11.6569 
 171   0.0000       0.432772        11.7763 
 172   0.0000       0.433533        11.7970 
 173   0.0000       0.438740        11.9387 
 174   0.0000       0.443190        12.0598 
 175   0.0000       0.448043        12.1919 
 176   0.0000       0.455100        12.3839 
 177   0.0000       0.456629        12.4255 
 178   0.0000       0.460540        12.5319 
 179   0.0000       0.461468        12.5572 
 180   0.0000       0.465136        12.6570 
 181   0.0000       0.473189        12.8761 
 182   0.0000       0.473523        12.8852 
 183   0.0000       0.476099        12.9553 
 184   0.0000       0.477591        12.9959 
 185   0.0000       0.481142        13.0925 
 186   0.0000       0.485321        13.2063 
 187   0.0000       0.488363        13.2890 
 188   0.0000       0.490902        13.3581 
 189   0.0000       0.491889        13.3850 
 190   0.0000       0.497504        13.5378 
 191   0.0000       0.503274        13.6948 
 192   0.0000       0.511196        13.9104 
 193   0.0000       0.518585        14.1114 
 194   0.0000       0.520654        14.1677 
 195   0.0000       0.525191        14.2912 
 196   0.0000       0.527987        14.3672 
 197   0.0000       0.531729        14.4691 
 198   0.0000       0.534040        14.5320 
 199   0.0000       0.542099        14.7513 
 200   0.0000       0.545880        14.8542 
 201   0.0000       0.553623        15.0649 
 202   0.0000       0.558848        15.2070 
 203   0.0000       0.563641        15.3374 
 204   0.0000       0.567425        15.4404 
 205   0.0000       0.576593        15.6899 
 206   0.0000       0.581353        15.8194 
 207   0.0000       0.587594        15.9892 
 208   0.0000       0.593383        16.1468 
 209   0.0000       0.602579        16.3970 
 210   0.0000       0.605345        16.4723 
 211   0.0000       0.611920        16.6512 
 212   0.0000       0.616758        16.7828 
 213   0.0000       0.625058        17.0087 
 214   0.0000       0.636053        17.3079 
 215   0.0000       0.641992        17.4695 
 216   0.0000       0.651191        17.7198 
 217   0.0000       0.655500        17.8370 
 218   0.0000       0.659789        17.9538 
 219   0.0000       0.672774        18.3071 
 220   0.0000       0.675121        18.3710 
 221   0.0000       0.676995        18.4220 
 222   0.0000       0.682139        18.5619 
 223   0.0000       0.687473        18.7071 
 224   0.0000       0.690493        18.7893 
 225   0.0000       0.693454        18.8699 
 226   0.0000       0.703153        19.1338 
 227   0.0000       0.710589        19.3361 
 228   0.0000       0.711561        19.3626 
 229   0.0000       0.718148        19.5418 
 230   0.0000       0.724637        19.7184 
 231   0.0000       0.735022        20.0010 
 232   0.0000       0.738276        20.0895 
 233   0.0000       0.748256        20.3611 
 234   0.0000       0.758952        20.6521 
 235   0.0000       0.763054        20.7638 
 236   0.0000       0.766330        20.8529 
 237   0.0000       0.780107        21.2278 
 238   0.0000       0.786894        21.4125 
 239   0.0000       0.792067        21.5532 
 240   0.0000       0.795801        21.6549 
 241   0.0000       0.799443        21.7540 
 242   0.0000       0.803765        21.8716 
 243   0.0000       0.811245        22.0751 
 244   0.0000       0.818880        22.2829 
 245   0.0000       0.836938        22.7742 
 246   0.0000       0.842241        22.9185 
 247   0.0000       0.843924        22.9643 
 248   0.0000       0.852127        23.1875 
 249   0.0000       0.854718        23.2581 
 250   0.0000       0.861335        23.4381 
 251   0.0000       0.865701        23.5569 
 252   0.0000       0.872752        23.7488 
 253   0.0000       0.885562        24.0974 
 254   0.0000       0.893387        24.3103 
 255   0.0000       0.899498        24.4766 
 256   0.0000       0.902715        24.5641 
 257   0.0000       0.906769        24.6744 
 258   0.0000       0.913748        24.8643 
 259   0.0000       0.920681        25.0530 
 260   0.0000       0.924798        25.1650 
 261   0.0000       0.928210        25.2579 
 262   0.0000       0.940014        25.5791 
 263   0.0000       0.944567        25.7030 
 264   0.0000       0.957567        26.0567 
 265   0.0000       0.961319        26.1588 
 266   0.0000       0.973983        26.5034 
 267   0.0000       0.979170        26.6446 
 268   0.0000       0.984015        26.7764 
 269   0.0000       0.985252        26.8101 
 270   0.0000       1.002351        27.2754 
 271   0.0000       1.006017        27.3751 
 272   0.0000       1.015082        27.6218 
 273   0.0000       1.021555        27.7979 
 274   0.0000       1.034470        28.1494 
 275   0.0000       1.044202        28.4142 
 276   0.0000       1.050688        28.5907 
 277   0.0000       1.060996        28.8712 
 278   0.0000       1.063284        28.9334 
 279   0.0000       1.065736        29.0001 
 280   0.0000       1.073372        29.2079 
 281   0.0000       1.073811        29.2199 
 282   0.0000       1.087530        29.5932 
 283   0.0000       1.092892        29.7391 
 284   0.0000       1.104033        30.0423 
 285   0.0000       1.113468        30.2990 
 286   0.0000       1.114958        30.3395 
 287   0.0000       1.132467        30.8160 
 288   0.0000       1.135828        30.9075 
 289   0.0000       1.150616        31.3098 
 290   0.0000       1.152023        31.3481 
 291   0.0000       1.163466        31.6595 
 292   0.0000       1.169942        31.8357 
 293   0.0000       1.172671        31.9100 
 294   0.0000       1.178724        32.0747 
 295   0.0000       1.204830        32.7851 
 296   0.0000       1.208737        32.8914 
 297   0.0000       1.221080        33.2273 
 298   0.0000       1.228324        33.4244 
 299   0.0000       1.234902        33.6034 
 300   0.0000       1.235519        33.6202 
 301   0.0000       1.247798        33.9543 
 302   0.0000       1.254200        34.1285 
 303   0.0000       1.266434        34.4614 
 304   0.0000       1.284270        34.9468 
 305   0.0000       1.284771        34.9604 
 306   0.0000       1.296067        35.2678 
 307   0.0000       1.301698        35.4210 
 308   0.0000       1.304354        35.4933 
 309   0.0000       1.316125        35.8136 
 310   0.0000       1.320563        35.9343 
 311   0.0000       1.338152        36.4130 
 312   0.0000       1.352729        36.8096 
 313   0.0000       1.361931        37.0600 
 314   0.0000       1.374040        37.3895 
 315   0.0000       1.384482        37.6737 
 316   0.0000       1.391307        37.8594 
 317   0.0000       1.409328        38.3498 
 318   0.0000       1.409987        38.3677 
 319   0.0000       1.424471        38.7618 
 320   0.0000       1.435411        39.0595 
 321   0.0000       1.443199        39.2714 
 322   0.0000       1.450348        39.4660 
 323   0.0000       1.459390        39.7120 
 324   0.0000       1.463600        39.8266 
 325   0.0000       1.464396        39.8482 
 326   0.0000       1.478255        40.2254 
 327   0.0000       1.482512        40.3412 
 328   0.0000       1.489258        40.5248 
[...]
 19:    163.83   0.000207    1.05  0.000394  ( 0.013067 -0.013916 -0.005440)
 20:    180.25   0.000221    1.12  0.000382  (-0.002324  0.007165  0.018044)
 21:    180.37   0.001700    8.59  0.002942  (-0.049484  0.021818 -0.004112)
 22:    207.11   0.001092    5.52  0.001645  ( 0.008983 -0.038822 -0.007543)
 23:    235.12   0.000224    1.13  0.000298  ( 0.003826  0.016809  0.000636)
 24:    243.25   0.000482    2.44  0.000619  (-0.000226 -0.016832  0.018312)
 25:    255.66   0.001234    6.24  0.001506  ( 0.005454  0.035929 -0.013620)
 26:    274.83   0.003801   19.21  0.004316  ( 0.028978 -0.057888  0.011187)
 27:    284.33   0.001078    5.45  0.001183  (-0.000359 -0.025855  0.022679)
 28:    314.37   0.000661    3.34  0.000656  (-0.015848  0.007050 -0.018850)
 29:    324.43   0.000733    3.70  0.000705  (-0.015987  0.021188  0.000263)
 30:    337.50   0.006250   31.58  0.005779  (-0.040227 -0.060745 -0.021692)
 31:    354.45   0.000973    4.92  0.000857  (-0.013219 -0.022141 -0.013840)
 32:    410.43   0.001818    9.19  0.001382  (-0.011908 -0.005613 -0.034773)
 33:    445.88   0.001122    5.67  0.000785  (-0.006087  0.020337 -0.018290)
 34:    463.58   0.000208    1.05  0.000140  ( 0.000929 -0.010107 -0.006071)
 35:    491.84   0.002387   12.06  0.001515  (-0.036079  0.010468 -0.010170)
 36:    496.10   0.001912    9.66  0.001202  ( 0.010617 -0.032820  0.003552)
 37:    513.90   0.001629    8.23  0.000989  ( 0.015453 -0.027013  0.004574)
 38:    557.47   0.001544    7.80  0.000864  ( 0.026258 -0.012817 -0.003260)
 39:    562.07   0.002159   10.91  0.001199  ( 0.024968  0.012128  0.020689)
 40:    576.75   0.005786   29.24  0.003131  (-0.046406  0.025087 -0.018654)
 41:    597.38   0.000977    4.94  0.000510  ( 0.005049  0.005937 -0.021202)
 42:    638.62   0.000362    1.83  0.000177  (-0.008911 -0.008787  0.004523)
 43:    665.70   0.008262   41.75  0.003873  ( 0.000342 -0.055872 -0.027411)
 44:    715.18   0.007646   38.64  0.003336  (-0.045633  0.002379  0.035332)
 45:    733.18   0.003585   18.12  0.001526  ( 0.037699 -0.007347 -0.007108)
 46:    769.34   0.013624   68.85  0.005526  (-0.065301  0.034167  0.009731)
 47:    775.22   0.020796  105.09  0.008371  ( 0.057558 -0.071083  0.002367)
 48:    782.45   0.003736   18.88  0.001490  (-0.015567 -0.006912 -0.034637)
 49:    791.79   0.009743   49.24  0.003840  (-0.029262 -0.037584 -0.039639)
 50:    816.65   0.008307   41.98  0.003174  (-0.002607  0.027854  0.048905)
 51:    847.38   0.015986   80.79  0.005887  ( 0.041236 -0.064017 -0.009402)
 52:    877.54   0.000519    2.62  0.000185  ( 0.000975  0.013255 -0.002814)
 53:    889.42   0.004908   24.80  0.001722  ( 0.027969  0.025463 -0.017069)
 54:    911.15   0.008298   41.94  0.002842  (-0.003110 -0.047853  0.023291)
 55:    925.81   0.025830  130.53  0.008706  (-0.060407  0.066073  0.026301)
 56:    944.83   0.025360  128.16  0.008376  ( 0.081564 -0.037903 -0.016932)
 57:    966.29   0.000231    1.17  0.000075  ( 0.003601 -0.007795  0.001010)
 58:    982.85   0.015891   80.31  0.005046  (-0.037669 -0.000262 -0.060221)
 59:    995.13   0.000056    0.28  0.000018  (-0.000763  0.004115 -0.000038)
 60:   1028.79   0.003402   17.19  0.001032  ( 0.001410 -0.026536 -0.018048)
 61:   1061.70   0.015485   78.25  0.004551  (-0.015918 -0.045999 -0.046713)
 62:   1071.12   0.013756   69.52  0.004008  (-0.035331 -0.044298  0.028234)
 63:   1084.34   0.010282   51.96  0.002959  ( 0.003804  0.014802 -0.052208)
 64:   1088.11   0.003484   17.61  0.000999  (-0.025016  0.018509  0.005552)
 65:   1102.27   0.010895   55.06  0.003085  (-0.037141  0.010624  0.039903)
 66:   1117.79   0.002144   10.84  0.000599  (-0.003822 -0.011559  0.021223)
 67:   1128.34   0.062567  316.19  0.017304  ( 0.018736 -0.115616  0.059882)
 68:   1139.94   0.022408  113.24  0.006134  (-0.019532 -0.041385  0.063562)
 69:   1156.58   0.007245   36.61  0.001955  (-0.006497  0.040132 -0.017381)
 70:   1171.35   0.000187    0.94  0.000050  ( 0.003089 -0.004773  0.004171)
 71:   1171.38   0.000312    1.58  0.000083  ( 0.006314 -0.006568 -0.000443)
 72:   1175.08   0.001665    8.41  0.000442  (-0.010978 -0.013969  0.011247)
 73:   1197.36   0.000258    1.30  0.000067  ( 0.000248  0.007623 -0.002991)
 74:   1207.93   0.009174   46.36  0.002370  ( 0.019550  0.028495 -0.034291)
 75:   1211.16   0.015322   77.43  0.003948  ( 0.021788  0.038985 -0.044196)
 76:   1218.84   0.007014   35.45  0.001796  (-0.013898 -0.016672  0.036398)
 77:   1236.49   0.003812   19.26  0.000962  (-0.006587  0.004571  0.029963)
 78:   1252.46   0.005748   29.05  0.001432  ( 0.013876  0.034152  0.008556)
 79:   1285.93   0.091359  461.69  0.022170  ( 0.053376  0.079456 -0.114053)
 80:   1297.91   0.012706   64.21  0.003055  ( 0.017330  0.021330  0.047956)
 81:   1303.66   0.063316  319.97  0.015156  (-0.014696 -0.093312  0.078951)
 82:   1316.91   0.063473  320.77  0.015041  (-0.044276 -0.104021 -0.047541)
 83:   1323.10   0.041148  207.94  0.009705  (-0.064172 -0.074680 -0.003157)
 84:   1331.98   0.014227   71.89  0.003333  (-0.040534 -0.040866 -0.004475)
 85:   1360.79   0.012973   65.56  0.002975  ( 0.041084  0.035795  0.002422)
 86:   1387.58   0.005818   29.40  0.001308  ( 0.006192  0.033286 -0.012734)
 87:   1395.52   0.018137   91.66  0.004056  (-0.004981  0.042986 -0.046724)
 88:   1416.37   0.084150  425.26  0.018540  ( 0.044013 -0.117664  0.052520)
 89:   1439.39   0.004609   23.29  0.000999  ( 0.010348 -0.027911  0.010636)
 90:   1454.75   0.008276   41.82  0.001775  ( 0.016420 -0.037718  0.009111)
 91:   1458.08   0.003768   19.04  0.000806  ( 0.016906 -0.002046  0.022726)
 92:   1463.73   0.014117   71.34  0.003010  (-0.004108 -0.039055  0.038308)
 93:   1465.73   0.003882   19.62  0.000827  (-0.020068  0.018112 -0.009785)
 94:   1466.41   0.011642   58.83  0.002477  ( 0.005216  0.049154  0.005844)
 95:   1466.71   0.005444   27.51  0.001158  (-0.003182  0.010344 -0.032267)
 96:   1469.40   0.010445   52.78  0.002218  (-0.019640 -0.034658 -0.025125)
 97:   1472.62   0.003289   16.62  0.000697  ( 0.017537  0.015621 -0.012058)
 98:   1474.06   0.003036   15.34  0.000643  ( 0.020915 -0.014130 -0.002373)
 99:   1483.80   0.004611   23.30  0.000970  (-0.003595 -0.000725 -0.030923)
100:   1489.85   0.001400    7.08  0.000293  (-0.010779  0.010489 -0.008189)
101:   1498.18   0.012606   63.70  0.002626  (-0.002042  0.011499 -0.049893)
102:   1526.31   0.016260   82.17  0.003325  ( 0.050157  0.008668 -0.027086)
103:   1537.46   0.032718  165.34  0.006641  (-0.014337  0.008249 -0.079795)
104:   1649.42   0.010266   51.88  0.001942  ( 0.009587  0.029415 -0.031385)
105:   1663.38   0.008440   42.65  0.001583  (-0.003611 -0.021665 -0.033181)
106:   1673.08   0.298426  1508.13  0.055662  (-0.022427  0.207247 -0.110491)
107:   1733.12   0.064904  328.00  0.011687  ( 0.104630 -0.008951 -0.025670)
108:   1786.90   0.088318  446.32  0.015424  ( 0.083444  0.031872 -0.086285)
109:   3020.96   0.010177   51.43  0.001051  ( 0.030899  0.003258 -0.009267)
110:   3027.74   0.031832  160.86  0.003281  (-0.023086  0.036346 -0.037773)
111:   3037.68   0.012398   62.66  0.001274  (-0.014425 -0.024421  0.021662)
112:   3075.02   0.005317   26.87  0.000540  (-0.004718 -0.015838 -0.016323)
113:   3093.05   0.010047   50.77  0.001014  ( 0.006955  0.020150  0.023648)
114:   3097.18   0.003265   16.50  0.000329  ( 0.008165  0.015134  0.005769)
115:   3109.58   0.007309   36.94  0.000734  (-0.021563  0.015586  0.005067)
116:   3116.51   0.001068    5.40  0.000107  ( 0.006778 -0.004587 -0.006320)
117:   3138.34   0.000373    1.88  0.000037  (-0.005733 -0.001201  0.001665)
118:   3150.52   0.002543   12.85  0.000252  (-0.014234  0.006180  0.003326)
119:   3157.49   0.002916   14.74  0.000288  (-0.005973  0.015246 -0.004479)
120:   3159.70   0.003292   16.64  0.000325  (-0.012402  0.011693 -0.005880)
121:   3166.85   0.003759   19.00  0.000370  (-0.006139 -0.003408 -0.017920)
122:   3186.81   0.000059    0.30  0.000006  (-0.001073  0.001323 -0.001699)
123:   3187.05   0.000674    3.41  0.000066  (-0.006695 -0.004559 -0.000645)
124:   3194.21   0.001977    9.99  0.000193  (-0.009661 -0.008579  0.005124)
125:   3196.54   0.001379    6.97  0.000135  (-0.007265 -0.008875 -0.001749)
126:   3214.18   0.002937   14.84  0.000285  (-0.004853 -0.001252 -0.016126)
127:   3223.61   0.002434   12.30  0.000236  (-0.004266  0.013461 -0.006023)
128:   3231.93   0.000451    2.28  0.000044  (-0.003651 -0.004732  0.002799)

* The epsilon (eps) is given for a Dirac delta lineshape.
** The dipole moment derivative (T) already includes vibrational overlap.

The first frequency considered to be a vibration is 6
The total number of vibrations considered is 123


--------------------------
THERMOCHEMISTRY AT 298.15K
--------------------------

Temperature         ... 298.15 K
Pressure            ... 1.00 atm
Total Mass          ... 320.34 AMU

Throughout the following assumptions are being made:
  (1) The electronic state is orbitally nondegenerate
  (2) There are no thermally accessible electronically excited states
  (3) Hindered rotations indicated by low frequency modes are not
      treated as such but are treated as vibrations and this may
      cause some error
  (4) All equations used are the standard statistical mechanics
      equations for an ideal gas
  (5) All vibrations are strictly harmonic

freq.      13.91  E(vib)   ...       0.57 
freq.      24.55  E(vib)   ...       0.56 
freq.      28.72  E(vib)   ...       0.55 
freq.      42.24  E(vib)   ...       0.53 
freq.      49.91  E(vib)   ...       0.52 
freq.      60.40  E(vib)   ...       0.51 
freq.      86.68  E(vib)   ...       0.48 
freq.      93.52  E(vib)   ...       0.47 
freq.      95.96  E(vib)   ...       0.47 
freq.      96.45  E(vib)   ...       0.47 
freq.     131.27  E(vib)   ...       0.42 
freq.     142.35  E(vib)   ...       0.41 
freq.     150.43  E(vib)   ...       0.40 
freq.     163.83  E(vib)   ...       0.39 
freq.     180.25  E(vib)   ...       0.37 
freq.     180.37  E(vib)   ...       0.37 
freq.     207.11  E(vib)   ...       0.34 
freq.     235.12  E(vib)   ...       0.32 
freq.     243.25  E(vib)   ...       0.31 
freq.     255.66  E(vib)   ...       0.30 
freq.     274.83  E(vib)   ...       0.28 
freq.     284.33  E(vib)   ...       0.28 
freq.     314.37  E(vib)   ...       0.25 
freq.     324.43  E(vib)   ...       0.25 
freq.     337.50  E(vib)   ...       0.24 
freq.     354.45  E(vib)   ...       0.22 
freq.     410.43  E(vib)   ...       0.19 
freq.     445.88  E(vib)   ...       0.17 
freq.     463.58  E(vib)   ...       0.16 
freq.     491.84  E(vib)   ...       0.14 
freq.     496.10  E(vib)   ...       0.14 
freq.     513.90  E(vib)   ...       0.13 
freq.     557.47  E(vib)   ...       0.12 
freq.     562.07  E(vib)   ...       0.11 
freq.     576.75  E(vib)   ...       0.11 
freq.     597.38  E(vib)   ...       0.10 
freq.     638.62  E(vib)   ...       0.09 
freq.     665.70  E(vib)   ...       0.08 
freq.     715.18  E(vib)   ...       0.07 
freq.     733.18  E(vib)   ...       0.06 
freq.     769.34  E(vib)   ...       0.06 
freq.     775.22  E(vib)   ...       0.05 
freq.     782.45  E(vib)   ...       0.05 
freq.     791.79  E(vib)   ...       0.05 
freq.     816.65  E(vib)   ...       0.05 
freq.     847.38  E(vib)   ...       0.04 
freq.     877.54  E(vib)   ...       0.04 
freq.     889.42  E(vib)   ...       0.04 
freq.     911.15  E(vib)   ...       0.03 
freq.     925.81  E(vib)   ...       0.03 
freq.     944.83  E(vib)   ...       0.03 
freq.     966.29  E(vib)   ...       0.03 
freq.     982.85  E(vib)   ...       0.02 
freq.     995.13  E(vib)   ...       0.02 
freq.    1028.79  E(vib)   ...       0.02 
freq.    1061.70  E(vib)   ...       0.02 
freq.    1071.12  E(vib)   ...       0.02 
freq.    1084.34  E(vib)   ...       0.02 
freq.    1088.11  E(vib)   ...       0.02 
freq.    1102.27  E(vib)   ...       0.02 
freq.    1117.79  E(vib)   ...       0.01 
freq.    1128.34  E(vib)   ...       0.01 
freq.    1139.94  E(vib)   ...       0.01 
freq.    1156.58  E(vib)   ...       0.01 
freq.    1171.35  E(vib)   ...       0.01 
freq.    1171.38  E(vib)   ...       0.01 
freq.    1175.08  E(vib)   ...       0.01 
freq.    1197.36  E(vib)   ...       0.01 
freq.    1207.93  E(vib)   ...       0.01 
freq.    1211.16  E(vib)   ...       0.01 
freq.    1218.84  E(vib)   ...       0.01 
freq.    1236.49  E(vib)   ...       0.01 
freq.    1252.46  E(vib)   ...       0.01 
freq.    1285.93  E(vib)   ...       0.01 
freq.    1297.91  E(vib)   ...       0.01 
freq.    1303.66  E(vib)   ...       0.01 
freq.    1316.91  E(vib)   ...       0.01 
freq.    1323.10  E(vib)   ...       0.01 
freq.    1331.98  E(vib)   ...       0.01 
freq.    1360.79  E(vib)   ...       0.01 
freq.    1387.58  E(vib)   ...       0.00 
freq.    1395.52  E(vib)   ...       0.00 
freq.    1416.37  E(vib)   ...       0.00 
freq.    1439.39  E(vib)   ...       0.00 
freq.    1454.75  E(vib)   ...       0.00 
freq.    1458.08  E(vib)   ...       0.00 
freq.    1463.73  E(vib)   ...       0.00 
freq.    1465.73  E(vib)   ...       0.00 
freq.    1466.41  E(vib)   ...       0.00 
freq.    1466.71  E(vib)   ...       0.00 
freq.    1469.40  E(vib)   ...       0.00 
freq.    1472.62  E(vib)   ...       0.00 
freq.    1474.06  E(vib)   ...       0.00 
freq.    1483.80  E(vib)   ...       0.00 
freq.    1489.85  E(vib)   ...       0.00 
freq.    1498.18  E(vib)   ...       0.00 
freq.    1526.31  E(vib)   ...       0.00 
freq.    1537.46  E(vib)   ...       0.00 
freq.    1649.42  E(vib)   ...       0.00 
freq.    1663.38  E(vib)   ...       0.00 
freq.    1673.08  E(vib)   ...       0.00 
freq.    1733.12  E(vib)   ...       0.00 
freq.    1786.90  E(vib)   ...       0.00 
freq.    3020.96  E(vib)   ...       0.00 
freq.    3027.74  E(vib)   ...       0.00 
freq.    3037.68  E(vib)   ...       0.00 
freq.    3075.02  E(vib)   ...       0.00 
freq.    3093.05  E(vib)   ...       0.00 
freq.    3097.18  E(vib)   ...       0.00 
freq.    3109.58  E(vib)   ...       0.00 
freq.    3116.51  E(vib)   ...       0.00 
freq.    3138.34  E(vib)   ...       0.00 
freq.    3150.52  E(vib)   ...       0.00 
freq.    3157.49  E(vib)   ...       0.00 
freq.    3159.70  E(vib)   ...       0.00 
freq.    3166.85  E(vib)   ...       0.00 
freq.    3186.81  E(vib)   ...       0.00 
freq.    3187.05  E(vib)   ...       0.00 
freq.    3194.21  E(vib)   ...       0.00 
freq.    3196.54  E(vib)   ...       0.00 
freq.    3214.18  E(vib)   ...       0.00 
freq.    3223.61  E(vib)   ...       0.00 
freq.    3231.93  E(vib)   ...       0.00 

------------
INNER ENERGY
------------

The inner energy is: U= E(el) + E(ZPE) + E(vib) + E(rot) + E(trans)
    E(el)   - is the total energy from the electronic structure calculation
              = E(kin-el) + E(nuc-el) + E(el-el) + E(nuc-nuc)
    E(ZPE)  - the the zero temperature vibrational energy from the frequency calculation
    E(vib)  - the the finite temperature correction to E(ZPE) due to population
              of excited vibrational states
    E(rot)  - is the rotational thermal energy
    E(trans)- is the translational thermal energy

Summary of contributions to the inner energy U:
Electronic energy                ...  -1106.47803647 Eh
Zero point energy                ...      0.34904706 Eh     219.03 kcal/mol
Thermal vibrational correction   ...      0.02051782 Eh      12.88 kcal/mol
Thermal rotational correction    ...      0.00141627 Eh       0.89 kcal/mol
Thermal translational correction ...      0.00141627 Eh       0.89 kcal/mol
-----------------------------------------------------------------------
Total thermal energy                  -1106.10563904 Eh


Summary of corrections to the electronic energy:
(perhaps to be used in another calculation)
Total thermal correction                  0.02335037 Eh      14.65 kcal/mol
Non-thermal (ZPE) correction              0.34904706 Eh     219.03 kcal/mol
-----------------------------------------------------------------------
Total correction                          0.37239743 Eh     233.68 kcal/mol


--------
ENTHALPY
--------

The enthalpy is H = U + kB*T
                kB is Boltzmann's constant
Total free energy                 ...  -1106.10563904 Eh 
Thermal Enthalpy correction       ...      0.00094421 Eh       0.59 kcal/mol
-----------------------------------------------------------------------
Total Enthalpy                    ...  -1106.10469483 Eh


Note: Only C1 symmetry has been detected, increase convergence thresholds 
      if your molecule has a higher symmetry. Symmetry factor of 1.0 is   
      used for the rotational entropy correction. 
 

Note: Rotational entropy computed according to Herzberg 
Infrared and Raman Spectra, Chapter V,1, Van Nostrand Reinhold, 1945 
Point Group:  C1, Symmetry Number:   1  
Rotational constants in cm-1:     0.009495     0.006843     0.005680 

Vibrational entropy computed according to the QRRHO of S. Grimme
Chem.Eur.J. 2012 18 9955


-------
ENTROPY
-------

The entropy contributions are T*S = T*(S(el)+S(vib)+S(rot)+S(trans))
     S(el)   - electronic entropy
     S(vib)  - vibrational entropy
     S(rot)  - rotational entropy
     S(trans)- translational entropy
The entropies will be listed as multiplied by the temperature to get
units of energy

Electronic entropy                ...      0.00000000 Eh      0.00 kcal/mol
Vibrational entropy               ...      0.03761210 Eh     23.60 kcal/mol
Rotational entropy                ...      0.01650358 Eh     10.36 kcal/mol
Translational entropy             ...      0.02052011 Eh     12.88 kcal/mol
-----------------------------------------------------------------------
Final entropy term                ...      0.07463578 Eh     46.83 kcal/mol

In case the symmetry of your molecule has not been determined correctly
or in case you have a reason to use a different symmetry number we print 
out the resulting rotational entropy values for sn=1,12 :
 --------------------------------------------------------
|  sn= 1 | S(rot)=       0.01650358 Eh     10.36 kcal/mol|
|  sn= 2 | S(rot)=       0.01584912 Eh      9.95 kcal/mol|
|  sn= 3 | S(rot)=       0.01546629 Eh      9.71 kcal/mol|
|  sn= 4 | S(rot)=       0.01519467 Eh      9.53 kcal/mol|
|  sn= 5 | S(rot)=       0.01498398 Eh      9.40 kcal/mol|
|  sn= 6 | S(rot)=       0.01481183 Eh      9.29 kcal/mol|
|  sn= 7 | S(rot)=       0.01466629 Eh      9.20 kcal/mol|
|  sn= 8 | S(rot)=       0.01454021 Eh      9.12 kcal/mol|
|  sn= 9 | S(rot)=       0.01442900 Eh      9.05 kcal/mol|
|  sn=10 | S(rot)=       0.01432952 Eh      8.99 kcal/mol|
|  sn=11 | S(rot)=       0.01423953 Eh      8.94 kcal/mol|
|  sn=12 | S(rot)=       0.01415738 Eh      8.88 kcal/mol|
 --------------------------------------------------------


-------------------
GIBBS FREE ENERGY
-------------------

The Gibbs free energy is G = H - T*S

Total enthalpy                    ...  -1106.10469483 Eh 
Total entropy correction          ...     -0.07463578 Eh    -46.83 kcal/mol
-----------------------------------------------------------------------
Final Gibbs free energy         ...  -1106.17933061 Eh

For completeness - the Gibbs free energy minus the electronic energy
G-E(el)                           ...      0.29870586 Eh    187.44 kcal/mol


Timings for individual modules:

Sum of individual times         ...     6301.013 sec (= 105.017 min)
GTO integral calculation        ...       78.426 sec (=   1.307 min)   1.2 %
SCF iterations                  ...     3119.475 sec (=  51.991 min)  49.5 %
SCF Gradient evaluation         ...      986.616 sec (=  16.444 min)  15.7 %
Geometry relaxation             ...        5.531 sec (=   0.092 min)   0.1 %
Analytical frequency calculation...     2110.963 sec (=  35.183 min)  33.5 %
                             ****ORCA TERMINATED NORMALLY****
TOTAL RUN TIME: 0 days 1 hours 46 minutes 35 seconds 318 msec
