
                                 *****************
                                 * O   R   C   A *
                                 *****************

                                            #,                                       
                                            ###                                      
                                            ####                                     
                                            #####                                    
                                            ######                                   
                                           ########,                                 
                                     ,,################,,,,,                         
                               ,,#################################,,                 
                          ,,##########################################,,             
                       ,#########################################, ''#####,          
                    ,#############################################,,   '####,        
                  ,##################################################,,,,####,       
                ,###########''''           ''''###############################       
              ,#####''   ,,,,##########,,,,          '''####'''          '####       
            ,##' ,,,,###########################,,,                        '##       
           ' ,,###''''                  '''############,,,                           
         ,,##''                                '''############,,,,        ,,,,,,###''
      ,#''                                            '''#######################'''  
     '                                                          ''''####''''         
             ,#######,   #######,   ,#######,      ##                                
            ,#'     '#,  ##    ##  ,#'     '#,    #''#        ######   ,####,        
            ##       ##  ##   ,#'  ##            #'  '#       #        #'  '#        
            ##       ##  #######   ##           ,######,      #####,   #    #        
            '#,     ,#'  ##    ##  '#,     ,#' ,#      #,         ##   #,  ,#        
             '#######'   ##     ##  '#######'  #'      '#     #####' # '####'        



                  #######################################################
                  #                        -***-                        #
                  #          Department of theory and spectroscopy      #
                  #    Directorship and core code : Frank Neese         #
                  #        Max Planck Institute fuer Kohlenforschung    #
                  #                Kaiser Wilhelm Platz 1               #
                  #                 D-45470 Muelheim/Ruhr               #
                  #                      Germany                        #
                  #                                                     #
                  #                  All rights reserved                #
                  #                        -***-                        #
                  #######################################################


                         Program Version 5.0.4 -  RELEASE  -


 With contributions from (in alphabetic order):
   Daniel Aravena         : Magnetic Suceptibility
   Michael Atanasov       : Ab Initio Ligand Field Theory (pilot matlab implementation)
   Alexander A. Auer      : GIAO ZORA, VPT2 properties, NMR spectrum
   Ute Becker             : Parallelization
   Giovanni Bistoni       : ED, misc. LED, open-shell LED, HFLD
   Martin Brehm           : Molecular dynamics
   Dmytro Bykov           : SCF Hessian
   Vijay G. Chilkuri      : MRCI spin determinant printing, contributions to CSF-ICE
   Dipayan Datta          : RHF DLPNO-CCSD density
   Achintya Kumar Dutta   : EOM-CC, STEOM-CC
   Dmitry Ganyushin       : Spin-Orbit,Spin-Spin,Magnetic field MRCI
   Miquel Garcia          : C-PCM and meta-GGA Hessian, CC/C-PCM, Gaussian charge scheme
   Yang Guo               : DLPNO-NEVPT2, F12-NEVPT2, CIM, IAO-localization
   Andreas Hansen         : Spin unrestricted coupled pair/coupled cluster methods
   Benjamin Helmich-Paris : MC-RPA, TRAH-SCF, COSX integrals
   Lee Huntington         : MR-EOM, pCC
   Robert Izsak           : Overlap fitted RIJCOSX, COSX-SCS-MP3, EOM
   Marcus Kettner         : VPT2
   Christian Kollmar      : KDIIS, OOCD, Brueckner-CCSD(T), CCSD density, CASPT2, CASPT2-K
   Simone Kossmann        : Meta GGA functionals, TD-DFT gradient, OOMP2, MP2 Hessian
   Martin Krupicka        : Initial AUTO-CI
   Lucas Lang             : DCDCAS
   Marvin Lechner         : AUTO-CI (C++ implementation), FIC-MRCC
   Dagmar Lenk            : GEPOL surface, SMD
   Dimitrios Liakos       : Extrapolation schemes; Compound Job, initial MDCI parallelization
   Dimitrios Manganas     : Further ROCIS development; embedding schemes
   Dimitrios Pantazis     : SARC Basis sets
   Anastasios Papadopoulos: AUTO-CI, single reference methods and gradients
   Taras Petrenko         : DFT Hessian,TD-DFT gradient, ASA, ECA, R-Raman, ABS, FL, XAS/XES, NRVS
   Peter Pinski           : DLPNO-MP2, DLPNO-MP2 Gradient
   Christoph Reimann      : Effective Core Potentials
   Marius Retegan         : Local ZFS, SOC
   Christoph Riplinger    : Optimizer, TS searches, QM/MM, DLPNO-CCSD(T), (RO)-DLPNO pert. Triples
   Tobias Risthaus        : Range-separated hybrids, TD-DFT gradient, RPA, STAB
   Michael Roemelt        : Original ROCIS implementation
   Masaaki Saitow         : Open-shell DLPNO-CCSD energy and density
   Barbara Sandhoefer     : DKH picture change effects
   Avijit Sen             : IP-ROCIS
   Kantharuban Sivalingam : CASSCF convergence, NEVPT2, FIC-MRCI
   Bernardo de Souza      : ESD, SOC TD-DFT
   Georgi Stoychev        : AutoAux, RI-MP2 NMR, DLPNO-MP2 response
   Willem Van den Heuvel  : Paramagnetic NMR
   Boris Wezisla          : Elementary symmetry handling
   Frank Wennmohs         : Technical directorship


 We gratefully acknowledge several colleagues who have allowed us to
 interface, adapt or use parts of their codes:
   Stefan Grimme, W. Hujo, H. Kruse, P. Pracht,  : VdW corrections, initial TS optimization,
                  C. Bannwarth, S. Ehlert          DFT functionals, gCP, sTDA/sTD-DF
   Ed Valeev, F. Pavosevic, A. Kumar             : LibInt (2-el integral package), F12 methods
   Garnet Chan, S. Sharma, J. Yang, R. Olivares  : DMRG
   Ulf Ekstrom                                   : XCFun DFT Library
   Mihaly Kallay                                 : mrcc  (arbitrary order and MRCC methods)
   Jiri Pittner, Ondrej Demel                    : Mk-CCSD
   Frank Weinhold                                : gennbo (NPA and NBO analysis)
   Christopher J. Cramer and Donald G. Truhlar   : smd solvation model
   Lars Goerigk                                  : TD-DFT with DH, B97 family of functionals
   V. Asgeirsson, H. Jonsson                     : NEB implementation
   FAccTs GmbH                                   : IRC, NEB, NEB-TS, DLPNO-Multilevel, CI-OPT
                                                   MM, QMMM, 2- and 3-layer-ONIOM, Crystal-QMMM,
                                                   LR-CPCM, SF, NACMEs, symmetry and pop. for TD-DFT,
                                                   nearIR, NL-DFT gradient (VV10), updates on ESD,
                                                   ML-optimized integration grids
   S Lehtola, MJT Oliveira, MAL Marques          : LibXC Library
   Liviu Ungur et al                             : ANISO software


 Your calculation uses the libint2 library for the computation of 2-el integrals
 For citations please refer to: http://libint.valeyev.net

 Your ORCA version has been built with support for libXC version: 5.1.0
 For citations please refer to: https://tddft.org/programs/libxc/

 This ORCA versions uses:
   CBLAS   interface :  Fast vector & matrix operations
   LAPACKE interface :  Fast linear algebra routines
   SCALAPACK package :  Parallel linear algebra routines
   Shared memory     :  Shared parallel matrices
   BLAS/LAPACK       :  OpenBLAS 0.3.15  USE64BITINT DYNAMIC_ARCH NO_AFFINITY Haswell SINGLE_THREADED
        Core in use  :  Haswell
   Copyright (c) 2011-2014, The OpenBLAS Project


Your calculation utilizes the atom-pairwise dispersion correction
with the Becke-Johnson damping scheme (D3BJ)
Cite in your paper:
S.Grimme, S.Ehrlich, L.Goerigk, J Comput Chem, (2011), 32, 1456–1465 
S.Grimme, J.Antony, S.Ehrlich and H.Krieg, J.Chem.Phys., 132, (2010), 154104 
   

================================================================================

----- Orbital basis set information -----
Your calculation utilizes the basis: def2-TZVP
   F. Weigend and R. Ahlrichs, Phys. Chem. Chem. Phys. 7, 3297 (2005).

----- AuxJ basis set information -----
Your calculation utilizes the auxiliary basis: def2/J
   F. Weigend, Phys. Chem. Chem. Phys. 8, 1057 (2006).

================================================================================
                                        WARNINGS
                       Please study these warnings very carefully!
================================================================================


WARNING: Geometry Optimization
  ===> : Switching off AutoStart
         For restart on a previous wavefunction, please use MOREAD

INFO   : the flag for use of the SHARK integral package has been found!

================================================================================
                                       INPUT FILE
================================================================================
NAME = 4_CHCHCO2Me_free/4_CHCHCO2Me_free.inp
|  1> %pal nprocs 24 end
|  2> %maxcore 3500
|  3> ! PBE0 D3BJ def2-TZVP TightSCF OPT FREQ TightOpt
|  4> ! CPCM(dmso)
|  5> %scf
|  6> MaxIter 800
|  7> end
|  8> %geom
|  9> MaxIter 800
| 10> MaxStep 0.2
| 11> end
| 12> *xyz 0 1
| 13> C       -0.501268000      1.759819000     -0.127623000
| 14> C       -0.205105000      2.868547000      0.867504000
| 15> O        0.425121000      3.862376000      0.615437000
| 16> O       -0.724310000      2.573262000      2.046404000
| 17> C       -0.480337000      3.512187000      3.101138000
| 18> H       -1.561098000      1.490969000     -0.094423000
| 19> H        0.591387000      3.615485000      3.270187000
| 20> H       -0.967539000      3.098250000      3.979607000
| 21> C        1.530944000      0.918867000     -0.841754000
| 22> C        0.425650000      0.543036000      0.085316000
| 23> C       -0.216407000     -0.782451000     -0.247475000
| 24> C       -0.136686000     -1.345042000     -1.511210000
| 25> C       -0.742340000     -2.561239000     -1.799266000
| 26> C       -1.435208000     -3.224161000     -0.801146000
| 27> C       -1.531993000     -2.681962000      0.473492000
| 28> C       -0.930520000     -1.460072000      0.751412000
| 29> O       -0.989566000     -0.848808000      1.953471000
| 30> C       -1.662181000     -1.511741000      3.007558000
| 31> N        1.127823000      1.839498000     -1.687853000
| 32> O        1.664403000      2.382490000     -2.634265000
| 33> H        0.771493000      0.522380000      1.120099000
| 34> H        0.414502000     -0.825671000     -2.287923000
| 35> H       -0.669428000     -2.983137000     -2.794303000
| 36> H       -1.914958000     -4.174240000     -1.007791000
| 37> H       -2.084328000     -3.209235000      1.239313000
| 38> H       -2.713994000     -1.678441000      2.760419000
| 39> H       -1.591786000     -0.852461000      3.870187000
| 40> H       -1.185990000     -2.469275000      3.237056000
| 41> O       -0.201869000      2.221570000     -1.437500000
| 42> H       -0.909150000      4.481178000      2.846413000
| 43> C        2.846947000      0.390004000     -0.919359000
| 44> H        3.503061000      0.805525000     -1.677721000
| 45> C        3.298958000     -0.582260000     -0.113352000
| 46> H        2.677556000     -1.032914000      0.650984000
| 47> C        4.669946000     -1.081954000     -0.248862000
| 48> O        5.496295000     -0.677658000     -1.038015000
| 49> O        4.905881000     -2.063786000      0.624730000
| 50> C        6.215155000     -2.632164000      0.591745000
| 51> H        6.964913000     -1.873587000      0.819401000
| 52> H        6.219574000     -3.408112000      1.353060000
| 53> H        6.419270000     -3.061906000     -0.389515000
| 54> *
| 55> 
| 56>                          ****END OF INPUT****
================================================================================

                       *****************************
                       * Geometry Optimization Run *
                       *****************************

Geometry optimization settings:
Update method            Update   .... BFGS
Choice of coordinates    CoordSys .... Z-matrix Internals
Initial Hessian          InHess   .... Almoef's Model

Convergence Tolerances:
Energy Change            TolE     ....  1.0000e-06 Eh
Max. Gradient            TolMAXG  ....  1.0000e-04 Eh/bohr
RMS Gradient             TolRMSG  ....  3.0000e-05 Eh/bohr
Max. Displacement        TolMAXD  ....  1.0000e-03 bohr
RMS Displacement         TolRMSD  ....  6.0000e-04 bohr
Strict Convergence                ....  False
------------------------------------------------------------------------------
                        ORCA OPTIMIZATION COORDINATE SETUP
------------------------------------------------------------------------------

The optimization will be done in new redundant internal coordinates
Making redundant internal coordinates   ...  (new redundants) done
Evaluating the initial hessian          ...  (Almloef) done
Evaluating the coordinates              ...  done
Calculating the B-matrix                .... done
Calculating the G-matrix                .... done
Diagonalizing the G-matrix              .... done
Small eigenvalue found = 2.145e-03
Small eigenvalue found = 4.340e-03
Small eigenvalue found = 5.790e-03
Small eigenvalue found = 1.063e-02
Small eigenvalue found = 1.709e-02
Small eigenvalue found = 2.170e-02
Small eigenvalue found = 2.458e-02
The first mode is                       ....   82
The number of degrees of freedom        ....  117

    -----------------------------------------------------------------
                    Redundant Internal Coordinates


    -----------------------------------------------------------------
         Definition                    Initial Value    Approx d2E/dq
    -----------------------------------------------------------------
      1. B(C   1,C   0)                  1.5190         0.389024   
      2. B(O   2,C   1)                  1.2035         1.110248   
      3. B(O   3,C   1)                  1.3216         0.719509   
      4. B(C   4,O   3)                  1.4330         0.477780   
      5. B(H   5,C   0)                  1.0939         0.354975   
      6. B(H   6,C   4)                  1.0899         0.360258   
      7. B(H   7,C   4)                  1.0865         0.364800   
      8. B(C   9,C   8)                  1.4908         0.431492   
      9. B(C   9,C   0)                  1.5444         0.354364   
     10. B(C  10,C   9)                  1.5099         0.402152   
     11. B(C  11,C  10)                  1.3856         0.634975   
     12. B(C  12,C  11)                  1.3889         0.627422   
     13. B(C  13,C  12)                  1.3841         0.638450   
     14. B(C  14,C  13)                  1.3885         0.628152   
     15. B(C  15,C  10)                  1.4025         0.596835   
     16. B(C  15,C  14)                  1.3900         0.624859   
     17. B(O  16,C  15)                  1.3498         0.648550   
     18. B(C  17,O  16)                  1.4153         0.509986   
     19. B(N  18,C   8)                  1.3138         0.740491   
     20. B(O  19,N  18)                  1.2159         0.950059   
     21. B(H  20,C   9)                  1.0912         0.358460   
     22. B(H  21,C  11)                  1.0848         0.367016   
     23. B(H  22,C  12)                  1.0832         0.369152   
     24. B(H  23,C  13)                  1.0842         0.367841   
     25. B(H  24,C  14)                  1.0815         0.371566   
     26. B(H  25,C  17)                  1.0932         0.355837   
     27. B(H  26,C  17)                  1.0880         0.362761   
     28. B(H  27,C  17)                  1.0938         0.355168   
     29. B(O  28,N  18)                  1.4060         0.472652   
     30. B(O  28,C   0)                  1.4208         0.499757   
     31. B(H  29,C   4)                  1.0898         0.360337   
     32. B(C  30,C   8)                  1.4204         0.558742   
     33. B(H  31,C  30)                  1.0855         0.366136   
     34. B(C  32,C  30)                  1.3414         0.747022   
     35. B(H  33,C  32)                  1.0833         0.369136   
     36. B(C  34,C  32)                  1.4655         0.473475   
     37. B(O  35,C  34)                  1.2121         1.075920   
     38. B(O  36,C  34)                  1.3352         0.684333   
     39. B(C  37,O  36)                  1.4277         0.487215   
     40. B(H  38,C  37)                  1.0906         0.359310   
     41. B(H  39,C  37)                  1.0871         0.364001   
     42. B(H  40,C  37)                  1.0905         0.359426   
     43. A(C   1,C   0,O  28)          109.0070         0.382297   
     44. A(C   9,C   0,O  28)          104.8743         0.376167   
     45. A(C   1,C   0,C   9)          111.5762         0.362591   
     46. A(C   1,C   0,H   5)          110.3903         0.325718   
     47. A(H   5,C   0,C   9)          112.5614         0.320770   
     48. A(H   5,C   0,O  28)          108.1810         0.337464   
     49. A(O   2,C   1,O   3)          125.2446         0.489522   
     50. A(C   0,C   1,O   3)          110.1644         0.407516   
     51. A(C   0,C   1,O   2)          124.5860         0.440374   
     52. A(C   1,O   3,C   4)          116.3131         0.419936   
     53. A(H   7,C   4,H  29)          110.5664         0.291463   
     54. A(O   3,C   4,H   6)          110.1010         0.335772   
     55. A(O   3,C   4,H   7)          105.6129         0.336473   
     56. A(O   3,C   4,H  29)          110.0928         0.335784   
     57. A(H   6,C   4,H   7)          110.5885         0.291453   
     58. A(H   6,C   4,H  29)          109.8098         0.290890   
     59. A(C   9,C   8,N  18)          110.4671         0.417202   
     60. A(N  18,C   8,C  30)          120.6651         0.436972   
     61. A(C   9,C   8,C  30)          128.8317         0.399489   
     62. A(C  10,C   9,H  20)          109.0956         0.328031   
     63. A(C   8,C   9,H  20)          111.0692         0.331871   
     64. A(C   0,C   9,H  20)          109.6259         0.321284   
     65. A(C   0,C   9,C  10)          113.9560         0.364654   
     66. A(C   8,C   9,C  10)          113.5481         0.377218   
     67. A(C   0,C   9,C   8)           99.2431         0.369082   
     68. A(C   9,C  10,C  11)          122.2070         0.403555   
     69. A(C  11,C  10,C  15)          118.8628         0.432958   
     70. A(C   9,C  10,C  15)          118.9262         0.399175   
     71. A(C  12,C  11,H  21)          119.4927         0.354763   
     72. A(C  10,C  11,C  12)          121.3070         0.436871   
     73. A(C  10,C  11,H  21)          119.1996         0.355483   
     74. A(C  13,C  12,H  22)          120.6345         0.356163   
     75. A(C  11,C  12,H  22)          120.1471         0.355112   
     76. A(C  11,C  12,C  13)          119.2183         0.437301   
     77. A(C  14,C  13,H  23)          119.0971         0.354968   
     78. A(C  12,C  13,H  23)          120.2489         0.355948   
     79. A(C  12,C  13,C  14)          120.6533         0.437392   
     80. A(C  13,C  14,C  15)          119.7782         0.435700   
     81. A(C  15,C  14,H  24)          120.5314         0.355258   
     82. A(C  13,C  14,H  24)          119.6870         0.355575   
     83. A(C  14,C  15,O  16)          123.8629         0.435343   
     84. A(C  10,C  15,O  16)          115.9596         0.431765   
     85. A(C  10,C  15,C  14)          120.1765         0.431710   
     86. A(C  15,O  16,C  17)          118.1594         0.417057   
     87. A(H  26,C  17,H  27)          109.6308         0.290546   
     88. A(H  25,C  17,H  27)          109.4398         0.289669   
     89. A(O  16,C  17,H  27)          111.0658         0.338637   
     90. A(H  25,C  17,H  26)          109.5046         0.290632   
     91. A(O  16,C  17,H  26)          106.0174         0.339835   
     92. A(O  16,C  17,H  25)          111.1187         0.338743   
     93. A(C   8,N  18,O  19)          132.7509         0.474901   
     94. A(O  19,N  18,O  28)          115.7597         0.434688   
     95. A(C   8,N  18,O  28)          111.4663         0.418495   
     96. A(C   0,O  28,N  18)          105.9705         0.390438   
     97. A(H  31,C  30,C  32)          119.5766         0.365317   
     98. A(C   8,C  30,C  32)          123.3159         0.440557   
     99. A(C   8,C  30,H  31)          117.1073         0.347739   
    100. A(H  33,C  32,C  34)          117.3900         0.338682   
    101. A(C  30,C  32,C  34)          120.4532         0.427625   
    102. A(C  30,C  32,H  33)          122.1555         0.365828   
    103. A(O  35,C  34,O  36)          123.4215         0.482199   
    104. A(C  32,C  34,O  36)          110.8263         0.418242   
    105. A(C  32,C  34,O  35)          125.7521         0.453748   
    106. A(C  34,O  36,C  37)          116.0827         0.417654   
    107. A(H  39,C  37,H  40)          110.3727         0.291246   
    108. A(H  38,C  37,H  40)          109.4666         0.290654   
    109. A(O  36,C  37,H  40)          110.4457         0.336737   
    110. A(H  38,C  37,H  39)          110.3348         0.291232   
    111. A(O  36,C  37,H  39)          105.7664         0.337447   
    112. A(O  36,C  37,H  38)          110.4089         0.336719   
    113. D(O   3,C   1,C   0,C   9)    -77.4282         0.011262   
    114. D(O   2,C   1,C   0,C   9)    101.7921         0.011262   
    115. D(O   3,C   1,C   0,H   5)     48.5270         0.011262   
    116. D(O   2,C   1,C   0,O  28)    -13.5599         0.011262   
    117. D(O   3,C   1,C   0,O  28)    167.2198         0.011262   
    118. D(O   2,C   1,C   0,H   5)   -132.2526         0.011262   
    119. D(C   4,O   3,C   1,C   0)    177.8084         0.038979   
    120. D(C   4,O   3,C   1,O   2)     -1.4057         0.038979   
    121. D(H   6,C   4,O   3,C   1)    -59.9538         0.018004   
    122. D(H   7,C   4,O   3,C   1)   -179.3652         0.018004   
    123. D(H  29,C   4,O   3,C   1)     61.2538         0.018004   
    124. D(C  10,C   9,C   0,C   1)    147.7530         0.010098   
    125. D(H  20,C   9,C   8,N  18)   -132.9362         0.013748   
    126. D(C   8,C   9,C   0,O  28)     26.6316         0.010098   
    127. D(C  10,C   9,C   8,C  30)    -74.1169         0.013748   
    128. D(C   8,C   9,C   0,C   1)    -91.2339         0.010098   
    129. D(C   0,C   9,C   8,C  30)    164.5731         0.013748   
    130. D(C   0,C   9,C   8,N  18)    -17.6354         0.013748   
    131. D(H  20,C   9,C   0,O  28)    143.0369         0.010098   
    132. D(H  20,C   9,C   0,H   5)    -99.5797         0.010098   
    133. D(C  10,C   9,C   0,O  28)    -94.3816         0.010098   
    134. D(C  10,C   9,C   8,N  18)    103.6745         0.013748   
    135. D(C  10,C   9,C   0,H   5)     23.0018         0.010098   
    136. D(H  20,C   9,C   0,C   1)     25.1715         0.010098   
    137. D(H  20,C   9,C   8,C  30)     49.2724         0.013748   
    138. D(C   8,C   9,C   0,H   5)    144.0149         0.010098   
    139. D(C  15,C  10,C   9,C   0)    -88.3437         0.011997   
    140. D(C  11,C  10,C   9,H  20)   -146.2192         0.011997   
    141. D(C  11,C  10,C   9,C   8)    -21.7571         0.011997   
    142. D(C  15,C  10,C   9,C   8)    158.9899         0.011997   
    143. D(C  11,C  10,C   9,C   0)     90.9094         0.011997   
    144. D(C  15,C  10,C   9,H  20)     34.5278         0.011997   
    145. D(H  21,C  11,C  10,C  15)   -179.9859         0.027984   
    146. D(H  21,C  11,C  10,C   9)      0.7606         0.027984   
    147. D(C  12,C  11,C  10,C  15)     -0.2957         0.027984   
    148. D(C  12,C  11,C  10,C   9)   -179.5492         0.027984   
    149. D(H  22,C  12,C  11,H  21)     -0.4100         0.027280   
    150. D(H  22,C  12,C  11,C  10)    179.9007         0.027280   
    151. D(C  13,C  12,C  11,H  21)    179.4913         0.027280   
    152. D(C  13,C  12,C  11,C  10)     -0.1980         0.027280   
    153. D(H  23,C  13,C  12,H  22)     -0.1426         0.028312   
    154. D(H  23,C  13,C  12,C  11)    179.9566         0.028312   
    155. D(C  14,C  13,C  12,H  22)   -179.8239         0.028312   
    156. D(C  14,C  13,C  12,C  11)      0.2753         0.028312   
    157. D(H  24,C  14,C  13,H  23)     -0.2037         0.027348   
    158. D(H  24,C  14,C  13,C  12)    179.4812         0.027348   
    159. D(C  15,C  14,C  13,H  23)   -179.5383         0.027348   
    160. D(C  15,C  14,C  13,C  12)      0.1465         0.027348   
    161. D(O  16,C  15,C  14,H  24)     -0.3655         0.027044   
    162. D(C  10,C  15,C  14,H  24)   -179.9773         0.027044   
    163. D(C  10,C  15,C  14,C  13)     -0.6484         0.027044   
    164. D(O  16,C  15,C  10,C  11)   -178.9226         0.024543   
    165. D(O  16,C  15,C  10,C   9)      0.3557         0.024543   
    166. D(O  16,C  15,C  14,C  13)    178.9634         0.027044   
    167. D(C  14,C  15,C  10,C  11)      0.7188         0.024543   
    168. D(C  14,C  15,C  10,C   9)    179.9972         0.024543   
    169. D(C  17,O  16,C  15,C  14)      2.3620         0.031074   
    170. D(C  17,O  16,C  15,C  10)   -178.0113         0.031074   
    171. D(H  27,C  17,O  16,C  15)     61.0477         0.020589   
    172. D(H  26,C  17,O  16,C  15)   -179.9309         0.020589   
    173. D(H  25,C  17,O  16,C  15)    -61.0325         0.020589   
    174. D(O  19,N  18,C   8,C  30)      1.7924         0.045915   
    175. D(O  19,N  18,C   8,C   9)   -176.2076         0.045915   
    176. D(O  28,N  18,C   8,C  30)    179.9269         0.045915   
    177. D(O  28,N  18,C   8,C   9)      1.9270         0.045915   
    178. D(C   0,O  28,N  18,O  19)   -164.9449         0.018623   
    179. D(C   0,O  28,N  18,C   8)     16.5760         0.018623   
    180. D(N  18,O  28,C   0,C   9)    -27.0130         0.019745   
    181. D(N  18,O  28,C   0,H   5)   -147.3485         0.019745   
    182. D(N  18,O  28,C   0,C   1)     92.5855         0.019745   
    183. D(C  32,C  30,C   8,N  18)   -177.6504         0.021381   
    184. D(C  32,C  30,C   8,C   9)     -0.0560         0.021381   
    185. D(H  31,C  30,C   8,N  18)      2.1809         0.021381   
    186. D(H  31,C  30,C   8,C   9)    179.7752         0.021381   
    187. D(C  34,C  32,C  30,H  31)      0.1528         0.039767   
    188. D(C  34,C  32,C  30,C   8)    179.9801         0.039767   
    189. D(H  33,C  32,C  30,H  31)   -179.4217         0.039767   
    190. D(H  33,C  32,C  30,C   8)      0.4056         0.039767   
    191. D(O  36,C  34,C  32,H  33)      0.9987         0.015264   
    192. D(O  36,C  34,C  32,C  30)   -178.5956         0.015264   
    193. D(O  35,C  34,C  32,H  33)   -179.0463         0.015264   
    194. D(O  35,C  34,C  32,C  30)      1.3594         0.015264   
    195. D(C  37,O  36,C  34,O  35)      0.1979         0.034921   
    196. D(C  37,O  36,C  34,C  32)   -179.8458         0.034921   
    197. D(H  40,C  37,O  36,C  34)    -60.1048         0.018739   
    198. D(H  39,C  37,O  36,C  34)   -179.5317         0.018739   
    199. D(H  38,C  37,O  36,C  34)     61.1064         0.018739   
    -----------------------------------------------------------------

Number of atoms                         .... 41
Number of degrees of freedom            .... 199

         *************************************************************
         *                GEOMETRY OPTIMIZATION CYCLE   1            *
         *************************************************************
---------------------------------
CARTESIAN COORDINATES (ANGSTROEM)
---------------------------------
  C     -0.501268    1.759819   -0.127623
  C     -0.205105    2.868547    0.867504
  O      0.425121    3.862376    0.615437
  O     -0.724310    2.573262    2.046404
  C     -0.480337    3.512187    3.101138
  H     -1.561098    1.490969   -0.094423
  H      0.591387    3.615485    3.270187
  H     -0.967539    3.098250    3.979607
  C      1.530944    0.918867   -0.841754
  C      0.425650    0.543036    0.085316
  C     -0.216407   -0.782451   -0.247475
  C     -0.136686   -1.345042   -1.511210
  C     -0.742340   -2.561239   -1.799266
  C     -1.435208   -3.224161   -0.801146
  C     -1.531993   -2.681962    0.473492
  C     -0.930520   -1.460072    0.751412
  O     -0.989566   -0.848808    1.953471
  C     -1.662181   -1.511741    3.007558
  N      1.127823    1.839498   -1.687853
  O      1.664403    2.382490   -2.634265
  H      0.771493    0.522380    1.120099
  H      0.414502   -0.825671   -2.287923
  H     -0.669428   -2.983137   -2.794303
  H     -1.914958   -4.174240   -1.007791
  H     -2.084328   -3.209235    1.239313
  H     -2.713994   -1.678441    2.760419
  H     -1.591786   -0.852461    3.870187
  H     -1.185990   -2.469275    3.237056
  O     -0.201869    2.221570   -1.437500
  H     -0.909150    4.481178    2.846413
  C      2.846947    0.390004   -0.919359
  H      3.503061    0.805525   -1.677721
  C      3.298958   -0.582260   -0.113352
  H      2.677556   -1.032914    0.650984
  C      4.669946   -1.081954   -0.248862
  O      5.496295   -0.677658   -1.038015
  O      4.905881   -2.063786    0.624730
  C      6.215155   -2.632164    0.591745
  H      6.964913   -1.873587    0.819401
  H      6.219574   -3.408112    1.353060
  H      6.419270   -3.061906   -0.389515

----------------------------
CARTESIAN COORDINATES (A.U.)
----------------------------
  NO LB      ZA    FRAG     MASS         X           Y           Z
   0 C     6.0000    0    12.011   -0.947259    3.325576   -0.241173
   1 C     6.0000    0    12.011   -0.387592    5.420768    1.639345
   2 O     8.0000    0    15.999    0.803362    7.298833    1.163007
   3 O     8.0000    0    15.999   -1.368748    4.862760    3.867143
   4 C     6.0000    0    12.011   -0.907705    6.637072    5.860302
   5 H     1.0000    0     1.008   -2.950048    2.817523   -0.178434
   6 H     1.0000    0     1.008    1.117559    6.832276    6.179758
   7 H     1.0000    0     1.008   -1.828384    5.854844    7.520367
   8 C     6.0000    0    12.011    2.893065    1.736407   -1.590685
   9 C     6.0000    0    12.011    0.804362    1.026189    0.161224
  10 C     6.0000    0    12.011   -0.408950   -1.478618   -0.467660
  11 C     6.0000    0    12.011   -0.258299   -2.541761   -2.855773
  12 C     6.0000    0    12.011   -1.402819   -4.840040   -3.400120
  13 C     6.0000    0    12.011   -2.712150   -6.092781   -1.513947
  14 C     6.0000    0    12.011   -2.895047   -5.068174    0.894770
  15 C     6.0000    0    12.011   -1.758428   -2.759136    1.419963
  16 O     8.0000    0    15.999   -1.870009   -1.604015    3.691525
  17 C     6.0000    0    12.011   -3.141067   -2.856776    5.683461
  18 N     7.0000    0    14.007    2.131277    3.476147   -3.189580
  19 O     8.0000    0    15.999    3.145266    4.502254   -4.978039
  20 H     1.0000    0     1.008    1.457910    0.987155    2.116680
  21 H     1.0000    0     1.008    0.783295   -1.560292   -4.323548
  22 H     1.0000    0     1.008   -1.265036   -5.637312   -5.280467
  23 H     1.0000    0     1.008   -3.618746   -7.888170   -1.904449
  24 H     1.0000    0     1.008   -3.938809   -6.064575    2.341962
  25 H     1.0000    0     1.008   -5.128705   -3.171794    5.216436
  26 H     1.0000    0     1.008   -3.008040   -1.610918    7.313594
  27 H     1.0000    0     1.008   -2.241196   -4.666253    6.117149
  28 O     8.0000    0    15.999   -0.381477    4.198159   -2.716481
  29 H     1.0000    0     1.008   -1.718045    8.468199    5.378941
  30 C     6.0000    0    12.011    5.379950    0.737001   -1.737337
  31 H     1.0000    0     1.008    6.619826    1.522222   -3.170433
  32 C     6.0000    0    12.011    6.234127   -1.100312   -0.214204
  33 H     1.0000    0     1.008    5.059848   -1.951925    1.230181
  34 C     6.0000    0    12.011    8.824919   -2.044597   -0.470281
  35 O     8.0000    0    15.999   10.386492   -1.280588   -1.961564
  36 O     8.0000    0    15.999    9.270772   -3.899990    1.180569
  37 C     6.0000    0    12.011   11.744941   -4.974069    1.118236
  38 H     1.0000    0     1.008   13.161778   -3.540566    1.548443
  39 H     1.0000    0     1.008   11.753292   -6.440398    2.556913
  40 H     1.0000    0     1.008   12.130662   -5.786164   -0.736077

--------------------------------
INTERNAL COORDINATES (ANGSTROEM)
--------------------------------
 C      0   0   0     0.000000000000     0.00000000     0.00000000
 C      1   0   0     1.518969402813     0.00000000     0.00000000
 O      2   1   0     1.203502665060   124.58595394     0.00000000
 O      2   1   3     1.321579461572   110.16442690   180.77966778
 C      4   2   1     1.433027142489   116.31312733   177.80838516
 H      1   2   3     1.093902276897   110.39032464   227.74736766
 H      5   4   2     1.089880898714   110.10097176   300.04620584
 H      5   4   2     1.086470161916   105.61294648   180.63476910
 C      1   2   3     2.312373015845   107.24303744    60.02454815
 C      9   1   2     1.490765760238    41.23895150   103.22858992
 C     10   9   1     1.509934709880   113.54809638   121.30995991
 C     11  10   9     1.385601032530   122.20696024   338.24294854
 C     12  11  10     1.388858585192   121.30696894   180.45082586
 C     13  12  11     1.384115305135   119.21827643   359.80198266
 C     14  13  12     1.388542085379   120.65326185     0.27531242
 C     15  14  13     1.389972830033   119.77823932     0.14654245
 O     16  15  14     1.349842934305   123.86294264   178.96339387
 C     17  16  15     1.415270470364   118.15935136     2.36199088
 N      9   1   2     1.313754732286    70.99665432   265.75924754
 O     19   9   1     1.215916971758   132.75093871   171.59840530
 H     10   9   1     1.091242369079   111.06916820   244.69927964
 H     12  11  10     1.084821428325   119.19960143     0.76057063
 H     13  12  11     1.083241761343   120.14712761   179.90067030
 H     14  13  12     1.084210461472   120.24891877   179.95655939
 H     15  14  13     1.081467786296   119.68696303   179.48116725
 H     18  17  16     1.093241584596   111.11871026   298.96753753
 H     18  17  16     1.087995572632   106.01742790   180.06907421
 H     18  17  16     1.093754342456   111.06582565    61.04768361
 O     19   9   1     1.405964598650   111.46629634   349.73296844
 H      5   4   2     1.089820614906   110.09281211    61.25384684
 C      9   1   2     1.420416313903   165.13206292    49.36868107
 H     31   9  19     1.085475105878   117.10733718     2.18089952
 C     31   9  19     1.341364422469   123.31587505   182.34963443
 H     33  31   9     1.083253891854   122.15549426     0.40559198
 C     33  31   9     1.465491436304   120.45321068   179.98013896
 O     35  33  31     1.212052137008   125.75213626     1.35941777
 O     35  33  31     1.335223720173   110.82632695   181.40437245
 C     37  35  33     1.427704440066   116.08265343   180.15418543
 H     38  37  35     1.090597715855   110.40888947    61.10639540
 H     38  37  35     1.087067318748   105.76637763   180.46830728
 H     38  37  35     1.090510113382   110.44572052   299.89517972

---------------------------
INTERNAL COORDINATES (A.U.)
---------------------------
 C      0   0   0     0.000000000000     0.00000000     0.00000000
 C      1   0   0     2.870436177122     0.00000000     0.00000000
 O      2   1   0     2.274290438407   124.58595394     0.00000000
 O      2   1   3     2.497423246587   110.16442690   180.77966778
 C      4   2   1     2.708028841780   116.31312733   177.80838516
 H      1   2   3     2.067175720608   110.39032464   227.74736766
 H      5   4   2     2.059576417161   110.10097176   300.04620584
 H      5   4   2     2.053131058699   105.61294648   180.63476910
 C      1   2   3     4.369751719417   107.24303744    60.02454815
 C      9   1   2     2.817139016676    41.23895150   103.22858992
 C     10   9   1     2.853363081774   113.54809638   121.30995991
 C     11  10   9     2.618406482359   122.20696024   338.24294854
 C     12  11  10     2.624562364758   121.30696894   180.45082586
 C     13  12  11     2.615598864473   119.21827643   359.80198266
 C     14  13  12     2.623964266791   120.65326185     0.27531242
 C     15  14  13     2.626667982353   119.77823932     0.14654245
 O     16  15  14     2.550833469645   123.86294264   178.96339387
 C     17  16  15     2.674473594413   118.15935136     2.36199088
 N      9   1   2     2.482636651163    70.99665432   265.75924754
 O     19   9   1     2.297750078209   132.75093871   171.59840530
 H     10   9   1     2.062149223291   111.06916820   244.69927964
 H     12  11  10     2.050015403744   119.19960143     0.76057063
 H     13  12  11     2.047030265764   120.14712761   179.90067030
 H     14  13  12     2.048860843715   120.24891877   179.95655939
 H     15  14  13     2.043677938757   119.68696303   179.48116725
 H     18  17  16     2.065927193101   111.11871026   298.96753753
 H     18  17  16     2.056013667193   106.01742790   180.06907421
 H     18  17  16     2.066896165029   111.06582565    61.04768361
 O     19   9   1     2.656888045437   111.46629634   349.73296844
 H      5   4   2     2.059462497275   110.09281211    61.25384684
 C      9   1   2     2.684197829431   165.13206292    49.36868107
 H     31   9  19     2.051250675299   117.10733718     2.18089952
 C     31   9  19     2.534811404252   123.31587505   182.34963443
 H     33  31   9     2.047053189108   122.15549426     0.40559198
 C     33  31   9     2.769377466221   120.45321068   179.98013896
 O     35  33  31     2.290446598979   125.75213626     1.35941777
 O     35  33  31     2.523207158643   110.82632695   181.40437245
 C     37  35  33     2.697970391909   116.08265343   180.15418543
 H     38  37  35     2.060931005247   110.40888947    61.10639540
 H     38  37  35     2.054259521570   105.76637763   180.46830728
 H     38  37  35     2.060765460564   110.44572052   299.89517972

---------------------
BASIS SET INFORMATION
---------------------
There are 4 groups of distinct atoms

 Group   1 Type C   : 11s6p2d1f contracted to 5s3p2d1f pattern {62111/411/11/1}
 Group   2 Type O   : 11s6p2d1f contracted to 5s3p2d1f pattern {62111/411/11/1}
 Group   3 Type H   : 5s1p contracted to 3s1p pattern {311/1}
 Group   4 Type N   : 11s6p2d1f contracted to 5s3p2d1f pattern {62111/411/11/1}

Atom   0C    basis set group =>   1
Atom   1C    basis set group =>   1
Atom   2O    basis set group =>   2
Atom   3O    basis set group =>   2
Atom   4C    basis set group =>   1
Atom   5H    basis set group =>   3
Atom   6H    basis set group =>   3
Atom   7H    basis set group =>   3
Atom   8C    basis set group =>   1
Atom   9C    basis set group =>   1
Atom  10C    basis set group =>   1
Atom  11C    basis set group =>   1
Atom  12C    basis set group =>   1
Atom  13C    basis set group =>   1
Atom  14C    basis set group =>   1
Atom  15C    basis set group =>   1
Atom  16O    basis set group =>   2
Atom  17C    basis set group =>   1
Atom  18N    basis set group =>   4
Atom  19O    basis set group =>   2
Atom  20H    basis set group =>   3
Atom  21H    basis set group =>   3
Atom  22H    basis set group =>   3
Atom  23H    basis set group =>   3
Atom  24H    basis set group =>   3
Atom  25H    basis set group =>   3
Atom  26H    basis set group =>   3
Atom  27H    basis set group =>   3
Atom  28O    basis set group =>   2
Atom  29H    basis set group =>   3
Atom  30C    basis set group =>   1
Atom  31H    basis set group =>   3
Atom  32C    basis set group =>   1
Atom  33H    basis set group =>   3
Atom  34C    basis set group =>   1
Atom  35O    basis set group =>   2
Atom  36O    basis set group =>   2
Atom  37C    basis set group =>   1
Atom  38H    basis set group =>   3
Atom  39H    basis set group =>   3
Atom  40H    basis set group =>   3
---------------------------------
AUXILIARY/J BASIS SET INFORMATION
---------------------------------
There are 4 groups of distinct atoms

 Group   1 Type C   : 12s5p4d2f1g contracted to 6s4p3d1f1g pattern {711111/2111/211/2/1}
 Group   2 Type O   : 12s5p4d2f1g contracted to 6s4p3d1f1g pattern {711111/2111/211/2/1}
 Group   3 Type H   : 5s2p1d contracted to 3s1p1d pattern {311/2/1}
 Group   4 Type N   : 12s5p4d2f1g contracted to 6s4p3d1f1g pattern {711111/2111/211/2/1}

Atom   0C    basis set group =>   1
Atom   1C    basis set group =>   1
Atom   2O    basis set group =>   2
Atom   3O    basis set group =>   2
Atom   4C    basis set group =>   1
Atom   5H    basis set group =>   3
Atom   6H    basis set group =>   3
Atom   7H    basis set group =>   3
Atom   8C    basis set group =>   1
Atom   9C    basis set group =>   1
Atom  10C    basis set group =>   1
Atom  11C    basis set group =>   1
Atom  12C    basis set group =>   1
Atom  13C    basis set group =>   1
Atom  14C    basis set group =>   1
Atom  15C    basis set group =>   1
Atom  16O    basis set group =>   2
Atom  17C    basis set group =>   1
Atom  18N    basis set group =>   4
Atom  19O    basis set group =>   2
Atom  20H    basis set group =>   3
Atom  21H    basis set group =>   3
Atom  22H    basis set group =>   3
Atom  23H    basis set group =>   3
Atom  24H    basis set group =>   3
Atom  25H    basis set group =>   3
Atom  26H    basis set group =>   3
Atom  27H    basis set group =>   3
Atom  28O    basis set group =>   2
Atom  29H    basis set group =>   3
Atom  30C    basis set group =>   1
Atom  31H    basis set group =>   3
Atom  32C    basis set group =>   1
Atom  33H    basis set group =>   3
Atom  34C    basis set group =>   1
Atom  35O    basis set group =>   2
Atom  36O    basis set group =>   2
Atom  37C    basis set group =>   1
Atom  38H    basis set group =>   3
Atom  39H    basis set group =>   3
Atom  40H    basis set group =>   3


           ************************************************************
           *        Program running with 24 parallel MPI-processes    *
           *              working on a common directory               *
           ************************************************************
------------------------------------------------------------------------------
                           ORCA GTO INTEGRAL CALCULATION
                           -- RI-GTO INTEGRALS CHOSEN --
------------------------------------------------------------------------------
------------------------------------------------------------------------------
                   ___                                                        
                  /   \      - P O W E R E D   B Y -                         
                 /     \                                                     
                 |  |  |   _    _      __       _____    __    __             
                 |  |  |  | |  | |    /  \     |  _  \  |  |  /  |          
                  \  \/   | |  | |   /    \    | | | |  |  | /  /          
                 / \  \   | |__| |  /  /\  \   | |_| |  |  |/  /          
                |  |  |   |  __  | /  /__\  \  |    /   |      \           
                |  |  |   | |  | | |   __   |  |    \   |  |\   \          
                \     /   | |  | | |  |  |  |  | |\  \  |  | \   \       
                 \___/    |_|  |_| |__|  |__|  |_| \__\ |__|  \__/        
                                                                              
                      - O R C A' S   B I G   F R I E N D -                    
                                      &                                       
                       - I N T E G R A L  F E E D E R -                       
                                                                              
 v1 FN, 2020, v2 2021                                                         
------------------------------------------------------------------------------


Reading SHARK input file 4_CHCHCO2Me_free/4_CHCHCO2Me_free.SHARKINP.tmp ... ok
----------------------
SHARK INTEGRAL PACKAGE
----------------------

Number of atoms                             ...     41
Number of basis functions                   ...    846
Number of shells                            ...    332
Maximum angular momentum                    ...      3
Integral batch strategy                     ... SHARK/LIBINT Hybrid
RI-J (if used) integral strategy            ... SPLIT-RIJ (Revised 2003 algorithm where possible)
Printlevel                                  ...      1
Contraction scheme used                     ... SEGMENTED contraction
Coulomb Range Separation                    ... NOT USED
Exchange Range Separation                   ... NOT USED
Finite Nucleus Model                        ... NOT USED
Auxiliary Coulomb fitting basis             ... AVAILABLE
   # of basis functions in Aux-J            ...   1363
   # of shells in Aux-J                     ...    445
   Maximum angular momentum in Aux-J        ...      4
Auxiliary J/K fitting basis                 ... NOT available
Auxiliary Correlation fitting basis         ... NOT available
Auxiliary 'external' fitting basis          ... NOT available
Integral threshold                          ...     2.500000e-11
Primitive cut-off                           ...     2.500000e-12
Primitive pair pre-selection threshold      ...     2.500000e-12

Calculating pre-screening integrals         ... done (  0.1 sec) Dimension = 332
Organizing shell pair data                  ... done (  0.5 sec)
Shell pair information
Total number of shell pairs                 ...     55278
Shell pairs after pre-screening             ...     37169
Total number of primitive shell pairs       ...    170232
Primitive shell pairs kept                  ...     74877
          la=0 lb=0:   9523 shell pairs
          la=1 lb=0:  10754 shell pairs
          la=1 lb=1:   3048 shell pairs
          la=2 lb=0:   5263 shell pairs
          la=2 lb=1:   3038 shell pairs
          la=2 lb=2:    769 shell pairs
          la=3 lb=0:   2474 shell pairs
          la=3 lb=1:   1444 shell pairs
          la=3 lb=2:    685 shell pairs
          la=3 lb=3:    171 shell pairs

Calculating one electron integrals          ... done (  0.1 sec)
Calculating RI/J V-Matrix + Cholesky decomp.... done (  0.2 sec)
Calculating Nuclear repulsion               ... done (  0.0 sec) ENN=   2132.697157232693 Eh

SHARK setup successfully completed in   1.5 seconds

Maximum memory used throughout the entire GTOINT-calculation: 57.5 MB


           ************************************************************
           *        Program running with 24 parallel MPI-processes    *
           *              working on a common directory               *
           ************************************************************
-------------------------------------------------------------------------------
                                 ORCA SCF
-------------------------------------------------------------------------------

------------
SCF SETTINGS
------------
Hamiltonian:
 Density Functional     Method          .... DFT(GTOs)
 Exchange Functional    Exchange        .... PBE
   PBE kappa parameter   XKappa         ....  0.804000
   PBE mue parameter    XMuePBE         ....  0.219520
 Correlation Functional Correlation     .... PBE
   PBE beta parameter  CBetaPBE         ....  0.066725
 LDA part of GGA corr.  LDAOpt          .... PW91-LDA
 Gradients option       PostSCFGGA      .... off
 Hybrid DFT is turned on
   Fraction HF Exchange ScalHFX         ....  0.250000
   Scaling of DF-GGA-X  ScalDFX         ....  0.750000
   Scaling of DF-GGA-C  ScalDFC         ....  1.000000
   Scaling of DF-LDA-C  ScalLDAC        ....  1.000000
   Perturbative correction              ....  0.000000
   Density functional embedding theory  .... OFF
   NL short-range parameter             ....  6.900000
 RI-approximation to the Coulomb term is turned on
   Number of AuxJ basis functions       .... 1363
   RIJ-COSX (HFX calculated with COS-X)).... on


General Settings:
 Integral files         IntName         .... 4_CHCHCO2Me_free/4_CHCHCO2Me_free
 Hartree-Fock type      HFTyp           .... RHF
 Total Charge           Charge          ....    0
 Multiplicity           Mult            ....    1
 Number of Electrons    NEL             ....  176
 Basis Dimension        Dim             ....  846
 Nuclear Repulsion      ENuc            ....   2132.6971572327 Eh

Convergence Acceleration:
 DIIS                   CNVDIIS         .... on
   Start iteration      DIISMaxIt       ....    12
   Startup error        DIISStart       ....  0.200000
   # of expansion vecs  DIISMaxEq       ....     5
   Bias factor          DIISBfac        ....   1.050
   Max. coefficient     DIISMaxC        ....  10.000
 Trust-Rad. Augm. Hess. CNVTRAH         .... auto
   Auto Start mean grad. ratio tolernc. ....  1.125000
   Auto Start start iteration           ....    20
   Auto Start num. interpolation iter.  ....    10
   Max. Number of Micro iterations      ....    16
   Max. Number of Macro iterations      .... Maxiter - #DIIS iter
   Number of Davidson start vectors     ....     2
   Converg. threshold I  (grad. norm)   ....   1.000e-05
   Converg. threshold II (energy diff.) ....   1.000e-08
   Grad. Scal. Fac. for Micro threshold ....   0.100
   Minimum threshold for Micro iter.    ....   0.010
   NR start threshold (gradient norm)   ....   0.001
   Initial trust radius                 ....   0.400
   Minimum AH scaling param. (alpha)    ....   1.000
   Maximum AH scaling param. (alpha)    .... 1000.000
   Orbital update algorithm             .... Taylor
   White noise on init. David. guess    .... on
   Maximum white noise                  ....   0.010
   Quad. conv. algorithm                .... NR
 SOSCF                  CNVSOSCF        .... on
   Start iteration      SOSCFMaxIt      ....   150
   Startup grad/error   SOSCFStart      ....  0.003300
 Level Shifting         CNVShift        .... on
   Level shift para.    LevelShift      ....    0.2500
   Turn off err/grad.   ShiftErr        ....    0.0010
 Zerner damping         CNVZerner       .... off
 Static damping         CNVDamp         .... on
   Fraction old density DampFac         ....    0.7000
   Max. Damping (<1)    DampMax         ....    0.9800
   Min. Damping (>=0)   DampMin         ....    0.0000
   Turn off err/grad.   DampErr         ....    0.1000
 Fernandez-Rico         CNVRico         .... off

SCF Procedure:
 Maximum # iterations   MaxIter         ....   800
 SCF integral mode      SCFMode         .... Direct
   Integral package                     .... SHARK and LIBINT hybrid scheme
 Reset frequency        DirectResetFreq ....    20
 Integral Threshold     Thresh          ....  2.500e-11 Eh
 Primitive CutOff       TCut            ....  2.500e-12 Eh

Convergence Tolerance:
 Convergence Check Mode ConvCheckMode   .... Total+1el-Energy
 Convergence forced     ConvForced      .... 0
 Energy Change          TolE            ....  1.000e-08 Eh
 1-El. energy change                    ....  1.000e-05 Eh
 Orbital Gradient       TolG            ....  1.000e-05
 Orbital Rotation angle TolX            ....  1.000e-05
 DIIS Error             TolErr          ....  5.000e-07


Diagonalization of the overlap matrix:
Smallest eigenvalue                        ... 6.278e-06
Time for diagonalization                   ...    0.220 sec
Threshold for overlap eigenvalues          ... 1.000e-08
Number of eigenvalues below threshold      ... 0
Time for construction of square roots      ...    0.123 sec
Total time needed                          ...    0.349 sec

Time for model grid setup =    0.348 sec

------------------------------
INITIAL GUESS: MODEL POTENTIAL
------------------------------
Loading Hartree-Fock densities                     ... done
Calculating cut-offs                               ... done
Initializing the effective Hamiltonian             ... done
Setting up the integral package (SHARK)            ... done
Starting the Coulomb interaction                   ... done (   0.3 sec)
Reading the grid                                   ... done
Mapping shells                                     ... done
Starting the XC term evaluation                    ... done (   0.2 sec)
  promolecular density results
     # of electrons  =    175.989301560
     EX              =   -150.566997640
     EC              =     -5.960840779
     EX+EC           =   -156.527838419
Transforming the Hamiltonian                       ... done (   0.1 sec)
Diagonalizing the Hamiltonian                      ... done (   0.2 sec)
Back transforming the eigenvectors                 ... done (   0.0 sec)
Now organizing SCF variables                       ... done
                      ------------------
                      INITIAL GUESS DONE (   1.5 sec)
                      ------------------
-------------------
DFT GRID GENERATION
-------------------

General Integration Accuracy     IntAcc      ... 4.388
Radial Grid Type                 RadialGrid  ... OptM3 with GC (2021)
Angular Grid (max. ang.)         AngularGrid ... 4 (Lebedev-302)
Angular grid pruning method      GridPruning ... 4 (adaptive)
Weight generation scheme         WeightScheme... Becke
Basis function cutoff            BFCut       ... 1.0000e-11
Integration weight cutoff        WCut        ... 1.0000e-14
Angular grids for H and He will be reduced by one unit
Partially contracted basis set               ... off
Rotationally invariant grid construction     ... off

Total number of grid points                  ...   198118
Total number of batches                      ...     3115
Average number of points per batch           ...       63
Average number of grid points per atom       ...     4832
Time for grid setup =    1.495 sec

--------------------
COSX GRID GENERATION
--------------------

GRIDX 1
-------
General Integration Accuracy     IntAcc      ... 3.816
Radial Grid Type                 RadialGrid  ... OptM3 with GC (2021)
Angular Grid (max. ang.)         AngularGrid ... 1 (Lebedev-50)
Angular grid pruning method      GridPruning ... 4 (adaptive)
Weight generation scheme         WeightScheme... Becke
Basis function cutoff            BFCut       ... 1.0000e-11
Integration weight cutoff        WCut        ... 1.0000e-14
Angular grids for H and He will be reduced by one unit
Partially contracted basis set               ... on
Rotationally invariant grid construction     ... off

Total number of grid points                  ...    25165
Total number of batches                      ...      413
Average number of points per batch           ...       60
Average number of grid points per atom       ...      614
UseSFitting                                  ... on

GRIDX 2
-------
General Integration Accuracy     IntAcc      ... 4.020
Radial Grid Type                 RadialGrid  ... OptM3 with GC (2021)
Angular Grid (max. ang.)         AngularGrid ... 2 (Lebedev-110)
Angular grid pruning method      GridPruning ... 4 (adaptive)
Weight generation scheme         WeightScheme... Becke
Basis function cutoff            BFCut       ... 1.0000e-11
Integration weight cutoff        WCut        ... 1.0000e-14
Angular grids for H and He will be reduced by one unit
Partially contracted basis set               ... on
Rotationally invariant grid construction     ... off

Total number of grid points                  ...    54893
Total number of batches                      ...      879
Average number of points per batch           ...       62
Average number of grid points per atom       ...     1339
UseSFitting                                  ... on

GRIDX 3
-------
General Integration Accuracy     IntAcc      ... 4.338
Radial Grid Type                 RadialGrid  ... OptM3 with GC (2021)
Angular Grid (max. ang.)         AngularGrid ... 3 (Lebedev-194)
Angular grid pruning method      GridPruning ... 4 (adaptive)
Weight generation scheme         WeightScheme... Becke
Basis function cutoff            BFCut       ... 1.0000e-11
Integration weight cutoff        WCut        ... 1.0000e-14
Angular grids for H and He will be reduced by one unit
Partially contracted basis set               ... on
Rotationally invariant grid construction     ... off

Total number of grid points                  ...   120087
Total number of batches                      ...     1896
Average number of points per batch           ...       63
Average number of grid points per atom       ...     2929
UseSFitting                                  ... on

Time for X-Grid setup             =    2.280 sec


--------------------
CPCM SOLVATION MODEL
--------------------
CPCM parameters:
  Epsilon                                         ...      47.2000
  Refrac                                          ...       1.4790
  Rsolv                                           ...       1.3000
  Surface type                                    ... GAUSSIAN VDW
  Epsilon function type                           ...         CPCM
Radii:
 Radius for C  used is    3.8550 Bohr (=   2.0400 Ang.)
 Radius for O  used is    3.4469 Bohr (=   1.8240 Ang.)
 Radius for H  used is    2.4944 Bohr (=   1.3200 Ang.)
 Radius for N  used is    3.5149 Bohr (=   1.8600 Ang.)
Calculating surface                               ...        done! (  0.0s)
GEPOL surface points                              ...         2186
GEPOL Volume                                      ...    2558.2196
GEPOL Surface-area                                ...    1334.8779
Calculating surface distance matrix               ...        done! (  0.1s)
Performing Cholesky decomposition & store         ...        done! (  0.3s)
Overall time for CPCM initialization              ...                 0.4s
--------------
SCF ITERATIONS
--------------
ITER       Energy         Delta-E        Max-DP      RMS-DP      [F,P]     Damp
               ***  Starting incremental Fock matrix formation  ***
  0  -1199.7348032262   0.000000000000 0.24992795  0.00085583  0.2765716 0.7000
  1  -1199.9920766516  -0.257273425361 0.22214236  0.00072023  0.1130003 0.7000
                               ***Turning on DIIS***
  2  -1200.0914592314  -0.099382579796 0.33622291  0.00122860  0.0346806 0.0000
  3  -1200.2591059724  -0.167646740965 0.15001985  0.00053059  0.0605799 0.0000
  4  -1200.2890305459  -0.029924573512 0.03351290  0.00015289  0.0144965 0.0000
  5  -1200.2911471917  -0.002116645825 0.02137131  0.00006504  0.0059557 0.0000
                      *** Initiating the SOSCF procedure ***
                           *** Shutting down DIIS ***
                      *** Re-Reading the Fockian *** 
                      *** Removing any level shift *** 
ITER      Energy       Delta-E        Grad      Rot      Max-DP    RMS-DP
  6  -1200.29129994  -0.0001527476  0.000652  0.000652  0.003000  0.000019
               *** Restarting incremental Fock matrix formation ***
  7  -1200.29132631  -0.0000263719  0.000379  0.002369  0.001412  0.000017
  8  -1200.29132624   0.0000000756  0.000476  0.001042  0.003445  0.000012
  9  -1200.29133166  -0.0000054294  0.000134  0.000386  0.001063  0.000005
 10  -1200.29133154   0.0000001215  0.000064  0.000072  0.000813  0.000002
 11  -1200.29133207  -0.0000005237  0.000008  0.000048  0.000367  0.000002
 12  -1200.29133207  -0.0000000012  0.000006  0.000015  0.000213  0.000001
                  ***Gradient check signals convergence***
              ***Rediagonalizing the Fockian in SOSCF/NRSCF***

               *****************************************************
               *                     SUCCESS                       *
               *           SCF CONVERGED AFTER  13 CYCLES          *
               *****************************************************

Old exchange energy                            =    -38.316208962 Eh
New exchange energy                            =    -38.316161164 Eh
Exchange energy change after final integration =      0.000047798 Eh
Total energy after final integration           =  -1200.291284275 Eh
Final COS-X integration done in                =    14.493 sec

----------------
TOTAL SCF ENERGY
----------------

Total Energy       :        -1200.29128427 Eh          -32661.58633 eV

Components:
Nuclear Repulsion  :         2132.69715723 Eh           58033.64002 eV
Electronic Energy  :        -3332.98844151 Eh          -90695.22635 eV
One Electron Energy:        -5878.44814654 Eh         -159960.70631 eV
Two Electron Energy:         2545.45970504 Eh           69265.47996 eV
Max COSX asymmetry :            0.00000280 Eh               0.00008 eV
CPCM Dielectric    :           -0.03406794 Eh              -0.92704 eV

Virial components:
Potential Energy   :        -2395.46879142 Eh          -65184.01971 eV
Kinetic Energy     :         1195.17750714 Eh           32522.43338 eV
Virial Ratio       :            2.00427868


DFT components:
N(Alpha)           :       88.000190445974 electrons
N(Beta)            :       88.000190445974 electrons
N(Total)           :      176.000380891947 electrons
E(X)               :     -114.801498091851 Eh       
E(C)               :       -5.960037078905 Eh       
E(XC)              :     -120.761535170756 Eh       
DFET-embed. en.    :        0.000000000000 Eh       
CPCM Solvation Model Properties:
Surface-charge          :           -0.02895449
Charge-correction       :           -0.00015688 Eh              -0.00427 eV
Free-energy (cav+disp)  :  This term is not implemented in the current solvation scheme

---------------
SCF CONVERGENCE
---------------

  Last Energy change         ...   -4.4786e-09  Tolerance :   1.0000e-08
  Last MAX-Density change    ...    1.4433e-15  Tolerance :   1.0000e-07
  Last RMS-Density change    ...    1.3266e-17  Tolerance :   5.0000e-09
  Last Orbital Gradient      ...    1.2515e-06  Tolerance :   1.0000e-05
  Last Orbital Rotation      ...    6.4791e-06  Tolerance :   1.0000e-05

             **** THE GBW FILE WAS UPDATED (4_CHCHCO2Me_free/4_CHCHCO2Me_free.gbw) ****
             **** DENSITY 4_CHCHCO2Me_free/4_CHCHCO2Me_free.scfp WAS UPDATED ****
             **** ENERGY FILE WAS UPDATED (4_CHCHCO2Me_free/4_CHCHCO2Me_free.en.tmp) ****
             **** THE GBW FILE WAS UPDATED (4_CHCHCO2Me_free/4_CHCHCO2Me_free.gbw) ****
             **** DENSITY 4_CHCHCO2Me_free/4_CHCHCO2Me_free.scfp WAS UPDATED ****
----------------
ORBITAL ENERGIES
----------------

  NO   OCC          E(Eh)            E(eV) 
   0   2.0000     -19.294338      -525.0256 
   1   2.0000     -19.271541      -524.4053 
   2   2.0000     -19.260869      -524.1149 
   3   2.0000     -19.248215      -523.7706 
   4   2.0000     -19.237789      -523.4869 
   5   2.0000     -19.213028      -522.8131 
   6   2.0000     -19.197508      -522.3908 
   7   2.0000     -14.602941      -397.3662 
   8   2.0000     -10.366923      -282.0983 
   9   2.0000     -10.356581      -281.8169 
  10   2.0000     -10.318228      -280.7733 
  11   2.0000     -10.294772      -280.1350 
  12   2.0000     -10.293915      -280.1117 
  13   2.0000     -10.274062      -279.5714 
  14   2.0000     -10.273958      -279.5686 
  15   2.0000     -10.268890      -279.4307 
  16   2.0000     -10.267721      -279.3989 
  17   2.0000     -10.263988      -279.2973 
  18   2.0000     -10.246712      -278.8272 
  19   2.0000     -10.244495      -278.7669 
  20   2.0000     -10.233492      -278.4675 
  21   2.0000     -10.231528      -278.4140 
  22   2.0000     -10.227763      -278.3116 
  23   2.0000     -10.223389      -278.1926 
  24   2.0000      -1.251848       -34.0645 
  25   2.0000      -1.162455       -31.6320 
  26   2.0000      -1.147386       -31.2219 
  27   2.0000      -1.115417       -30.3520 
  28   2.0000      -1.110988       -30.2315 
  29   2.0000      -1.068905       -29.0864 
  30   2.0000      -1.053961       -28.6797 
  31   2.0000      -0.933785       -25.4096 
  32   2.0000      -0.893780       -24.3210 
  33   2.0000      -0.848985       -23.1021 
  34   2.0000      -0.836297       -22.7568 
  35   2.0000      -0.796328       -21.6692 
  36   2.0000      -0.781188       -21.2572 
  37   2.0000      -0.765263       -20.8239 
  38   2.0000      -0.755724       -20.5643 
  39   2.0000      -0.724809       -19.7231 
  40   2.0000      -0.708832       -19.2883 
  41   2.0000      -0.681389       -18.5415 
  42   2.0000      -0.635735       -17.2992 
  43   2.0000      -0.634221       -17.2580 
  44   2.0000      -0.615012       -16.7353 
  45   2.0000      -0.592859       -16.1325 
  46   2.0000      -0.584185       -15.8965 
  47   2.0000      -0.579321       -15.7641 
  48   2.0000      -0.563141       -15.3239 
  49   2.0000      -0.554502       -15.0888 
  50   2.0000      -0.548453       -14.9242 
  51   2.0000      -0.532768       -14.4974 
  52   2.0000      -0.522624       -14.2213 
  53   2.0000      -0.521925       -14.2023 
  54   2.0000      -0.512503       -13.9459 
  55   2.0000      -0.507551       -13.8112 
  56   2.0000      -0.507225       -13.8023 
  57   2.0000      -0.503148       -13.6914 
  58   2.0000      -0.492893       -13.4123 
  59   2.0000      -0.487405       -13.2630 
  60   2.0000      -0.476984       -12.9794 
  61   2.0000      -0.460988       -12.5441 
  62   2.0000      -0.457801       -12.4574 
  63   2.0000      -0.450670       -12.2634 
  64   2.0000      -0.444136       -12.0856 
  65   2.0000      -0.436423       -11.8757 
  66   2.0000      -0.431567       -11.7435 
  67   2.0000      -0.425190       -11.5700 
  68   2.0000      -0.421013       -11.4563 
  69   2.0000      -0.411729       -11.2037 
  70   2.0000      -0.403705       -10.9854 
  71   2.0000      -0.388337       -10.5672 
  72   2.0000      -0.387437       -10.5427 
  73   2.0000      -0.386692       -10.5224 
  74   2.0000      -0.377306       -10.2670 
  75   2.0000      -0.372252       -10.1295 
  76   2.0000      -0.358224        -9.7478 
  77   2.0000      -0.349110        -9.4998 
  78   2.0000      -0.345076        -9.3900 
  79   2.0000      -0.339674        -9.2430 
  80   2.0000      -0.337588        -9.1862 
  81   2.0000      -0.330399        -8.9906 
  82   2.0000      -0.327587        -8.9141 
  83   2.0000      -0.312812        -8.5120 
  84   2.0000      -0.306684        -8.3453 
  85   2.0000      -0.273594        -7.4449 
  86   2.0000      -0.247638        -6.7386 
  87   2.0000      -0.243031        -6.6132 
  88   0.0000      -0.087578        -2.3831 
  89   0.0000      -0.021422        -0.5829 
  90   0.0000      -0.005650        -0.1537 
  91   0.0000       0.001143         0.0311 
  92   0.0000       0.014361         0.3908 
  93   0.0000       0.042803         1.1647 
  94   0.0000       0.056581         1.5396 
  95   0.0000       0.063867         1.7379 
  96   0.0000       0.065786         1.7901 
  97   0.0000       0.076216         2.0739 
  98   0.0000       0.077412         2.1065 
  99   0.0000       0.082312         2.2398 
 100   0.0000       0.083895         2.2829 
 101   0.0000       0.086807         2.3621 
 102   0.0000       0.092877         2.5273 
 103   0.0000       0.096326         2.6212 
 104   0.0000       0.098912         2.6915 
 105   0.0000       0.107937         2.9371 
 106   0.0000       0.116519         3.1707 
 107   0.0000       0.124152         3.3784 
 108   0.0000       0.127551         3.4708 
 109   0.0000       0.132803         3.6138 
 110   0.0000       0.134633         3.6636 
 111   0.0000       0.138142         3.7590 
 112   0.0000       0.141383         3.8472 
 113   0.0000       0.143935         3.9167 
 114   0.0000       0.150504         4.0954 
 115   0.0000       0.153156         4.1676 
 116   0.0000       0.156222         4.2510 
 117   0.0000       0.160543         4.3686 
 118   0.0000       0.165682         4.5084 
 119   0.0000       0.170051         4.6273 
 120   0.0000       0.187193         5.0938 
 121   0.0000       0.194180         5.2839 
 122   0.0000       0.198094         5.3904 
 123   0.0000       0.204665         5.5692 
 124   0.0000       0.208376         5.6702 
 125   0.0000       0.212811         5.7909 
 126   0.0000       0.216994         5.9047 
 127   0.0000       0.219073         5.9613 
 128   0.0000       0.221377         6.0240 
 129   0.0000       0.226949         6.1756 
 130   0.0000       0.227660         6.1950 
 131   0.0000       0.236166         6.4264 
 132   0.0000       0.240094         6.5333 
 133   0.0000       0.241591         6.5740 
 134   0.0000       0.244624         6.6566 
 135   0.0000       0.251433         6.8418 
 136   0.0000       0.254771         6.9327 
 137   0.0000       0.261938         7.1277 
 138   0.0000       0.267074         7.2675 
 139   0.0000       0.268212         7.2984 
 140   0.0000       0.281347         7.6558 
 141   0.0000       0.283957         7.7269 
 142   0.0000       0.289559         7.8793 
 143   0.0000       0.294106         8.0030 
 144   0.0000       0.297940         8.1074 
 145   0.0000       0.301906         8.2153 
 146   0.0000       0.308339         8.3903 
 147   0.0000       0.315249         8.5784 
 148   0.0000       0.318521         8.6674 
 149   0.0000       0.322748         8.7824 
 150   0.0000       0.326071         8.8728 
 151   0.0000       0.327246         8.9048 
 152   0.0000       0.332477         9.0472 
 153   0.0000       0.339743         9.2449 
 154   0.0000       0.342810         9.3283 
 155   0.0000       0.344263         9.3679 
 156   0.0000       0.348862         9.4930 
 157   0.0000       0.359242         9.7755 
 158   0.0000       0.361107         9.8262 
 159   0.0000       0.371300        10.1036 
 160   0.0000       0.371675        10.1138 
 161   0.0000       0.375048        10.2056 
 162   0.0000       0.378404        10.2969 
 163   0.0000       0.384749        10.4695 
 164   0.0000       0.389502        10.5989 
 165   0.0000       0.392990        10.6938 
 166   0.0000       0.397252        10.8098 
 167   0.0000       0.400682        10.9031 
 168   0.0000       0.402657        10.9569 
 169   0.0000       0.405184        11.0256 
 170   0.0000       0.416449        11.3321 
 171   0.0000       0.417184        11.3522 
 172   0.0000       0.423135        11.5141 
 173   0.0000       0.423616        11.5272 
 174   0.0000       0.427458        11.6317 
 175   0.0000       0.435352        11.8465 
 176   0.0000       0.442674        12.0458 
 177   0.0000       0.444357        12.0916 
 178   0.0000       0.450402        12.2561 
 179   0.0000       0.451400        12.2832 
 180   0.0000       0.455828        12.4037 
 181   0.0000       0.459439        12.5020 
 182   0.0000       0.463985        12.6257 
 183   0.0000       0.467045        12.7089 
 184   0.0000       0.471106        12.8195 
 185   0.0000       0.471556        12.8317 
 186   0.0000       0.474027        12.8989 
 187   0.0000       0.475472        12.9383 
 188   0.0000       0.478400        13.0179 
 189   0.0000       0.483749        13.1635 
 190   0.0000       0.492432        13.3998 
 191   0.0000       0.495047        13.4709 
 192   0.0000       0.496920        13.5219 
 193   0.0000       0.501814        13.6550 
 194   0.0000       0.505511        13.7557 
 195   0.0000       0.511202        13.9105 
 196   0.0000       0.514790        14.0082 
 197   0.0000       0.519289        14.1306 
 198   0.0000       0.521589        14.1932 
 199   0.0000       0.529964        14.4211 
 200   0.0000       0.542153        14.7527 
 201   0.0000       0.543918        14.8008 
 202   0.0000       0.547675        14.9030 
 203   0.0000       0.552962        15.0469 
 204   0.0000       0.558854        15.2072 
 205   0.0000       0.567306        15.4372 
 206   0.0000       0.572648        15.5826 
 207   0.0000       0.575298        15.6546 
 208   0.0000       0.579620        15.7723 
 209   0.0000       0.583692        15.8831 
 210   0.0000       0.590721        16.0743 
 211   0.0000       0.600719        16.3464 
 212   0.0000       0.606044        16.4913 
 213   0.0000       0.613337        16.6897 
 214   0.0000       0.618938        16.8422 
 215   0.0000       0.620979        16.8977 
 216   0.0000       0.624991        17.0069 
 217   0.0000       0.639397        17.3989 
 218   0.0000       0.642872        17.4934 
 219   0.0000       0.646928        17.6038 
 220   0.0000       0.647823        17.6282 
 221   0.0000       0.656492        17.8641 
 222   0.0000       0.659969        17.9587 
 223   0.0000       0.661623        18.0037 
 224   0.0000       0.671254        18.2658 
 225   0.0000       0.682052        18.5596 
 226   0.0000       0.691059        18.8047 
 227   0.0000       0.694487        18.8980 
 228   0.0000       0.701847        19.0982 
 229   0.0000       0.714431        19.4407 
 230   0.0000       0.718922        19.5629 
 231   0.0000       0.723044        19.6750 
 232   0.0000       0.731007        19.8917 
 233   0.0000       0.736772        20.0486 
 234   0.0000       0.741961        20.1898 
 235   0.0000       0.751313        20.4443 
 236   0.0000       0.757859        20.6224 
 237   0.0000       0.764639        20.8069 
 238   0.0000       0.768265        20.9055 
 239   0.0000       0.775181        21.0937 
 240   0.0000       0.778352        21.1800 
 241   0.0000       0.785098        21.3636 
 242   0.0000       0.790027        21.4977 
 243   0.0000       0.798823        21.7371 
 244   0.0000       0.806544        21.9472 
 245   0.0000       0.813789        22.1443 
 246   0.0000       0.823565        22.4104 
 247   0.0000       0.828749        22.5514 
 248   0.0000       0.832872        22.6636 
 249   0.0000       0.842161        22.9164 
 250   0.0000       0.851775        23.1780 
 251   0.0000       0.854519        23.2526 
 252   0.0000       0.863843        23.5064 
 253   0.0000       0.868951        23.6454 
 254   0.0000       0.873960        23.7817 
 255   0.0000       0.881586        23.9892 
 256   0.0000       0.888520        24.1778 
 257   0.0000       0.892417        24.2839 
 258   0.0000       0.900462        24.5028 
 259   0.0000       0.902214        24.5505 
 260   0.0000       0.908245        24.7146 
 261   0.0000       0.911995        24.8166 
 262   0.0000       0.922949        25.1147 
 263   0.0000       0.925862        25.1940 
 264   0.0000       0.936912        25.4947 
 265   0.0000       0.946715        25.7614 
 266   0.0000       0.953639        25.9498 
 267   0.0000       0.965281        26.2666 
 268   0.0000       0.968193        26.3459 
 269   0.0000       0.981586        26.7103 
 270   0.0000       0.988840        26.9077 
 271   0.0000       0.992607        27.0102 
 272   0.0000       0.998690        27.1757 
 273   0.0000       1.002891        27.2901 
 274   0.0000       1.009224        27.4624 
 275   0.0000       1.014274        27.5998 
 276   0.0000       1.021435        27.7947 
 277   0.0000       1.029963        28.0267 
 278   0.0000       1.041526        28.3414 
 279   0.0000       1.042942        28.3799 
 280   0.0000       1.056567        28.7506 
 281   0.0000       1.059799        28.8386 
 282   0.0000       1.066748        29.0277 
 283   0.0000       1.074737        29.2451 
 284   0.0000       1.084107        29.5000 
 285   0.0000       1.085679        29.5428 
 286   0.0000       1.089348        29.6427 
 287   0.0000       1.096459        29.8362 
 288   0.0000       1.103520        30.0283 
 289   0.0000       1.118815        30.4445 
 290   0.0000       1.126167        30.6446 
 291   0.0000       1.144638        31.1472 
 292   0.0000       1.153954        31.4007 
 293   0.0000       1.160255        31.5721 
 294   0.0000       1.169989        31.8370 
 295   0.0000       1.185237        32.2519 
 296   0.0000       1.192079        32.4381 
 297   0.0000       1.198452        32.6115 
 298   0.0000       1.213832        33.0301 
 299   0.0000       1.217710        33.1356 
 300   0.0000       1.219034        33.1716 
 301   0.0000       1.233939        33.5772 
 302   0.0000       1.235946        33.6318 
 303   0.0000       1.245759        33.8988 
 304   0.0000       1.254043        34.1243 
 305   0.0000       1.259533        34.2736 
 306   0.0000       1.270792        34.5800 
 307   0.0000       1.278435        34.7880 
 308   0.0000       1.288728        35.0681 
 309   0.0000       1.297579        35.3089 
 310   0.0000       1.312778        35.7225 
 311   0.0000       1.329934        36.1894 
 312   0.0000       1.339904        36.4606 
 313   0.0000       1.346471        36.6394 
 314   0.0000       1.360116        37.0106 
 315   0.0000       1.362952        37.0878 
 316   0.0000       1.372193        37.3393 
 317   0.0000       1.375346        37.4251 
 318   0.0000       1.384100        37.6633 
 319   0.0000       1.394488        37.9459 
 320   0.0000       1.409871        38.3645 
 321   0.0000       1.410783        38.3894 
 322   0.0000       1.427436        38.8425 
 323   0.0000       1.441728        39.2314 
 324   0.0000       1.444046        39.2945 
 325   0.0000       1.452095        39.5135 
 326   0.0000       1.463785        39.8316 
 327   0.0000       1.465257        39.8717 
 328   0.0000       1.475371        40.1469 
 329   0.0000       1.483592        40.3706 
 330   0.0000       1.486925        40.4613 
 331   0.0000       1.492928        40.6246 
 332   0.0000       1.496464        40.7209 
 333   0.0000       1.498105        40.7655 
 334   0.0000       1.505687        40.9718 
 335   0.0000       1.509468        41.0747 
 336   0.0000       1.513498        41.1844 
 337   0.0000       1.515915        41.2502 
 338   0.0000       1.521901        41.4130 
 339   0.0000       1.526292        41.5325 
 340   0.0000       1.531046        41.6619 
 341   0.0000       1.532763        41.7086 
 342   0.0000       1.540035        41.9065 
 343   0.0000       1.542406        41.9710 
 344   0.0000       1.545179        42.0465 
 345   0.0000       1.555022        42.3143 
 346   0.0000       1.555923        42.3388 
 347   0.0000       1.567500        42.6538 
 348   0.0000       1.578573        42.9552 
 349   0.0000       1.586657        43.1751 
 350   0.0000       1.589229        43.2451 
 351   0.0000       1.594445        43.3871 
 352   0.0000       1.601280        43.5730 
 353   0.0000       1.608085        43.7582 
 354   0.0000       1.614383        43.9296 
 355   0.0000       1.616869        43.9972 
 356   0.0000       1.626101        44.2485 
 357   0.0000       1.643283        44.7160 
 358   0.0000       1.643883        44.7323 
 359   0.0000       1.646530        44.8043 
 360   0.0000       1.659630        45.1608 
 361   0.0000       1.667519        45.3755 
 362   0.0000       1.673640        45.5420 
 363   0.0000       1.694371        46.1062 
 364   0.0000       1.699766        46.2530 
 365   0.0000       1.710547        46.5463 
 366   0.0000       1.725186        46.9447 
[...]
 10:     49.53   0.000168    0.85  0.001060  ( 0.024838 -0.005920  0.020205)
 11:     52.72   0.000244    1.23  0.001441  ( 0.002238  0.035512  0.013238)
 12:     80.46   0.000135    0.68  0.000524  ( 0.004354 -0.021568 -0.006302)
 13:     93.69   0.000111    0.56  0.000371  (-0.000370 -0.018048 -0.006725)
 14:     97.43   0.001112    5.62  0.003562  ( 0.053368 -0.023711  0.012295)
 15:    101.94   0.000222    1.12  0.000681  (-0.020814  0.002095 -0.015586)
 16:    129.39   0.000289    1.46  0.000696  ( 0.014273  0.012387  0.018409)
 17:    149.14   0.000130    0.66  0.000271  ( 0.011822 -0.011421  0.001081)
 18:    154.62   0.000480    2.42  0.000968  (-0.019339 -0.019244 -0.014954)
 19:    156.13   0.000097    0.49  0.000194  ( 0.009042  0.010568  0.000779)
 20:    165.15   0.000956    4.83  0.001806  (-0.032148  0.002955 -0.027644)
 21:    192.77   0.000336    1.70  0.000544  ( 0.011995 -0.019133 -0.005868)
 22:    216.17   0.002256   11.40  0.003256  ( 0.029585 -0.027024 -0.040628)
 23:    228.65   0.000539    2.72  0.000736  ( 0.020470  0.013446  0.011663)
 24:    237.88   0.000160    0.81  0.000211  (-0.005439  0.010515 -0.008391)
 25:    249.15   0.000725    3.66  0.000908  (-0.025977  0.008619 -0.012602)
 26:    257.25   0.002159   10.91  0.002620  ( 0.034890  0.011710 -0.035568)
 27:    273.11   0.001319    6.67  0.001508  ( 0.014620 -0.020605  0.029483)
 28:    307.98   0.001885    9.53  0.001910  (-0.007926  0.042764 -0.004272)
 29:    326.45   0.001049    5.30  0.001002  (-0.021406 -0.011362  0.020375)
 30:    334.64   0.009820   49.63  0.009157  ( 0.075025 -0.056888  0.017100)
 31:    348.25   0.003346   16.91  0.002998  ( 0.009428  0.003458 -0.053828)
 32:    385.02   0.000876    4.43  0.000710  (-0.004649 -0.006208 -0.025494)
 33:    434.08   0.000303    1.53  0.000218  ( 0.007299  0.011192  0.006258)
 34:    483.06   0.000881    4.45  0.000569  (-0.013463  0.016512 -0.010732)
 35:    486.67   0.001745    8.82  0.001119  (-0.031177  0.011741  0.003005)
 36:    497.23   0.002451   12.39  0.001538  ( 0.034640  0.015951  0.009154)
 37:    560.04   0.000536    2.71  0.000298  (-0.017060  0.002072 -0.001753)
 38:    576.52   0.003493   17.65  0.001890  ( 0.033115  0.010971  0.025952)
 39:    593.42   0.001472    7.44  0.000774  (-0.023674  0.011226  0.009357)
 40:    612.89   0.001082    5.47  0.000551  (-0.013392 -0.016171  0.010486)
 41:    664.17   0.013004   65.72  0.006110  ( 0.069257 -0.034556 -0.010922)
 42:    686.06   0.008159   41.23  0.003711  (-0.030535  0.046768  0.024321)
 43:    714.42   0.003485   17.61  0.001522  (-0.031184 -0.016465 -0.016693)
 44:    732.62   0.002224   11.24  0.000947  ( 0.022625  0.016635 -0.012590)
 45:    751.15   0.002062   10.42  0.000857  (-0.025819 -0.002579 -0.013537)
 46:    755.69   0.002173   10.98  0.000897  ( 0.015592 -0.025389 -0.003095)
 47:    768.92   0.014549   73.52  0.005905  ( 0.071184 -0.019231  0.021622)
 48:    773.97   0.013510   68.28  0.005447  ( 0.050689 -0.053173  0.007107)
 49:    789.82   0.007390   37.35  0.002920  ( 0.035933 -0.033486  0.022527)
 50:    815.60   0.007228   36.53  0.002766  ( 0.005728 -0.036448 -0.037476)
 51:    857.92   0.015159   76.61  0.005514  (-0.043847  0.059929 -0.000090)
 52:    874.84   0.000511    2.58  0.000182  ( 0.011308 -0.007362  0.000583)
 53:    896.85   0.008439   42.65  0.002936  ( 0.038590  0.016279  0.034385)
 54:    905.11   0.007259   36.68  0.002503  (-0.019727  0.045075 -0.009047)
 55:    946.08   0.037334  188.67  0.012315  (-0.090956  0.027615  0.057263)
 56:    958.42   0.023494  118.73  0.007650  ( 0.080866 -0.004214 -0.033058)
 57:    964.54   0.003432   17.35  0.001110  (-0.028189  0.012696  0.012438)
 58:    969.26   0.002053   10.37  0.000661  ( 0.000546  0.025351 -0.004231)
 59:    992.91   0.000046    0.23  0.000014  ( 0.002738  0.000336 -0.002598)
 60:   1008.04   0.013485   68.15  0.004175  (-0.018089 -0.044749 -0.042952)
 61:   1012.34   0.002573   13.00  0.000793  ( 0.014042 -0.012811 -0.020784)
 62:   1049.30   0.002328   11.77  0.000692  (-0.005181 -0.022890 -0.011904)
 63:   1062.03   0.000720    3.64  0.000212  ( 0.004057  0.005180  0.012971)
 64:   1071.35   0.013193   66.67  0.003843  ( 0.029229  0.030900 -0.045099)
 65:   1084.24   0.008630   43.61  0.002484  ( 0.003803 -0.008473 -0.048967)
 66:   1100.09   0.017834   90.12  0.005059  ( 0.024454 -0.007571 -0.066360)
 67:   1138.27   0.013297   67.20  0.003646  (-0.011063 -0.018889  0.056270)
 68:   1170.08   0.000164    0.83  0.000044  ( 0.001965  0.004571  0.004358)
 69:   1171.19   0.000195    0.99  0.000052  ( 0.005510 -0.004275  0.001839)
 70:   1171.27   0.000065    0.33  0.000017  ( 0.002998 -0.001974 -0.002094)
 71:   1175.33   0.001603    8.10  0.000426  (-0.010949 -0.009212  0.014864)
 72:   1195.55   0.004304   21.75  0.001123  ( 0.017625 -0.026335  0.010918)
 73:   1199.35   0.065084  328.91  0.016935  ( 0.067897 -0.094479  0.058294)
 74:   1206.06   0.004321   21.84  0.001118  (-0.015125  0.013629  0.026525)
 75:   1213.23   0.002697   13.63  0.000694  (-0.017884 -0.003651  0.018990)
 76:   1219.02   0.067652  341.89  0.017319  ( 0.061991 -0.096042  0.065205)
 77:   1241.16   0.041129  207.85  0.010341  (-0.056439  0.012963  0.083592)
 78:   1244.30   0.040841  206.39  0.010243  (-0.062239  0.070227 -0.037908)
 79:   1262.17   0.091355  461.67  0.022587  (-0.106608  0.103191  0.023946)
 80:   1289.44   0.019004   96.04  0.004599  ( 0.007699  0.031512  0.059557)
 81:   1295.71   0.077601  392.17  0.018690  (-0.034647 -0.011087  0.131782)
 82:   1309.78   0.017421   88.04  0.004151  (-0.013095 -0.033404 -0.053511)
 83:   1327.90   0.010802   54.59  0.002539  (-0.028933  0.013834  0.038860)
 84:   1337.43   0.087952  444.47  0.020522  ( 0.076616 -0.087557  0.083581)
 85:   1365.70   0.029936  151.28  0.006840  ( 0.016600 -0.048634  0.064804)
 86:   1383.32   0.026625  134.55  0.006006  (-0.027192  0.067756 -0.025999)
 87:   1397.60   0.033648  170.05  0.007513  ( 0.023476  0.008832 -0.082971)
 88:   1458.82   0.005762   29.12  0.001233  ( 0.034598 -0.004101  0.004333)
 89:   1465.22   0.005019   25.37  0.001069  ( 0.005358  0.025079  0.020282)
 90:   1465.86   0.006257   31.62  0.001332  (-0.021442  0.027814  0.009936)
 91:   1466.57   0.004089   20.66  0.000870  (-0.021956  0.017575 -0.008896)
 92:   1470.07   0.010709   54.12  0.002273  ( 0.009504 -0.023050 -0.040639)
 93:   1472.90   0.003412   17.24  0.000723  (-0.017144 -0.014681  0.014613)
 94:   1473.13   0.003959   20.01  0.000839  (-0.009395 -0.020311  0.018382)
 95:   1473.42   0.009277   46.88  0.001965  ( 0.017756 -0.028453  0.028982)
 96:   1477.43   0.016383   82.79  0.003460  (-0.024130  0.042765 -0.032392)
 97:   1483.50   0.005407   27.33  0.001137  (-0.002313  0.016927  0.029079)
 98:   1499.42   0.014920   75.40  0.003105  (-0.005777  0.003208  0.055331)
 99:   1537.40   0.039840  201.34  0.008087  ( 0.004402 -0.020455 -0.087459)
100:   1643.06   0.293605  1483.76  0.055764  (-0.101957  0.172377 -0.125120)
101:   1650.74   0.032351  163.49  0.006116  ( 0.057216 -0.050789  0.016205)
102:   1664.11   0.016434   83.05  0.003082  (-0.008976  0.026831  0.047763)
103:   1711.26   0.039406  199.14  0.007186  (-0.038864 -0.049000  0.057225)
104:   1758.78   0.134397  679.19  0.023846  (-0.091968 -0.067214  0.104262)
105:   1807.66   0.103874  524.94  0.017932  ( 0.071627  0.101994 -0.048978)
106:   3037.73   0.012121   61.26  0.001245  (-0.013583 -0.015472  0.028659)
107:   3068.47   0.006751   34.12  0.000687  ( 0.022098 -0.013876  0.002391)
108:   3075.85   0.005095   25.75  0.000517  ( 0.000433 -0.013570 -0.018236)
109:   3109.39   0.007264   36.71  0.000729  ( 0.023816 -0.012048  0.004082)
110:   3113.66   0.000565    2.85  0.000057  ( 0.003641  0.005965 -0.002782)
111:   3146.09   0.000407    2.06  0.000040  (-0.002809  0.001440  0.005514)
112:   3149.42   0.004236   21.41  0.000420  (-0.006960 -0.013160 -0.014075)
113:   3161.63   0.003130   15.82  0.000309  ( 0.014035 -0.009319  0.005010)
114:   3166.66   0.003749   18.94  0.000369  ( 0.003190  0.011640  0.014958)
115:   3185.32   0.002921   14.76  0.000286  ( 0.001408  0.011896 -0.011944)
116:   3187.57   0.000507    2.56  0.000050  (-0.003158 -0.004618  0.004286)
117:   3195.04   0.001744    8.81  0.000170  ( 0.007620  0.006183 -0.008606)
118:   3196.80   0.001499    7.58  0.000146  (-0.005903 -0.010481  0.001294)
119:   3197.69   0.000632    3.19  0.000062  (-0.003136 -0.003748  0.006149)
120:   3215.60   0.002620   13.24  0.000254  ( 0.001944  0.007889  0.013720)
121:   3216.88   0.000489    2.47  0.000047  (-0.005374  0.004083 -0.001372)
122:   3232.00   0.000330    1.67  0.000032  ( 0.002725  0.003073 -0.003876)

* The epsilon (eps) is given for a Dirac delta lineshape.
** The dipole moment derivative (T) already includes vibrational overlap.

The first frequency considered to be a vibration is 6
The total number of vibrations considered is 117


--------------------------
THERMOCHEMISTRY AT 298.15K
--------------------------

Temperature         ... 298.15 K
Pressure            ... 1.00 atm
Total Mass          ... 335.31 AMU

Throughout the following assumptions are being made:
  (1) The electronic state is orbitally nondegenerate
  (2) There are no thermally accessible electronically excited states
  (3) Hindered rotations indicated by low frequency modes are not
      treated as such but are treated as vibrations and this may
      cause some error
  (4) All equations used are the standard statistical mechanics
      equations for an ideal gas
  (5) All vibrations are strictly harmonic

freq.      12.52  E(vib)   ...       0.57 
freq.      22.47  E(vib)   ...       0.56 
freq.      36.21  E(vib)   ...       0.54 
freq.      44.97  E(vib)   ...       0.53 
freq.      49.53  E(vib)   ...       0.52 
freq.      52.72  E(vib)   ...       0.52 
freq.      80.46  E(vib)   ...       0.48 
freq.      93.69  E(vib)   ...       0.47 
freq.      97.43  E(vib)   ...       0.46 
freq.     101.94  E(vib)   ...       0.46 
freq.     129.39  E(vib)   ...       0.43 
freq.     149.14  E(vib)   ...       0.40 
freq.     154.62  E(vib)   ...       0.40 
freq.     156.13  E(vib)   ...       0.40 
freq.     165.15  E(vib)   ...       0.39 
freq.     192.77  E(vib)   ...       0.36 
freq.     216.17  E(vib)   ...       0.34 
freq.     228.65  E(vib)   ...       0.32 
freq.     237.88  E(vib)   ...       0.32 
freq.     249.15  E(vib)   ...       0.31 
freq.     257.25  E(vib)   ...       0.30 
freq.     273.11  E(vib)   ...       0.29 
freq.     307.98  E(vib)   ...       0.26 
freq.     326.45  E(vib)   ...       0.24 
freq.     334.64  E(vib)   ...       0.24 
freq.     348.25  E(vib)   ...       0.23 
freq.     385.02  E(vib)   ...       0.20 
freq.     434.08  E(vib)   ...       0.17 
freq.     483.06  E(vib)   ...       0.15 
freq.     486.67  E(vib)   ...       0.15 
freq.     497.23  E(vib)   ...       0.14 
freq.     560.04  E(vib)   ...       0.12 
freq.     576.52  E(vib)   ...       0.11 
freq.     593.42  E(vib)   ...       0.10 
freq.     612.89  E(vib)   ...       0.10 
freq.     664.17  E(vib)   ...       0.08 
freq.     686.06  E(vib)   ...       0.07 
freq.     714.42  E(vib)   ...       0.07 
freq.     732.62  E(vib)   ...       0.06 
freq.     751.15  E(vib)   ...       0.06 
freq.     755.69  E(vib)   ...       0.06 
freq.     768.92  E(vib)   ...       0.06 
freq.     773.97  E(vib)   ...       0.05 
freq.     789.82  E(vib)   ...       0.05 
freq.     815.60  E(vib)   ...       0.05 
freq.     857.92  E(vib)   ...       0.04 
freq.     874.84  E(vib)   ...       0.04 
freq.     896.85  E(vib)   ...       0.03 
freq.     905.11  E(vib)   ...       0.03 
freq.     946.08  E(vib)   ...       0.03 
freq.     958.42  E(vib)   ...       0.03 
freq.     964.54  E(vib)   ...       0.03 
freq.     969.26  E(vib)   ...       0.03 
freq.     992.91  E(vib)   ...       0.02 
freq.    1008.04  E(vib)   ...       0.02 
freq.    1012.34  E(vib)   ...       0.02 
freq.    1049.30  E(vib)   ...       0.02 
freq.    1062.03  E(vib)   ...       0.02 
freq.    1071.35  E(vib)   ...       0.02 
freq.    1084.24  E(vib)   ...       0.02 
freq.    1100.09  E(vib)   ...       0.02 
freq.    1138.27  E(vib)   ...       0.01 
freq.    1170.08  E(vib)   ...       0.01 
freq.    1171.19  E(vib)   ...       0.01 
freq.    1171.27  E(vib)   ...       0.01 
freq.    1175.33  E(vib)   ...       0.01 
freq.    1195.55  E(vib)   ...       0.01 
freq.    1199.35  E(vib)   ...       0.01 
freq.    1206.06  E(vib)   ...       0.01 
freq.    1213.23  E(vib)   ...       0.01 
freq.    1219.02  E(vib)   ...       0.01 
freq.    1241.16  E(vib)   ...       0.01 
freq.    1244.30  E(vib)   ...       0.01 
freq.    1262.17  E(vib)   ...       0.01 
freq.    1289.44  E(vib)   ...       0.01 
freq.    1295.71  E(vib)   ...       0.01 
freq.    1309.78  E(vib)   ...       0.01 
freq.    1327.90  E(vib)   ...       0.01 
freq.    1337.43  E(vib)   ...       0.01 
freq.    1365.70  E(vib)   ...       0.01 
freq.    1383.32  E(vib)   ...       0.00 
freq.    1397.60  E(vib)   ...       0.00 
freq.    1458.82  E(vib)   ...       0.00 
freq.    1465.22  E(vib)   ...       0.00 
freq.    1465.86  E(vib)   ...       0.00 
freq.    1466.57  E(vib)   ...       0.00 
freq.    1470.07  E(vib)   ...       0.00 
freq.    1472.90  E(vib)   ...       0.00 
freq.    1473.13  E(vib)   ...       0.00 
freq.    1473.42  E(vib)   ...       0.00 
freq.    1477.43  E(vib)   ...       0.00 
freq.    1483.50  E(vib)   ...       0.00 
freq.    1499.42  E(vib)   ...       0.00 
freq.    1537.40  E(vib)   ...       0.00 
freq.    1643.06  E(vib)   ...       0.00 
freq.    1650.74  E(vib)   ...       0.00 
freq.    1664.11  E(vib)   ...       0.00 
freq.    1711.26  E(vib)   ...       0.00 
freq.    1758.78  E(vib)   ...       0.00 
freq.    1807.66  E(vib)   ...       0.00 
freq.    3037.73  E(vib)   ...       0.00 
freq.    3068.47  E(vib)   ...       0.00 
freq.    3075.85  E(vib)   ...       0.00 
freq.    3109.39  E(vib)   ...       0.00 
freq.    3113.66  E(vib)   ...       0.00 
freq.    3146.09  E(vib)   ...       0.00 
freq.    3149.42  E(vib)   ...       0.00 
freq.    3161.63  E(vib)   ...       0.00 
freq.    3166.66  E(vib)   ...       0.00 
freq.    3185.32  E(vib)   ...       0.00 
freq.    3187.57  E(vib)   ...       0.00 
freq.    3195.04  E(vib)   ...       0.00 
freq.    3196.80  E(vib)   ...       0.00 
freq.    3197.69  E(vib)   ...       0.00 
freq.    3215.60  E(vib)   ...       0.00 
freq.    3216.88  E(vib)   ...       0.00 
freq.    3232.00  E(vib)   ...       0.00 

------------
INNER ENERGY
------------

The inner energy is: U= E(el) + E(ZPE) + E(vib) + E(rot) + E(trans)
    E(el)   - is the total energy from the electronic structure calculation
              = E(kin-el) + E(nuc-el) + E(el-el) + E(nuc-nuc)
    E(ZPE)  - the the zero temperature vibrational energy from the frequency calculation
    E(vib)  - the the finite temperature correction to E(ZPE) due to population
              of excited vibrational states
    E(rot)  - is the rotational thermal energy
    E(trans)- is the translational thermal energy

Summary of contributions to the inner energy U:
Electronic energy                ...  -1200.33586869 Eh
Zero point energy                ...      0.31917668 Eh     200.29 kcal/mol
Thermal vibrational correction   ...      0.02043909 Eh      12.83 kcal/mol
Thermal rotational correction    ...      0.00141627 Eh       0.89 kcal/mol
Thermal translational correction ...      0.00141627 Eh       0.89 kcal/mol
-----------------------------------------------------------------------
Total thermal energy                  -1199.99342038 Eh


Summary of corrections to the electronic energy:
(perhaps to be used in another calculation)
Total thermal correction                  0.02327163 Eh      14.60 kcal/mol
Non-thermal (ZPE) correction              0.31917668 Eh     200.29 kcal/mol
-----------------------------------------------------------------------
Total correction                          0.34244831 Eh     214.89 kcal/mol


--------
ENTHALPY
--------

The enthalpy is H = U + kB*T
                kB is Boltzmann's constant
Total free energy                 ...  -1199.99342038 Eh 
Thermal Enthalpy correction       ...      0.00094421 Eh       0.59 kcal/mol
-----------------------------------------------------------------------
Total Enthalpy                    ...  -1199.99247617 Eh


Note: Only C1 symmetry has been detected, increase convergence thresholds 
      if your molecule has a higher symmetry. Symmetry factor of 1.0 is   
      used for the rotational entropy correction. 
 

Note: Rotational entropy computed according to Herzberg 
Infrared and Raman Spectra, Chapter V,1, Van Nostrand Reinhold, 1945 
Point Group:  C1, Symmetry Number:   1  
Rotational constants in cm-1:     0.008322     0.005912     0.004805 

Vibrational entropy computed according to the QRRHO of S. Grimme
Chem.Eur.J. 2012 18 9955


-------
ENTROPY
-------

The entropy contributions are T*S = T*(S(el)+S(vib)+S(rot)+S(trans))
     S(el)   - electronic entropy
     S(vib)  - vibrational entropy
     S(rot)  - rotational entropy
     S(trans)- translational entropy
The entropies will be listed as multiplied by the temperature to get
units of energy

Electronic entropy                ...      0.00000000 Eh      0.00 kcal/mol
Vibrational entropy               ...      0.03756323 Eh     23.57 kcal/mol
Rotational entropy                ...      0.01671383 Eh     10.49 kcal/mol
Translational entropy             ...      0.02058478 Eh     12.92 kcal/mol
-----------------------------------------------------------------------
Final entropy term                ...      0.07486184 Eh     46.98 kcal/mol

In case the symmetry of your molecule has not been determined correctly
or in case you have a reason to use a different symmetry number we print 
out the resulting rotational entropy values for sn=1,12 :
 --------------------------------------------------------
|  sn= 1 | S(rot)=       0.01671383 Eh     10.49 kcal/mol|
|  sn= 2 | S(rot)=       0.01605937 Eh     10.08 kcal/mol|
|  sn= 3 | S(rot)=       0.01567654 Eh      9.84 kcal/mol|
|  sn= 4 | S(rot)=       0.01540492 Eh      9.67 kcal/mol|
|  sn= 5 | S(rot)=       0.01519423 Eh      9.53 kcal/mol|
|  sn= 6 | S(rot)=       0.01502208 Eh      9.43 kcal/mol|
|  sn= 7 | S(rot)=       0.01487654 Eh      9.34 kcal/mol|
|  sn= 8 | S(rot)=       0.01475046 Eh      9.26 kcal/mol|
|  sn= 9 | S(rot)=       0.01463925 Eh      9.19 kcal/mol|
|  sn=10 | S(rot)=       0.01453977 Eh      9.12 kcal/mol|
|  sn=11 | S(rot)=       0.01444978 Eh      9.07 kcal/mol|
|  sn=12 | S(rot)=       0.01436763 Eh      9.02 kcal/mol|
 --------------------------------------------------------


-------------------
GIBBS FREE ENERGY
-------------------

The Gibbs free energy is G = H - T*S

Total enthalpy                    ...  -1199.99247617 Eh 
Total entropy correction          ...     -0.07486184 Eh    -46.98 kcal/mol
-----------------------------------------------------------------------
Final Gibbs free energy         ...  -1200.06733801 Eh

For completeness - the Gibbs free energy minus the electronic energy
G-E(el)                           ...      0.26853068 Eh    168.51 kcal/mol


Timings for individual modules:

Sum of individual times         ...     4739.097 sec (=  78.985 min)
GTO integral calculation        ...       49.847 sec (=   0.831 min)   1.1 %
SCF iterations                  ...     2055.104 sec (=  34.252 min)  43.4 %
SCF Gradient evaluation         ...      557.156 sec (=   9.286 min)  11.8 %
Geometry relaxation             ...        3.243 sec (=   0.054 min)   0.1 %
Analytical frequency calculation...     2073.746 sec (=  34.562 min)  43.8 %
                             ****ORCA TERMINATED NORMALLY****
TOTAL RUN TIME: 0 days 1 hours 19 minutes 55 seconds 679 msec
