
                                 *****************
                                 * O   R   C   A *
                                 *****************

                                            #,                                       
                                            ###                                      
                                            ####                                     
                                            #####                                    
                                            ######                                   
                                           ########,                                 
                                     ,,################,,,,,                         
                               ,,#################################,,                 
                          ,,##########################################,,             
                       ,#########################################, ''#####,          
                    ,#############################################,,   '####,        
                  ,##################################################,,,,####,       
                ,###########''''           ''''###############################       
              ,#####''   ,,,,##########,,,,          '''####'''          '####       
            ,##' ,,,,###########################,,,                        '##       
           ' ,,###''''                  '''############,,,                           
         ,,##''                                '''############,,,,        ,,,,,,###''
      ,#''                                            '''#######################'''  
     '                                                          ''''####''''         
             ,#######,   #######,   ,#######,      ##                                
            ,#'     '#,  ##    ##  ,#'     '#,    #''#        ######   ,####,        
            ##       ##  ##   ,#'  ##            #'  '#       #        #'  '#        
            ##       ##  #######   ##           ,######,      #####,   #    #        
            '#,     ,#'  ##    ##  '#,     ,#' ,#      #,         ##   #,  ,#        
             '#######'   ##     ##  '#######'  #'      '#     #####' # '####'        



                  #######################################################
                  #                        -***-                        #
                  #          Department of theory and spectroscopy      #
                  #    Directorship and core code : Frank Neese         #
                  #        Max Planck Institute fuer Kohlenforschung    #
                  #                Kaiser Wilhelm Platz 1               #
                  #                 D-45470 Muelheim/Ruhr               #
                  #                      Germany                        #
                  #                                                     #
                  #                  All rights reserved                #
                  #                        -***-                        #
                  #######################################################


                         Program Version 5.0.4 -  RELEASE  -


 With contributions from (in alphabetic order):
   Daniel Aravena         : Magnetic Suceptibility
   Michael Atanasov       : Ab Initio Ligand Field Theory (pilot matlab implementation)
   Alexander A. Auer      : GIAO ZORA, VPT2 properties, NMR spectrum
   Ute Becker             : Parallelization
   Giovanni Bistoni       : ED, misc. LED, open-shell LED, HFLD
   Martin Brehm           : Molecular dynamics
   Dmytro Bykov           : SCF Hessian
   Vijay G. Chilkuri      : MRCI spin determinant printing, contributions to CSF-ICE
   Dipayan Datta          : RHF DLPNO-CCSD density
   Achintya Kumar Dutta   : EOM-CC, STEOM-CC
   Dmitry Ganyushin       : Spin-Orbit,Spin-Spin,Magnetic field MRCI
   Miquel Garcia          : C-PCM and meta-GGA Hessian, CC/C-PCM, Gaussian charge scheme
   Yang Guo               : DLPNO-NEVPT2, F12-NEVPT2, CIM, IAO-localization
   Andreas Hansen         : Spin unrestricted coupled pair/coupled cluster methods
   Benjamin Helmich-Paris : MC-RPA, TRAH-SCF, COSX integrals
   Lee Huntington         : MR-EOM, pCC
   Robert Izsak           : Overlap fitted RIJCOSX, COSX-SCS-MP3, EOM
   Marcus Kettner         : VPT2
   Christian Kollmar      : KDIIS, OOCD, Brueckner-CCSD(T), CCSD density, CASPT2, CASPT2-K
   Simone Kossmann        : Meta GGA functionals, TD-DFT gradient, OOMP2, MP2 Hessian
   Martin Krupicka        : Initial AUTO-CI
   Lucas Lang             : DCDCAS
   Marvin Lechner         : AUTO-CI (C++ implementation), FIC-MRCC
   Dagmar Lenk            : GEPOL surface, SMD
   Dimitrios Liakos       : Extrapolation schemes; Compound Job, initial MDCI parallelization
   Dimitrios Manganas     : Further ROCIS development; embedding schemes
   Dimitrios Pantazis     : SARC Basis sets
   Anastasios Papadopoulos: AUTO-CI, single reference methods and gradients
   Taras Petrenko         : DFT Hessian,TD-DFT gradient, ASA, ECA, R-Raman, ABS, FL, XAS/XES, NRVS
   Peter Pinski           : DLPNO-MP2, DLPNO-MP2 Gradient
   Christoph Reimann      : Effective Core Potentials
   Marius Retegan         : Local ZFS, SOC
   Christoph Riplinger    : Optimizer, TS searches, QM/MM, DLPNO-CCSD(T), (RO)-DLPNO pert. Triples
   Tobias Risthaus        : Range-separated hybrids, TD-DFT gradient, RPA, STAB
   Michael Roemelt        : Original ROCIS implementation
   Masaaki Saitow         : Open-shell DLPNO-CCSD energy and density
   Barbara Sandhoefer     : DKH picture change effects
   Avijit Sen             : IP-ROCIS
   Kantharuban Sivalingam : CASSCF convergence, NEVPT2, FIC-MRCI
   Bernardo de Souza      : ESD, SOC TD-DFT
   Georgi Stoychev        : AutoAux, RI-MP2 NMR, DLPNO-MP2 response
   Willem Van den Heuvel  : Paramagnetic NMR
   Boris Wezisla          : Elementary symmetry handling
   Frank Wennmohs         : Technical directorship


 We gratefully acknowledge several colleagues who have allowed us to
 interface, adapt or use parts of their codes:
   Stefan Grimme, W. Hujo, H. Kruse, P. Pracht,  : VdW corrections, initial TS optimization,
                  C. Bannwarth, S. Ehlert          DFT functionals, gCP, sTDA/sTD-DF
   Ed Valeev, F. Pavosevic, A. Kumar             : LibInt (2-el integral package), F12 methods
   Garnet Chan, S. Sharma, J. Yang, R. Olivares  : DMRG
   Ulf Ekstrom                                   : XCFun DFT Library
   Mihaly Kallay                                 : mrcc  (arbitrary order and MRCC methods)
   Jiri Pittner, Ondrej Demel                    : Mk-CCSD
   Frank Weinhold                                : gennbo (NPA and NBO analysis)
   Christopher J. Cramer and Donald G. Truhlar   : smd solvation model
   Lars Goerigk                                  : TD-DFT with DH, B97 family of functionals
   V. Asgeirsson, H. Jonsson                     : NEB implementation
   FAccTs GmbH                                   : IRC, NEB, NEB-TS, DLPNO-Multilevel, CI-OPT
                                                   MM, QMMM, 2- and 3-layer-ONIOM, Crystal-QMMM,
                                                   LR-CPCM, SF, NACMEs, symmetry and pop. for TD-DFT,
                                                   nearIR, NL-DFT gradient (VV10), updates on ESD,
                                                   ML-optimized integration grids
   S Lehtola, MJT Oliveira, MAL Marques          : LibXC Library
   Liviu Ungur et al                             : ANISO software


 Your calculation uses the libint2 library for the computation of 2-el integrals
 For citations please refer to: http://libint.valeyev.net

 Your ORCA version has been built with support for libXC version: 5.1.0
 For citations please refer to: https://tddft.org/programs/libxc/

 This ORCA versions uses:
   CBLAS   interface :  Fast vector & matrix operations
   LAPACKE interface :  Fast linear algebra routines
   SCALAPACK package :  Parallel linear algebra routines
   Shared memory     :  Shared parallel matrices
   BLAS/LAPACK       :  OpenBLAS 0.3.15  USE64BITINT DYNAMIC_ARCH NO_AFFINITY Haswell SINGLE_THREADED
        Core in use  :  Haswell
   Copyright (c) 2011-2014, The OpenBLAS Project


Your calculation utilizes the atom-pairwise dispersion correction
with the Becke-Johnson damping scheme (D3BJ)
Cite in your paper:
S.Grimme, S.Ehrlich, L.Goerigk, J Comput Chem, (2011), 32, 1456–1465 
S.Grimme, J.Antony, S.Ehrlich and H.Krieg, J.Chem.Phys., 132, (2010), 154104 
   

================================================================================

----- Orbital basis set information -----
Your calculation utilizes the basis: def2-TZVP
   F. Weigend and R. Ahlrichs, Phys. Chem. Chem. Phys. 7, 3297 (2005).

----- AuxJ basis set information -----
Your calculation utilizes the auxiliary basis: def2/J
   F. Weigend, Phys. Chem. Chem. Phys. 8, 1057 (2006).

================================================================================
                                        WARNINGS
                       Please study these warnings very carefully!
================================================================================


WARNING: Geometry Optimization
  ===> : Switching off AutoStart
         For restart on a previous wavefunction, please use MOREAD

INFO   : the flag for use of the SHARK integral package has been found!

================================================================================
                                       INPUT FILE
================================================================================
NAME = 4_CN_free/4_CN_free.inp
|  1> %pal nprocs 24 end
|  2> %maxcore 3500
|  3> ! PBE0 D3BJ def2-TZVP TightSCF OPT FREQ TightOpt
|  4> ! CPCM(dmso)
|  5> %scf
|  6> MaxIter 800
|  7> end
|  8> %geom
|  9> MaxIter 800
| 10> MaxStep 0.2
| 11> end
| 12> *xyz 0 1
| 13> C        1.187147000     -0.881253000      0.550215000
| 14> C        1.854625000     -2.071694000     -0.114652000
| 15> O        2.961512000     -2.466832000      0.142018000
| 16> O        1.045570000     -2.588603000     -1.020690000
| 17> C        1.555531000     -3.693642000     -1.777378000
| 18> H        0.162773000     -1.129001000      0.849362000
| 19> H        0.764001000     -3.960969000     -2.471936000
| 20> H        1.781402000     -4.528151000     -1.113959000
| 21> C        2.467319000      1.007635000      0.228296000
| 22> C        1.241228000      0.381959000     -0.344876000
| 23> C        0.015230000      1.256156000     -0.264217000
| 24> C       -0.101073000      2.290039000      0.650918000
| 25> C       -1.246697000      3.073359000      0.709304000
| 26> C       -2.287327000      2.815772000     -0.166223000
| 27> C       -2.196937000      1.783420000     -1.090711000
| 28> C       -1.052252000      0.996922000     -1.137019000
| 29> O       -0.884422000     -0.041992000     -1.980562000
| 30> C       -1.910764000     -0.317720000     -2.915465000
| 31> N        2.787180000      0.483223000      1.391062000
| 32> O        3.651093000      0.742974000      2.192591000
| 33> H        1.402251000      0.088068000     -1.382977000
| 34> H        0.716967000      2.493178000      1.334216000
| 35> H       -1.318895000      3.876679000      1.432249000
| 36> H       -3.188381000      3.417805000     -0.134827000
| 37> H       -3.023425000      1.589877000     -1.760806000
| 38> H       -1.565681000     -1.170471000     -3.496300000
| 39> H       -2.077405000      0.535421000     -3.579031000
| 40> H       -2.844758000     -0.575040000     -2.409022000
| 41> O        1.910738000     -0.542333000      1.731058000
| 42> H        2.454268000     -3.395225000     -2.316764000
| 43> C        3.210455000      2.077404000     -0.283416000
| 44> N        3.797471000      2.960935000     -0.737025000
| 45> *
| 46> 
| 47>                          ****END OF INPUT****
================================================================================

                       *****************************
                       * Geometry Optimization Run *
                       *****************************

Geometry optimization settings:
Update method            Update   .... BFGS
Choice of coordinates    CoordSys .... Z-matrix Internals
Initial Hessian          InHess   .... Almoef's Model

Convergence Tolerances:
Energy Change            TolE     ....  1.0000e-06 Eh
Max. Gradient            TolMAXG  ....  1.0000e-04 Eh/bohr
RMS Gradient             TolRMSG  ....  3.0000e-05 Eh/bohr
Max. Displacement        TolMAXD  ....  1.0000e-03 bohr
RMS Displacement         TolRMSD  ....  6.0000e-04 bohr
Strict Convergence                ....  False
------------------------------------------------------------------------------
                        ORCA OPTIMIZATION COORDINATE SETUP
------------------------------------------------------------------------------

The optimization will be done in new redundant internal coordinates
Making redundant internal coordinates   ...  (new redundants) done
Evaluating the initial hessian          ...  (Almloef) done
Evaluating the coordinates              ...  done
Calculating the B-matrix                .... done
Calculating the G-matrix                .... done
Diagonalizing the G-matrix              .... done
Small eigenvalue found = 4.336e-03
Small eigenvalue found = 1.105e-02
Small eigenvalue found = 1.835e-02
Small eigenvalue found = 2.495e-02
The first mode is                       ....   69
The number of degrees of freedom        ....   90

    -----------------------------------------------------------------
                    Redundant Internal Coordinates


    -----------------------------------------------------------------
         Definition                    Initial Value    Approx d2E/dq
    -----------------------------------------------------------------
      1. B(C   1,C   0)                  1.5181         0.390222   
      2. B(O   2,C   1)                  1.2030         1.112295   
      3. B(O   3,C   1)                  1.3201         0.723424   
      4. B(C   4,O   3)                  1.4331         0.477669   
      5. B(H   5,C   0)                  1.0955         0.352844   
      6. B(H   6,C   4)                  1.0865         0.364814   
      7. B(H   7,C   4)                  1.0897         0.360435   
      8. B(C   9,C   0)                  1.5491         0.348217   
      9. B(C   9,C   8)                  1.4911         0.431007   
     10. B(C  10,C   9)                  1.5079         0.405152   
     11. B(C  11,C  10)                  1.3856         0.634957   
     12. B(C  12,C  11)                  1.3890         0.626986   
     13. B(C  13,C  12)                  1.3841         0.638421   
     14. B(C  14,C  13)                  1.3887         0.627695   
     15. B(C  15,C  10)                  1.4030         0.595586   
     16. B(C  15,C  14)                  1.3896         0.625683   
     17. B(O  16,C  15)                  1.3487         0.651206   
     18. B(C  17,O  16)                  1.4154         0.509683   
     19. B(N  18,C   8)                  1.3150         0.736989   
     20. B(O  19,N  18)                  1.2068         0.982569   
     21. B(H  20,C   9)                  1.0909         0.358977   
     22. B(H  21,C  11)                  1.0851         0.366697   
     23. B(H  22,C  12)                  1.0831         0.369295   
     24. B(H  23,C  13)                  1.0841         0.367956   
     25. B(H  24,C  14)                  1.0815         0.371568   
     26. B(H  25,C  17)                  1.0880         0.362822   
     27. B(H  26,C  17)                  1.0936         0.355382   
     28. B(H  27,C  17)                  1.0932         0.355918   
     29. B(O  28,N  18)                  1.3912         0.498947   
     30. B(O  28,C   0)                  1.4258         0.490676   
     31. B(H  29,C   4)                  1.0898         0.360332   
     32. B(C  30,C   8)                  1.3995         0.603442   
     33. B(N  31,C  30)                  1.1537         1.333245   
     34. A(C   1,C   0,O  28)          109.0249         0.381285   
     35. A(C   9,C   0,O  28)          105.4851         0.373847   
     36. A(C   1,C   0,C   9)          111.7786         0.361699   
     37. A(C   1,C   0,H   5)          110.6934         0.325560   
     38. A(H   5,C   0,C   9)          112.0132         0.319540   
     39. A(H   5,C   0,O  28)          107.5865         0.336098   
     40. A(C   0,C   1,O   2)          124.6571         0.440765   
     41. A(O   2,C   1,O   3)          125.5722         0.490182   
     42. A(C   0,C   1,O   3)          109.7653         0.408129   
     43. A(C   1,O   3,C   4)          116.5026         0.420325   
     44. A(H   7,C   4,H  29)          109.8808         0.290911   
     45. A(O   3,C   4,H   6)          105.5471         0.336462   
     46. A(O   3,C   4,H   7)          110.0474         0.335786   
     47. A(O   3,C   4,H  29)          110.0989         0.335770   
     48. A(H   6,C   4,H   7)          110.5954         0.291477   
     49. A(H   6,C   4,H  29)          110.5958         0.291464   
     50. A(C   9,C   8,N  18)          111.8738         0.416766   
     51. A(N  18,C   8,C  30)          119.9324         0.442707   
     52. A(C   9,C   8,C  30)          128.0864         0.404865   
     53. A(C  10,C   9,H  20)          109.0934         0.328511   
     54. A(C   8,C   9,H  20)          110.9458         0.331888   
     55. A(C   0,C   9,H  20)          109.5923         0.320441   
     56. A(C   0,C   9,C  10)          114.4216         0.364026   
     57. A(C   8,C   9,C  10)          113.8740         0.377630   
     58. A(C   0,C   9,C   8)           98.5554         0.367904   
     59. A(C   9,C  10,C  11)          122.4219         0.404082   
     60. A(C  11,C  10,C  15)          119.0034         0.432792   
     61. A(C   9,C  10,C  15)          118.5681         0.399550   
     62. A(C  12,C  11,H  21)          119.3241         0.354668   
     63. A(C  10,C  11,H  21)          119.4934         0.355429   
     64. A(C  10,C  11,C  12)          121.1825         0.436814   
     65. A(C  13,C  12,H  22)          120.6709         0.356184   
     66. A(C  11,C  12,H  22)          120.0842         0.355093   
     67. A(C  11,C  12,C  13)          119.2448         0.437242   
     68. A(C  14,C  13,H  23)          119.0900         0.354943   
     69. A(C  12,C  13,H  23)          120.2126         0.355965   
     70. A(C  12,C  13,C  14)          120.6969         0.437331   
     71. A(C  13,C  14,C  15)          119.7711         0.435746   
     72. A(C  15,C  14,H  24)          120.5034         0.355338   
     73. A(C  13,C  14,H  24)          119.7209         0.355531   
     74. A(C  14,C  15,O  16)          124.0085         0.435767   
     75. A(C  10,C  15,O  16)          115.8948         0.431919   
     76. A(C  10,C  15,C  14)          120.0947         0.431649   
     77. A(C  15,O  16,C  17)          118.2246         0.417317   
     78. A(H  26,C  17,H  27)          109.5449         0.289706   
     79. A(H  25,C  17,H  27)          109.5015         0.290650   
     80. A(O  16,C  17,H  27)          111.0620         0.338723   
     81. A(H  25,C  17,H  26)          109.6250         0.290581   
     82. A(O  16,C  17,H  26)          111.0574         0.338638   
     83. A(O  16,C  17,H  25)          105.9814         0.339811   
     84. A(C   8,N  18,O  19)          132.4992         0.477434   
     85. A(O  19,N  18,O  28)          116.5737         0.441625   
     86. A(C   8,N  18,O  28)          110.9050         0.422199   
     87. A(C   0,O  28,N  18)          107.0103         0.392891   
     88. L(C   8,C  30,N  31,N  18, 2) 180.2345         0.493496   
     89. L(C   8,C  30,N  31,N  18, 1) 182.0251         0.493496   
     90. D(O   3,C   1,C   0,H   5)     47.5947         0.011328   
     91. D(O   2,C   1,C   0,H   5)   -133.2091         0.011328   
     92. D(O   3,C   1,C   0,C   9)    -78.0237         0.011328   
     93. D(O   2,C   1,C   0,C   9)    101.1724         0.011328   
     94. D(O   3,C   1,C   0,O  28)    165.7519         0.011328   
     95. D(O   2,C   1,C   0,O  28)    -15.0519         0.011328   
     96. D(C   4,O   3,C   1,C   0)    177.5845         0.039447   
     97. D(C   4,O   3,C   1,O   2)     -1.6026         0.039447   
     98. D(H   7,C   4,O   3,C   1)     61.7453         0.017996   
     99. D(H   6,C   4,O   3,C   1)   -178.9011         0.017996   
    100. D(H  29,C   4,O   3,C   1)    -59.5200         0.017996   
    101. D(C  10,C   9,C   0,C   1)    143.7755         0.009777   
    102. D(H  20,C   9,C   8,N  18)   -130.6788         0.013718   
    103. D(C   8,C   9,C   0,O  28)     23.3168         0.009777   
    104. D(C  10,C   9,C   8,C  30)    -70.3930         0.013718   
    105. D(C   8,C   9,C   0,C   1)    -95.0391         0.009777   
    106. D(C   0,C   9,C   8,C  30)    168.0192         0.013718   
    107. D(C   0,C   9,C   8,N  18)    -15.8015         0.013718   
    108. D(H  20,C   9,C   0,O  28)    139.2466         0.009777   
    109. D(H  20,C   9,C   0,H   5)   -103.9977         0.009777   
    110. D(H  20,C   9,C   0,C   1)     20.8907         0.009777   
    111. D(C  10,C   9,C   8,N  18)    105.7863         0.013718   
    112. D(C  10,C   9,C   0,O  28)    -97.8686         0.009777   
    113. D(C  10,C   9,C   0,H   5)     18.8870         0.009777   
    114. D(H  20,C   9,C   8,C  30)     53.1419         0.013718   
    115. D(C   8,C   9,C   0,H   5)    140.0724         0.009777   
    116. D(C  15,C  10,C   9,C   0)    -88.8895         0.012169   
    117. D(C  11,C  10,C   9,H  20)   -146.6798         0.012169   
    118. D(C  11,C  10,C   9,C   8)    -22.1455         0.012169   
    119. D(C  15,C  10,C   9,C   8)    158.7989         0.012169   
    120. D(C  11,C  10,C   9,C   0)     90.1661         0.012169   
    121. D(C  15,C  10,C   9,H  20)     34.2647         0.012169   
    122. D(H  21,C  11,C  10,C  15)    179.5880         0.027982   
    123. D(H  21,C  11,C  10,C   9)      0.5364         0.027982   
    124. D(C  12,C  11,C  10,C  15)     -0.4688         0.027982   
    125. D(C  12,C  11,C  10,C   9)   -179.5204         0.027982   
    126. D(H  22,C  12,C  11,H  21)     -0.0966         0.027240   
    127. D(H  22,C  12,C  11,C  10)    179.9601         0.027240   
    128. D(C  13,C  12,C  11,H  21)    179.7765         0.027240   
    129. D(C  13,C  12,C  11,C  10)     -0.1668         0.027240   
    130. D(H  23,C  13,C  12,H  22)     -0.0852         0.028309   
    131. D(H  23,C  13,C  12,C  11)   -179.9574         0.028309   
    132. D(C  14,C  13,C  12,H  22)   -179.8085         0.028309   
    133. D(C  14,C  13,C  12,C  11)      0.3192         0.028309   
    134. D(H  24,C  14,C  13,H  23)     -0.3258         0.027305   
    135. D(H  24,C  14,C  13,C  12)    179.4007         0.027305   
    136. D(C  15,C  14,C  13,H  23)   -179.5531         0.027305   
    137. D(C  15,C  14,C  13,C  12)      0.1733         0.027305   
    138. D(O  16,C  15,C  14,H  24)     -0.5739         0.027120   
    139. D(C  10,C  15,C  14,H  24)    179.9607         0.027120   
    140. D(C  10,C  15,C  14,C  13)     -0.8181         0.027120   
    141. D(O  16,C  15,C  10,C  11)   -178.5466         0.024435   
    142. D(O  16,C  15,C  10,C   9)      0.5419         0.024435   
    143. D(O  16,C  15,C  14,C  13)    178.6473         0.027120   
    144. D(C  14,C  15,C  10,C  11)      0.9608         0.024435   
    145. D(C  14,C  15,C  10,C   9)   -179.9507         0.024435   
    146. D(C  17,O  16,C  15,C  14)      2.7442         0.031350   
    147. D(C  17,O  16,C  15,C  10)   -177.7699         0.031350   
    148. D(H  27,C  17,O  16,C  15)    -62.1033         0.020564   
    149. D(H  26,C  17,O  16,C  15)     60.0659         0.020564   
    150. D(H  25,C  17,O  16,C  15)    179.0541         0.020564   
    151. D(O  19,N  18,C   8,C  30)      0.4364         0.045435   
    152. D(O  19,N  18,C   8,C   9)   -176.0940         0.045435   
    153. D(O  28,N  18,C   8,C  30)    178.6230         0.045435   
    154. D(O  28,N  18,C   8,C   9)      2.0926         0.045435   
    155. D(C   0,O  28,N  18,O  19)   -167.1203         0.020835   
    156. D(C   0,O  28,N  18,C   8)     14.3745         0.020835   
    157. D(N  18,O  28,C   0,C   9)    -23.9175         0.019013   
    158. D(N  18,O  28,C   0,H   5)   -143.6413         0.019013   
    159. D(N  18,O  28,C   0,C   1)     96.2659         0.019013   
    -----------------------------------------------------------------

Number of atoms                         .... 32
Number of degrees of freedom            .... 159

         *************************************************************
         *                GEOMETRY OPTIMIZATION CYCLE   1            *
         *************************************************************
---------------------------------
CARTESIAN COORDINATES (ANGSTROEM)
---------------------------------
  C      1.187147   -0.881253    0.550215
  C      1.854625   -2.071694   -0.114652
  O      2.961512   -2.466832    0.142018
  O      1.045570   -2.588603   -1.020690
  C      1.555531   -3.693642   -1.777378
  H      0.162773   -1.129001    0.849362
  H      0.764001   -3.960969   -2.471936
  H      1.781402   -4.528151   -1.113959
  C      2.467319    1.007635    0.228296
  C      1.241228    0.381959   -0.344876
  C      0.015230    1.256156   -0.264217
  C     -0.101073    2.290039    0.650918
  C     -1.246697    3.073359    0.709304
  C     -2.287327    2.815772   -0.166223
  C     -2.196937    1.783420   -1.090711
  C     -1.052252    0.996922   -1.137019
  O     -0.884422   -0.041992   -1.980562
  C     -1.910764   -0.317720   -2.915465
  N      2.787180    0.483223    1.391062
  O      3.651093    0.742974    2.192591
  H      1.402251    0.088068   -1.382977
  H      0.716967    2.493178    1.334216
  H     -1.318895    3.876679    1.432249
  H     -3.188381    3.417805   -0.134827
  H     -3.023425    1.589877   -1.760806
  H     -1.565681   -1.170471   -3.496300
  H     -2.077405    0.535421   -3.579031
  H     -2.844758   -0.575040   -2.409022
  O      1.910738   -0.542333    1.731058
  H      2.454268   -3.395225   -2.316764
  C      3.210455    2.077404   -0.283416
  N      3.797471    2.960935   -0.737025

----------------------------
CARTESIAN COORDINATES (A.U.)
----------------------------
  NO LB      ZA    FRAG     MASS         X           Y           Z
   0 C     6.0000    0    12.011    2.243383   -1.665327    1.039756
   1 C     6.0000    0    12.011    3.504733   -3.914934   -0.216661
   2 O     8.0000    0    15.999    5.596447   -4.661637    0.268375
   3 O     8.0000    0    15.999    1.975841   -4.891751   -1.928825
   4 C     6.0000    0    12.011    2.939528   -6.979972   -3.358758
   5 H     1.0000    0     1.008    0.307596   -2.133503    1.605062
   6 H     1.0000    0     1.008    1.443753   -7.485147   -4.671282
   7 H     1.0000    0     1.008    3.366362   -8.556965   -2.105077
   8 C     6.0000    0    12.011    4.662557    1.904154    0.431417
   9 C     6.0000    0    12.011    2.345581    0.721798   -0.651721
  10 C     6.0000    0    12.011    0.028781    2.373791   -0.499298
  11 C     6.0000    0    12.011   -0.191000    4.327547    1.230057
  12 C     6.0000    0    12.011   -2.355916    5.807807    1.340390
  13 C     6.0000    0    12.011   -4.322422    5.321038   -0.314116
  14 C     6.0000    0    12.011   -4.151609    3.370175   -2.061145
  15 C     6.0000    0    12.011   -1.988468    1.883910   -2.148655
  16 O     8.0000    0    15.999   -1.671315   -0.079353   -3.742720
  17 C     6.0000    0    12.011   -3.610821   -0.600404   -5.509430
  18 N     7.0000    0    14.007    5.267007    0.913159    2.628726
  19 O     8.0000    0    15.999    6.899566    1.404017    4.143397
  20 H     1.0000    0     1.008    2.649870    0.166424   -2.613448
  21 H     1.0000    0     1.008    1.354871    4.711424    2.521303
  22 H     1.0000    0     1.008   -2.492350    7.325862    2.706558
  23 H     1.0000    0     1.008   -6.025167    6.458715   -0.254786
  24 H     1.0000    0     1.008   -5.713445    3.004432   -3.327441
  25 H     1.0000    0     1.008   -2.958708   -2.211870   -6.607049
  26 H     1.0000    0     1.008   -3.925727    1.011799   -6.763388
  27 H     1.0000    0     1.008   -5.375814   -1.086668   -4.552392
  28 O     8.0000    0    15.999    3.610772   -1.024861    3.271226
  29 H     1.0000    0     1.008    4.637894   -6.416045   -4.378049
  30 C     6.0000    0    12.011    6.066881    3.925725   -0.535579
  31 N     7.0000    0    14.007    7.176180    5.595356   -1.392775

--------------------------------
INTERNAL COORDINATES (ANGSTROEM)
--------------------------------
 C      0   0   0     0.000000000000     0.00000000     0.00000000
 C      1   0   0     1.518132004357     0.00000000     0.00000000
 O      2   1   0     1.203001395973   124.65712386     0.00000000
 O      2   1   3     1.320102179663   109.76527146   180.80382337
 C      4   2   1     1.433090416682   116.50262826   177.58451281
 H      1   2   3     1.095541003792   110.69336661   226.79091016
 H      5   4   2     1.086459516592   105.54706398   181.09891315
 H      5   4   2     1.089746644539   110.04742294    61.74534162
 C      1   2   3     2.304424021028   109.71372599    58.55834081
 C      9   1   2     1.491072009945    41.66416533   100.69558603
 C     10   9   1     1.507911590609   113.87400496   121.58780517
 C     11  10   9     1.385609076804   122.42192227   337.85450515
 C     12  11  10     1.389047694203   121.18249907   180.47956896
 C     13  12  11     1.384127662897   119.24475675   359.83316978
 C     14  13  12     1.388740100288   120.69687285     0.31917522
 C     15  14  13     1.389614077395   119.77110499     0.17332678
 O     16  15  14     1.348730514649   124.00853246   178.64731314
 C     17  16  15     1.415431895344   118.22455904     2.74421680
 N      9   1   2     1.315045161134    71.62300792   265.25254184
 O     19   9   1     1.206758050071   132.49922522   172.90967108
 H     10   9   1     1.090850132975   110.94581619   245.12268384
 H     12  11  10     1.085058086798   119.49339397     0.53637279
 H     13  12  11     1.083136670337   120.08420129   179.96012657
 H     14  13  12     1.084125339996   120.21256231   180.04257042
 H     15  14  13     1.081465956939   119.72090684   179.40065120
 H     18  17  16     1.087950293954   105.98139018   179.05413222
 H     18  17  16     1.093589788320   111.05739130    60.06588265
 H     18  17  16     1.093180171191   111.06196227   297.89673512
 O     19   9   1     1.391227144831   110.90497540   351.09627982
 H      5   4   2     1.089824829068   110.09888972   300.47996498
 C      9   1   2     1.399466326426   166.56772729    55.99906301
 N     31   9  19     1.153679304269   177.97188705   183.00778380

---------------------------
INTERNAL COORDINATES (A.U.)
---------------------------
 C      0   0   0     0.000000000000     0.00000000     0.00000000
 C      1   0   0     2.868853723376     0.00000000     0.00000000
 O      2   1   0     2.273343177114   124.65712386     0.00000000
 O      2   1   3     2.494631588355   109.76527146   180.80382337
 C      4   2   1     2.708148412676   116.50262826   177.58451281
 H      1   2   3     2.070272465648   110.69336661   226.79091016
 H      5   4   2     2.053110941951   105.54706398   181.09891315
 H      5   4   2     2.059322713537   110.04742294    61.74534162
 C      1   2   3     4.354730296172   109.71372599    58.55834081
 C      9   1   2     2.817717744751    41.66416533   100.69558603
 C     10   9   1     2.849539940417   113.87400496   121.58780517
 C     11  10   9     2.618421683836   122.42192227   337.85450515
 C     12  11  10     2.624919728999   121.18249907   180.47956896
 C     13  12  11     2.615622217261   119.24475675   359.83316978
 C     14  13  12     2.624338460739   120.69687285     0.31917522
 C     15  14  13     2.625990038117   119.77110499     0.17332678
 O     16  15  14     2.548731301149   124.00853246   178.64731314
 C     17  16  15     2.674778643417   118.22455904     2.74421680
 N      9   1   2     2.485075208281    71.62300792   265.25254184
 O     19   9   1     2.280442224539   132.49922522   172.90967108
 H     10   9   1     2.061408004474   110.94581619   245.12268384
 H     12  11  10     2.050462623444   119.49339397     0.53637279
 H     13  12  11     2.046831672545   120.08420129   179.96012657
 H     14  13  12     2.048699987436   120.21256231   180.04257042
 H     15  14  13     2.043674481774   119.72090684   179.40065120
 H     18  17  16     2.055928102893   105.98139018   179.05413222
 H     18  17  16     2.066585202778   111.05739130    60.06588265
 H     18  17  16     2.065811138584   111.06196227   297.89673512
 O     19   9   1     2.629038293809   110.90497540   351.09627982
 H      5   4   2     2.059470460887   110.09888972   300.47996498
 C      9   1   2     2.644608090590   166.56772729    55.99906301
 N     31   9  19     2.180137931441   177.97188705   183.00778380

---------------------
BASIS SET INFORMATION
---------------------
There are 4 groups of distinct atoms

 Group   1 Type C   : 11s6p2d1f contracted to 5s3p2d1f pattern {62111/411/11/1}
 Group   2 Type O   : 11s6p2d1f contracted to 5s3p2d1f pattern {62111/411/11/1}
 Group   3 Type H   : 5s1p contracted to 3s1p pattern {311/1}
 Group   4 Type N   : 11s6p2d1f contracted to 5s3p2d1f pattern {62111/411/11/1}

Atom   0C    basis set group =>   1
Atom   1C    basis set group =>   1
Atom   2O    basis set group =>   2
Atom   3O    basis set group =>   2
Atom   4C    basis set group =>   1
Atom   5H    basis set group =>   3
Atom   6H    basis set group =>   3
Atom   7H    basis set group =>   3
Atom   8C    basis set group =>   1
Atom   9C    basis set group =>   1
Atom  10C    basis set group =>   1
Atom  11C    basis set group =>   1
Atom  12C    basis set group =>   1
Atom  13C    basis set group =>   1
Atom  14C    basis set group =>   1
Atom  15C    basis set group =>   1
Atom  16O    basis set group =>   2
Atom  17C    basis set group =>   1
Atom  18N    basis set group =>   4
Atom  19O    basis set group =>   2
Atom  20H    basis set group =>   3
Atom  21H    basis set group =>   3
Atom  22H    basis set group =>   3
Atom  23H    basis set group =>   3
Atom  24H    basis set group =>   3
Atom  25H    basis set group =>   3
Atom  26H    basis set group =>   3
Atom  27H    basis set group =>   3
Atom  28O    basis set group =>   2
Atom  29H    basis set group =>   3
Atom  30C    basis set group =>   1
Atom  31N    basis set group =>   4
---------------------------------
AUXILIARY/J BASIS SET INFORMATION
---------------------------------
There are 4 groups of distinct atoms

 Group   1 Type C   : 12s5p4d2f1g contracted to 6s4p3d1f1g pattern {711111/2111/211/2/1}
 Group   2 Type O   : 12s5p4d2f1g contracted to 6s4p3d1f1g pattern {711111/2111/211/2/1}
 Group   3 Type H   : 5s2p1d contracted to 3s1p1d pattern {311/2/1}
 Group   4 Type N   : 12s5p4d2f1g contracted to 6s4p3d1f1g pattern {711111/2111/211/2/1}

Atom   0C    basis set group =>   1
Atom   1C    basis set group =>   1
Atom   2O    basis set group =>   2
Atom   3O    basis set group =>   2
Atom   4C    basis set group =>   1
Atom   5H    basis set group =>   3
Atom   6H    basis set group =>   3
Atom   7H    basis set group =>   3
Atom   8C    basis set group =>   1
Atom   9C    basis set group =>   1
Atom  10C    basis set group =>   1
Atom  11C    basis set group =>   1
Atom  12C    basis set group =>   1
Atom  13C    basis set group =>   1
Atom  14C    basis set group =>   1
Atom  15C    basis set group =>   1
Atom  16O    basis set group =>   2
Atom  17C    basis set group =>   1
Atom  18N    basis set group =>   4
Atom  19O    basis set group =>   2
Atom  20H    basis set group =>   3
Atom  21H    basis set group =>   3
Atom  22H    basis set group =>   3
Atom  23H    basis set group =>   3
Atom  24H    basis set group =>   3
Atom  25H    basis set group =>   3
Atom  26H    basis set group =>   3
Atom  27H    basis set group =>   3
Atom  28O    basis set group =>   2
Atom  29H    basis set group =>   3
Atom  30C    basis set group =>   1
Atom  31N    basis set group =>   4


           ************************************************************
           *        Program running with 24 parallel MPI-processes    *
           *              working on a common directory               *
           ************************************************************
------------------------------------------------------------------------------
                           ORCA GTO INTEGRAL CALCULATION
                           -- RI-GTO INTEGRALS CHOSEN --
------------------------------------------------------------------------------
------------------------------------------------------------------------------
                   ___                                                        
                  /   \      - P O W E R E D   B Y -                         
                 /     \                                                     
                 |  |  |   _    _      __       _____    __    __             
                 |  |  |  | |  | |    /  \     |  _  \  |  |  /  |          
                  \  \/   | |  | |   /    \    | | | |  |  | /  /          
                 / \  \   | |__| |  /  /\  \   | |_| |  |  |/  /          
                |  |  |   |  __  | /  /__\  \  |    /   |      \           
                |  |  |   | |  | | |   __   |  |    \   |  |\   \          
                \     /   | |  | | |  |  |  |  | |\  \  |  | \   \       
                 \___/    |_|  |_| |__|  |__|  |_| \__\ |__|  \__/        
                                                                              
                      - O R C A' S   B I G   F R I E N D -                    
                                      &                                       
                       - I N T E G R A L  F E E D E R -                       
                                                                              
 v1 FN, 2020, v2 2021                                                         
------------------------------------------------------------------------------


Reading SHARK input file 4_CN_free/4_CN_free.SHARKINP.tmp ... ok
----------------------
SHARK INTEGRAL PACKAGE
----------------------

Number of atoms                             ...     32
Number of basis functions                   ...    692
Number of shells                            ...    268
Maximum angular momentum                    ...      3
Integral batch strategy                     ... SHARK/LIBINT Hybrid
RI-J (if used) integral strategy            ... SPLIT-RIJ (Revised 2003 algorithm where possible)
Printlevel                                  ...      1
Contraction scheme used                     ... SEGMENTED contraction
Coulomb Range Separation                    ... NOT USED
Exchange Range Separation                   ... NOT USED
Finite Nucleus Model                        ... NOT USED
Auxiliary Coulomb fitting basis             ... AVAILABLE
   # of basis functions in Aux-J            ...   1112
   # of shells in Aux-J                     ...    360
   Maximum angular momentum in Aux-J        ...      4
Auxiliary J/K fitting basis                 ... NOT available
Auxiliary Correlation fitting basis         ... NOT available
Auxiliary 'external' fitting basis          ... NOT available
Integral threshold                          ...     2.500000e-11
Primitive cut-off                           ...     2.500000e-12
Primitive pair pre-selection threshold      ...     2.500000e-12

Calculating pre-screening integrals         ... done (  0.1 sec) Dimension = 268
Organizing shell pair data                  ... done (  0.4 sec)
Shell pair information
Total number of shell pairs                 ...     36046
Shell pairs after pre-screening             ...     27015
Total number of primitive shell pairs       ...    112104
Primitive shell pairs kept                  ...     56137
          la=0 lb=0:   6664 shell pairs
          la=1 lb=0:   7641 shell pairs
          la=1 lb=1:   2204 shell pairs
          la=2 lb=0:   3920 shell pairs
          la=2 lb=1:   2300 shell pairs
          la=2 lb=2:    619 shell pairs
          la=3 lb=0:   1853 shell pairs
          la=3 lb=1:   1106 shell pairs
          la=3 lb=2:    563 shell pairs
          la=3 lb=3:    145 shell pairs

Calculating one electron integrals          ... done (  0.0 sec)
Calculating RI/J V-Matrix + Cholesky decomp.... done (  0.2 sec)
Calculating Nuclear repulsion               ... done (  0.0 sec) ENN=   1583.451753825266 Eh

SHARK setup successfully completed in   1.2 seconds

Maximum memory used throughout the entire GTOINT-calculation: 42.7 MB


           ************************************************************
           *        Program running with 24 parallel MPI-processes    *
           *              working on a common directory               *
           ************************************************************
-------------------------------------------------------------------------------
                                 ORCA SCF
-------------------------------------------------------------------------------

------------
SCF SETTINGS
------------
Hamiltonian:
 Density Functional     Method          .... DFT(GTOs)
 Exchange Functional    Exchange        .... PBE
   PBE kappa parameter   XKappa         ....  0.804000
   PBE mue parameter    XMuePBE         ....  0.219520
 Correlation Functional Correlation     .... PBE
   PBE beta parameter  CBetaPBE         ....  0.066725
 LDA part of GGA corr.  LDAOpt          .... PW91-LDA
 Gradients option       PostSCFGGA      .... off
 Hybrid DFT is turned on
   Fraction HF Exchange ScalHFX         ....  0.250000
   Scaling of DF-GGA-X  ScalDFX         ....  0.750000
   Scaling of DF-GGA-C  ScalDFC         ....  1.000000
   Scaling of DF-LDA-C  ScalLDAC        ....  1.000000
   Perturbative correction              ....  0.000000
   Density functional embedding theory  .... OFF
   NL short-range parameter             ....  6.900000
 RI-approximation to the Coulomb term is turned on
   Number of AuxJ basis functions       .... 1112
   RIJ-COSX (HFX calculated with COS-X)).... on


General Settings:
 Integral files         IntName         .... 4_CN_free/4_CN_free
 Hartree-Fock type      HFTyp           .... RHF
 Total Charge           Charge          ....    0
 Multiplicity           Mult            ....    1
 Number of Electrons    NEL             ....  144
 Basis Dimension        Dim             ....  692
 Nuclear Repulsion      ENuc            ....   1583.4517538253 Eh

Convergence Acceleration:
 DIIS                   CNVDIIS         .... on
   Start iteration      DIISMaxIt       ....    12
   Startup error        DIISStart       ....  0.200000
   # of expansion vecs  DIISMaxEq       ....     5
   Bias factor          DIISBfac        ....   1.050
   Max. coefficient     DIISMaxC        ....  10.000
 Trust-Rad. Augm. Hess. CNVTRAH         .... auto
   Auto Start mean grad. ratio tolernc. ....  1.125000
   Auto Start start iteration           ....    20
   Auto Start num. interpolation iter.  ....    10
   Max. Number of Micro iterations      ....    16
   Max. Number of Macro iterations      .... Maxiter - #DIIS iter
   Number of Davidson start vectors     ....     2
   Converg. threshold I  (grad. norm)   ....   1.000e-05
   Converg. threshold II (energy diff.) ....   1.000e-08
   Grad. Scal. Fac. for Micro threshold ....   0.100
   Minimum threshold for Micro iter.    ....   0.010
   NR start threshold (gradient norm)   ....   0.001
   Initial trust radius                 ....   0.400
   Minimum AH scaling param. (alpha)    ....   1.000
   Maximum AH scaling param. (alpha)    .... 1000.000
   Orbital update algorithm             .... Taylor
   White noise on init. David. guess    .... on
   Maximum white noise                  ....   0.010
   Quad. conv. algorithm                .... NR
 SOSCF                  CNVSOSCF        .... on
   Start iteration      SOSCFMaxIt      ....   150
   Startup grad/error   SOSCFStart      ....  0.003300
 Level Shifting         CNVShift        .... on
   Level shift para.    LevelShift      ....    0.2500
   Turn off err/grad.   ShiftErr        ....    0.0010
 Zerner damping         CNVZerner       .... off
 Static damping         CNVDamp         .... on
   Fraction old density DampFac         ....    0.7000
   Max. Damping (<1)    DampMax         ....    0.9800
   Min. Damping (>=0)   DampMin         ....    0.0000
   Turn off err/grad.   DampErr         ....    0.1000
 Fernandez-Rico         CNVRico         .... off

SCF Procedure:
 Maximum # iterations   MaxIter         ....   800
 SCF integral mode      SCFMode         .... Direct
   Integral package                     .... SHARK and LIBINT hybrid scheme
 Reset frequency        DirectResetFreq ....    20
 Integral Threshold     Thresh          ....  2.500e-11 Eh
 Primitive CutOff       TCut            ....  2.500e-12 Eh

Convergence Tolerance:
 Convergence Check Mode ConvCheckMode   .... Total+1el-Energy
 Convergence forced     ConvForced      .... 0
 Energy Change          TolE            ....  1.000e-08 Eh
 1-El. energy change                    ....  1.000e-05 Eh
 Orbital Gradient       TolG            ....  1.000e-05
 Orbital Rotation angle TolX            ....  1.000e-05
 DIIS Error             TolErr          ....  5.000e-07


Diagonalization of the overlap matrix:
Smallest eigenvalue                        ... 6.487e-06
Time for diagonalization                   ...    0.133 sec
Threshold for overlap eigenvalues          ... 1.000e-08
Number of eigenvalues below threshold      ... 0
Time for construction of square roots      ...    0.079 sec
Total time needed                          ...    0.216 sec

Time for model grid setup =    0.241 sec

------------------------------
INITIAL GUESS: MODEL POTENTIAL
------------------------------
Loading Hartree-Fock densities                     ... done
Calculating cut-offs                               ... done
Initializing the effective Hamiltonian             ... done
Setting up the integral package (SHARK)            ... done
Starting the Coulomb interaction                   ... done (   0.2 sec)
Reading the grid                                   ... done
Mapping shells                                     ... done
Starting the XC term evaluation                    ... done (   0.1 sec)
  promolecular density results
     # of electrons  =    143.997818176
     EX              =   -123.916721170
     EC              =     -4.875733599
     EX+EC           =   -128.792454769
Transforming the Hamiltonian                       ... done (   0.1 sec)
Diagonalizing the Hamiltonian                      ... done (   0.1 sec)
Back transforming the eigenvectors                 ... done (   0.0 sec)
Now organizing SCF variables                       ... done
                      ------------------
                      INITIAL GUESS DONE (   1.0 sec)
                      ------------------
-------------------
DFT GRID GENERATION
-------------------

General Integration Accuracy     IntAcc      ... 4.388
Radial Grid Type                 RadialGrid  ... OptM3 with GC (2021)
Angular Grid (max. ang.)         AngularGrid ... 4 (Lebedev-302)
Angular grid pruning method      GridPruning ... 4 (adaptive)
Weight generation scheme         WeightScheme... Becke
Basis function cutoff            BFCut       ... 1.0000e-11
Integration weight cutoff        WCut        ... 1.0000e-14
Angular grids for H and He will be reduced by one unit
Partially contracted basis set               ... off
Rotationally invariant grid construction     ... off

Total number of grid points                  ...   158348
Total number of batches                      ...     2488
Average number of points per batch           ...       63
Average number of grid points per atom       ...     4948
Time for grid setup =    1.047 sec

--------------------
COSX GRID GENERATION
--------------------

GRIDX 1
-------
General Integration Accuracy     IntAcc      ... 3.816
Radial Grid Type                 RadialGrid  ... OptM3 with GC (2021)
Angular Grid (max. ang.)         AngularGrid ... 1 (Lebedev-50)
Angular grid pruning method      GridPruning ... 4 (adaptive)
Weight generation scheme         WeightScheme... Becke
Basis function cutoff            BFCut       ... 1.0000e-11
Integration weight cutoff        WCut        ... 1.0000e-14
Angular grids for H and He will be reduced by one unit
Partially contracted basis set               ... on
Rotationally invariant grid construction     ... off

Total number of grid points                  ...    20059
Total number of batches                      ...      330
Average number of points per batch           ...       60
Average number of grid points per atom       ...      627
UseSFitting                                  ... on

GRIDX 2
-------
General Integration Accuracy     IntAcc      ... 4.020
Radial Grid Type                 RadialGrid  ... OptM3 with GC (2021)
Angular Grid (max. ang.)         AngularGrid ... 2 (Lebedev-110)
Angular grid pruning method      GridPruning ... 4 (adaptive)
Weight generation scheme         WeightScheme... Becke
Basis function cutoff            BFCut       ... 1.0000e-11
Integration weight cutoff        WCut        ... 1.0000e-14
Angular grids for H and He will be reduced by one unit
Partially contracted basis set               ... on
Rotationally invariant grid construction     ... off

Total number of grid points                  ...    44300
Total number of batches                      ...      711
Average number of points per batch           ...       62
Average number of grid points per atom       ...     1384
UseSFitting                                  ... on

GRIDX 3
-------
General Integration Accuracy     IntAcc      ... 4.338
Radial Grid Type                 RadialGrid  ... OptM3 with GC (2021)
Angular Grid (max. ang.)         AngularGrid ... 3 (Lebedev-194)
Angular grid pruning method      GridPruning ... 4 (adaptive)
Weight generation scheme         WeightScheme... Becke
Basis function cutoff            BFCut       ... 1.0000e-11
Integration weight cutoff        WCut        ... 1.0000e-14
Angular grids for H and He will be reduced by one unit
Partially contracted basis set               ... on
Rotationally invariant grid construction     ... off

Total number of grid points                  ...    97156
Total number of batches                      ...     1536
Average number of points per batch           ...       63
Average number of grid points per atom       ...     3036
UseSFitting                                  ... on

Time for X-Grid setup             =    1.744 sec


--------------------
CPCM SOLVATION MODEL
--------------------
CPCM parameters:
  Epsilon                                         ...      47.2000
  Refrac                                          ...       1.4790
  Rsolv                                           ...       1.3000
  Surface type                                    ... GAUSSIAN VDW
  Epsilon function type                           ...         CPCM
Radii:
 Radius for C  used is    3.8550 Bohr (=   2.0400 Ang.)
 Radius for O  used is    3.4469 Bohr (=   1.8240 Ang.)
 Radius for H  used is    2.4944 Bohr (=   1.3200 Ang.)
 Radius for N  used is    3.5149 Bohr (=   1.8600 Ang.)
Calculating surface                               ...        done! (  0.0s)
GEPOL surface points                              ...         1720
GEPOL Volume                                      ...    2091.9510
GEPOL Surface-area                                ...    1096.3588
Calculating surface distance matrix               ...        done! (  0.1s)
Performing Cholesky decomposition & store         ...        done! (  0.2s)
Overall time for CPCM initialization              ...                 0.3s
--------------
SCF ITERATIONS
--------------
ITER       Energy         Delta-E        Max-DP      RMS-DP      [F,P]     Damp
               ***  Starting incremental Fock matrix formation  ***
  0   -986.9175143251   0.000000000000 0.18970392  0.00097184  0.2690377 0.7000
  1   -987.1381546972  -0.220640372087 0.15299858  0.00080435  0.1065298 0.7000
                               ***Turning on DIIS***
  2   -987.2189605026  -0.080805805369 0.18992658  0.00120399  0.0296283 0.0000
  3   -987.3613197605  -0.142359257924 0.12351940  0.00071051  0.0516388 0.0000
  4   -987.3845314425  -0.023211681998 0.02721851  0.00020677  0.0176803 0.0000
  5   -987.3871031153  -0.002571672763 0.01352909  0.00008189  0.0058939 0.0000
                      *** Initiating the SOSCF procedure ***
                           *** Shutting down DIIS ***
                      *** Re-Reading the Fockian *** 
                      *** Removing any level shift *** 
ITER      Energy       Delta-E        Grad      Rot      Max-DP    RMS-DP
  6   -987.38720593  -0.0001028106  0.000324  0.000324  0.003210  0.000024
               *** Restarting incremental Fock matrix formation ***
  7   -987.38721644  -0.0000105173  0.000140  0.000683  0.001641  0.000019
  8   -987.38721525   0.0000011883  0.000362  0.000705  0.000984  0.000008
  9   -987.38721881  -0.0000035578  0.000049  0.000163  0.000402  0.000004
 10   -987.38721872   0.0000000886  0.000037  0.000064  0.000259  0.000002
 11   -987.38721892  -0.0000001978  0.000006  0.000021  0.000184  0.000002
 12   -987.38721892   0.0000000012  0.000010  0.000013  0.000032  0.000000
 13   -987.38721892   0.0000000051  0.000003  0.000008  0.000146  0.000001
 14   -987.38721890   0.0000000188  0.000004  0.000005  0.000099  0.000001
                  ***Gradient check signals convergence***
              ***Rediagonalizing the Fockian in SOSCF/NRSCF***

               *****************************************************
               *                     SUCCESS                       *
               *           SCF CONVERGED AFTER  15 CYCLES          *
               *****************************************************

Old exchange energy                            =    -31.500862735 Eh
New exchange energy                            =    -31.500859368 Eh
Exchange energy change after final integration =      0.000003366 Eh
Total energy after final integration           =   -987.387215576 Eh
Final COS-X integration done in                =     9.490 sec

----------------
TOTAL SCF ENERGY
----------------

Total Energy       :         -987.38721558 Eh          -26868.17209 eV

Components:
Nuclear Repulsion  :         1583.45175383 Eh           43087.91277 eV
Electronic Energy  :        -2570.83896940 Eh          -69956.08486 eV
One Electron Energy:        -4491.24444602 Eh         -122212.97456 eV
Two Electron Energy:         1920.40547662 Eh           52256.88971 eV
Max COSX asymmetry :            0.00000147 Eh               0.00004 eV
CPCM Dielectric    :           -0.03003100 Eh              -0.81718 eV

Virial components:
Potential Energy   :        -1970.57964218 Eh          -53622.19816 eV
Kinetic Energy     :          983.19242660 Eh           26754.02608 eV
Virial Ratio       :            2.00426650


DFT components:
N(Alpha)           :       72.000100911079 electrons
N(Beta)            :       72.000100911079 electrons
N(Total)           :      144.000201822158 electrons
E(X)               :      -94.407571483106 Eh       
E(C)               :       -4.876214495313 Eh       
E(XC)              :      -99.283785978419 Eh       
DFET-embed. en.    :        0.000000000000 Eh       
CPCM Solvation Model Properties:
Surface-charge          :           -0.02686093
Charge-correction       :            0.00003326 Eh               0.00091 eV
Free-energy (cav+disp)  :  This term is not implemented in the current solvation scheme

---------------
SCF CONVERGENCE
---------------

  Last Energy change         ...   -4.5488e-08  Tolerance :   1.0000e-08
  Last MAX-Density change    ...    1.7764e-15  Tolerance :   1.0000e-07
  Last RMS-Density change    ...    1.5200e-17  Tolerance :   5.0000e-09
  Last Orbital Gradient      ...    5.4488e-07  Tolerance :   1.0000e-05
  Last Orbital Rotation      ...    1.4669e-06  Tolerance :   1.0000e-05

             **** THE GBW FILE WAS UPDATED (4_CN_free/4_CN_free.gbw) ****
             **** DENSITY 4_CN_free/4_CN_free.scfp WAS UPDATED ****
             **** ENERGY FILE WAS UPDATED (4_CN_free/4_CN_free.en.tmp) ****
             **** THE GBW FILE WAS UPDATED (4_CN_free/4_CN_free.gbw) ****
             **** DENSITY 4_CN_free/4_CN_free.scfp WAS UPDATED ****
----------------
ORBITAL ENERGIES
----------------

  NO   OCC          E(Eh)            E(eV) 
   0   2.0000     -19.308723      -525.4171 
   1   2.0000     -19.273675      -524.4634 
   2   2.0000     -19.256209      -523.9881 
   3   2.0000     -19.249611      -523.8085 
   4   2.0000     -19.215902      -522.8913 
   5   2.0000     -14.628585      -398.0640 
   6   2.0000     -14.409782      -392.1101 
   7   2.0000     -10.370613      -282.1987 
   8   2.0000     -10.326935      -281.0102 
   9   2.0000     -10.322106      -280.8788 
  10   2.0000     -10.296272      -280.1758 
  11   2.0000     -10.293853      -280.1100 
  12   2.0000     -10.286637      -279.9136 
  13   2.0000     -10.275059      -279.5986 
  14   2.0000     -10.268349      -279.4160 
  15   2.0000     -10.247761      -278.8557 
  16   2.0000     -10.236577      -278.5514 
  17   2.0000     -10.233313      -278.4626 
  18   2.0000     -10.229323      -278.3540 
  19   2.0000     -10.225050      -278.2378 
  20   2.0000      -1.275916       -34.7194 
  21   2.0000      -1.165743       -31.7215 
  22   2.0000      -1.132951       -30.8292 
  23   2.0000      -1.112828       -30.2816 
  24   2.0000      -1.072304       -29.1789 
  25   2.0000      -0.970684       -26.4137 
  26   2.0000      -0.934975       -25.4420 
  27   2.0000      -0.897881       -24.4326 
  28   2.0000      -0.857980       -23.3468 
  29   2.0000      -0.800602       -21.7855 
  30   2.0000      -0.783491       -21.3199 
  31   2.0000      -0.763032       -20.7632 
  32   2.0000      -0.732216       -19.9246 
  33   2.0000      -0.719185       -19.5700 
  34   2.0000      -0.706851       -19.2344 
  35   2.0000      -0.640417       -17.4266 
  36   2.0000      -0.635321       -17.2880 
  37   2.0000      -0.617687       -16.8081 
  38   2.0000      -0.593601       -16.1527 
  39   2.0000      -0.587438       -15.9850 
  40   2.0000      -0.564747       -15.3675 
  41   2.0000      -0.554779       -15.0963 
  42   2.0000      -0.538202       -14.6452 
  43   2.0000      -0.530377       -14.4323 
  44   2.0000      -0.523681       -14.2501 
  45   2.0000      -0.511806       -13.9269 
  46   2.0000      -0.506870       -13.7926 
  47   2.0000      -0.491625       -13.3778 
  48   2.0000      -0.484316       -13.1789 
  49   2.0000      -0.469602       -12.7785 
  50   2.0000      -0.463664       -12.6170 
  51   2.0000      -0.454841       -12.3769 
  52   2.0000      -0.449810       -12.2400 
  53   2.0000      -0.437013       -11.8917 
  54   2.0000      -0.429641       -11.6911 
  55   2.0000      -0.416656       -11.3378 
  56   2.0000      -0.413204       -11.2439 
  57   2.0000      -0.405270       -11.0280 
  58   2.0000      -0.397096       -10.8055 
  59   2.0000      -0.389181       -10.5901 
  60   2.0000      -0.388737       -10.5781 
  61   2.0000      -0.380716       -10.3598 
  62   2.0000      -0.374337       -10.1862 
  63   2.0000      -0.366226        -9.9655 
  64   2.0000      -0.349543        -9.5115 
  65   2.0000      -0.346737        -9.4352 
  66   2.0000      -0.345449        -9.4001 
  67   2.0000      -0.338383        -9.2079 
  68   2.0000      -0.318940        -8.6788 
  69   2.0000      -0.278282        -7.5724 
  70   2.0000      -0.273723        -7.4484 
  71   2.0000      -0.244956        -6.6656 
  72   0.0000      -0.079822        -2.1721 
  73   0.0000      -0.023310        -0.6343 
  74   0.0000      -0.013857        -0.3771 
  75   0.0000      -0.000308        -0.0084 
  76   0.0000      -0.000119        -0.0032 
  77   0.0000       0.038199         1.0394 
  78   0.0000       0.052258         1.4220 
  79   0.0000       0.062680         1.7056 
  80   0.0000       0.068396         1.8612 
  81   0.0000       0.073564         2.0018 
  82   0.0000       0.083088         2.2609 
  83   0.0000       0.084577         2.3015 
  84   0.0000       0.090747         2.4694 
  85   0.0000       0.097823         2.6619 
  86   0.0000       0.104736         2.8500 
  87   0.0000       0.113060         3.0765 
  88   0.0000       0.115998         3.1565 
  89   0.0000       0.128113         3.4861 
  90   0.0000       0.130872         3.5612 
  91   0.0000       0.137689         3.7467 
  92   0.0000       0.144031         3.9193 
  93   0.0000       0.147942         4.0257 
  94   0.0000       0.148328         4.0362 
  95   0.0000       0.152968         4.1625 
  96   0.0000       0.162603         4.4246 
  97   0.0000       0.166047         4.5184 
  98   0.0000       0.185427         5.0457 
  99   0.0000       0.194242         5.2856 
 100   0.0000       0.199367         5.4251 
 101   0.0000       0.207597         5.6490 
 102   0.0000       0.211055         5.7431 
 103   0.0000       0.215070         5.8523 
 104   0.0000       0.221153         6.0179 
 105   0.0000       0.224159         6.0997 
 106   0.0000       0.225578         6.1383 
 107   0.0000       0.235247         6.4014 
 108   0.0000       0.238217         6.4822 
 109   0.0000       0.240327         6.5396 
 110   0.0000       0.245935         6.6922 
 111   0.0000       0.250937         6.8284 
 112   0.0000       0.258814         7.0427 
 113   0.0000       0.266155         7.2424 
 114   0.0000       0.270839         7.3699 
 115   0.0000       0.281257         7.6534 
 116   0.0000       0.287962         7.8358 
 117   0.0000       0.292854         7.9690 
 118   0.0000       0.297694         8.1007 
 119   0.0000       0.299948         8.1620 
 120   0.0000       0.301813         8.2127 
 121   0.0000       0.308256         8.3881 
 122   0.0000       0.319425         8.6920 
 123   0.0000       0.324856         8.8398 
 124   0.0000       0.327991         8.9251 
 125   0.0000       0.335545         9.1306 
 126   0.0000       0.336610         9.1596 
 127   0.0000       0.353608         9.6222 
 128   0.0000       0.354372         9.6429 
 129   0.0000       0.360779         9.8173 
 130   0.0000       0.367901        10.0111 
 131   0.0000       0.370762        10.0889 
 132   0.0000       0.379835        10.3358 
 133   0.0000       0.381662        10.3855 
 134   0.0000       0.386964        10.5298 
 135   0.0000       0.390127        10.6159 
 136   0.0000       0.395109        10.7515 
 137   0.0000       0.397983        10.8297 
 138   0.0000       0.405546        11.0355 
 139   0.0000       0.411726        11.2036 
 140   0.0000       0.415228        11.2989 
 141   0.0000       0.418248        11.3811 
 142   0.0000       0.422881        11.5072 
 143   0.0000       0.425326        11.5737 
 144   0.0000       0.434596        11.8260 
 145   0.0000       0.440664        11.9911 
 146   0.0000       0.444065        12.0836 
 147   0.0000       0.450224        12.2512 
 148   0.0000       0.455454        12.3935 
 149   0.0000       0.458659        12.4807 
 150   0.0000       0.460792        12.5388 
 151   0.0000       0.463325        12.6077 
 152   0.0000       0.471946        12.8423 
 153   0.0000       0.473429        12.8827 
 154   0.0000       0.477627        12.9969 
 155   0.0000       0.487606        13.2684 
 156   0.0000       0.491139        13.3646 
 157   0.0000       0.493224        13.4213 
 158   0.0000       0.497464        13.5367 
 159   0.0000       0.506929        13.7942 
 160   0.0000       0.514788        14.0081 
 161   0.0000       0.518259        14.1025 
 162   0.0000       0.523744        14.2518 
 163   0.0000       0.533701        14.5227 
 164   0.0000       0.542105        14.7514 
 165   0.0000       0.544241        14.8095 
 166   0.0000       0.549900        14.9635 
 167   0.0000       0.556936        15.1550 
 168   0.0000       0.568127        15.4595 
 169   0.0000       0.575169        15.6512 
 170   0.0000       0.582012        15.8374 
 171   0.0000       0.584905        15.9161 
 172   0.0000       0.596771        16.2390 
 173   0.0000       0.601977        16.3806 
 174   0.0000       0.606118        16.4933 
 175   0.0000       0.614486        16.7210 
 176   0.0000       0.621910        16.9230 
 177   0.0000       0.638988        17.3877 
 178   0.0000       0.644280        17.5318 
 179   0.0000       0.647206        17.6114 
 180   0.0000       0.658135        17.9088 
 181   0.0000       0.662053        18.0154 
 182   0.0000       0.664875        18.0922 
 183   0.0000       0.680644        18.5213 
 184   0.0000       0.686490        18.6803 
 185   0.0000       0.693235        18.8639 
 186   0.0000       0.708338        19.2749 
 187   0.0000       0.715959        19.4822 
 188   0.0000       0.720360        19.6020 
 189   0.0000       0.722775        19.6677 
 190   0.0000       0.724327        19.7099 
 191   0.0000       0.741283        20.1713 
 192   0.0000       0.748171        20.3588 
 193   0.0000       0.754332        20.5264 
 194   0.0000       0.763618        20.7791 
 195   0.0000       0.768488        20.9116 
 196   0.0000       0.773789        21.0559 
 197   0.0000       0.778597        21.1867 
 198   0.0000       0.793179        21.5835 
 199   0.0000       0.805130        21.9087 
 200   0.0000       0.806209        21.9381 
 201   0.0000       0.817846        22.2547 
 202   0.0000       0.829677        22.5766 
 203   0.0000       0.841147        22.8888 
 204   0.0000       0.842271        22.9194 
 205   0.0000       0.844633        22.9836 
 206   0.0000       0.853330        23.2203 
 207   0.0000       0.861537        23.4436 
 208   0.0000       0.866330        23.5740 
 209   0.0000       0.886823        24.1317 
 210   0.0000       0.889468        24.2036 
 211   0.0000       0.890942        24.2438 
 212   0.0000       0.909950        24.7610 
 213   0.0000       0.912455        24.8292 
 214   0.0000       0.918400        24.9909 
 215   0.0000       0.937404        25.5081 
 216   0.0000       0.939371        25.5616 
 217   0.0000       0.944810        25.7096 
 218   0.0000       0.961452        26.1624 
 219   0.0000       0.971651        26.4400 
 220   0.0000       0.974634        26.5211 
 221   0.0000       0.987771        26.8786 
 222   0.0000       0.993001        27.0209 
 223   0.0000       1.010142        27.4874 
 224   0.0000       1.015079        27.6217 
 225   0.0000       1.016662        27.6648 
 226   0.0000       1.033942        28.1350 
 227   0.0000       1.042067        28.3561 
 228   0.0000       1.045541        28.4506 
 229   0.0000       1.055945        28.7337 
 230   0.0000       1.062279        28.9061 
 231   0.0000       1.070936        29.1417 
 232   0.0000       1.077001        29.3067 
 233   0.0000       1.084427        29.5088 
 234   0.0000       1.092909        29.7396 
 235   0.0000       1.096193        29.8289 
 236   0.0000       1.123464        30.5710 
 237   0.0000       1.136436        30.9240 
 238   0.0000       1.141235        31.0546 
 239   0.0000       1.164779        31.6953 
 240   0.0000       1.169609        31.8267 
 241   0.0000       1.180597        32.1257 
 242   0.0000       1.193059        32.4648 
 243   0.0000       1.204679        32.7810 
 244   0.0000       1.217314        33.1248 
 245   0.0000       1.224204        33.3123 
 246   0.0000       1.228791        33.4371 
 247   0.0000       1.238691        33.7065 
 248   0.0000       1.246607        33.9219 
 249   0.0000       1.252887        34.0928 
 250   0.0000       1.265599        34.4387 
 251   0.0000       1.270708        34.5777 
 252   0.0000       1.277355        34.7586 
 253   0.0000       1.289809        35.0975 
 254   0.0000       1.311832        35.6968 
 255   0.0000       1.322665        35.9915 
 256   0.0000       1.332427        36.2572 
 257   0.0000       1.337342        36.3909 
 258   0.0000       1.344350        36.5816 
 259   0.0000       1.357741        36.9460 
 260   0.0000       1.370457        37.2920 
 261   0.0000       1.384244        37.6672 
 262   0.0000       1.391615        37.8678 
 263   0.0000       1.401062        38.1248 
 264   0.0000       1.425571        38.7918 
 265   0.0000       1.439504        39.1709 
 266   0.0000       1.441482        39.2247 
 267   0.0000       1.443394        39.2768 
 268   0.0000       1.454040        39.5664 
 269   0.0000       1.461546        39.7707 
 270   0.0000       1.466777        39.9130 
 271   0.0000       1.480107        40.2758 
 272   0.0000       1.484205        40.3873 
 273   0.0000       1.486299        40.4442 
 274   0.0000       1.497565        40.7508 
 275   0.0000       1.508786        41.0562 
 276   0.0000       1.517387        41.2902 
 277   0.0000       1.521371        41.3986 
 278   0.0000       1.524528        41.4845 
 279   0.0000       1.526510        41.5384 
 280   0.0000       1.532484        41.7010 
 281   0.0000       1.541292        41.9407 
 282   0.0000       1.547665        42.1141 
 283   0.0000       1.554671        42.3048 
 284   0.0000       1.557980        42.3948 
 285   0.0000       1.562821        42.5265 
 286   0.0000       1.589961        43.2650 
 287   0.0000       1.591169        43.2979 
 288   0.0000       1.595810        43.4242 
 289   0.0000       1.603921        43.6449 
 290   0.0000       1.616037        43.9746 
 291   0.0000       1.621120        44.1129 
 292   0.0000       1.627212        44.2787 
 293   0.0000       1.636853        44.5410 
 294   0.0000       1.647410        44.8283 
 295   0.0000       1.661773        45.2191 
 296   0.0000       1.671117        45.4734 
 297   0.0000       1.682611        45.7862 
 298   0.0000       1.701595        46.3028 
 299   0.0000       1.709426        46.5159 
 300   0.0000       1.719842        46.7993 
 301   0.0000       1.725656        46.9575 
 302   0.0000       1.726851        46.9900 
 303   0.0000       1.728680        47.0398 
 304   0.0000       1.737991        47.2931 
 305   0.0000       1.760618        47.9089 
 306   0.0000       1.770193        48.1694 
 307   0.0000       1.784873        48.5689 
 308   0.0000       1.789723        48.7008 
 309   0.0000       1.810894        49.2769 
 310   0.0000       1.823078        49.6085 
 311   0.0000       1.841632        50.1133 
 312   0.0000       1.851188        50.3734 
 313   0.0000       1.859935        50.6114 
 314   0.0000       1.866807        50.7984 
 315   0.0000       1.877836        51.0985 
 316   0.0000       1.886968        51.3470 
 317   0.0000       1.893407        51.5222 
 318   0.0000       1.903371        51.7933 
 319   0.0000       1.913561        52.0706 
 320   0.0000       1.921299        52.2812 
 321   0.0000       1.934128        52.6303 
 322   0.0000       1.947810        53.0026 
 323   0.0000       1.959483        53.3202 
 324   0.0000       1.965747        53.4907 
 325   0.0000       1.977580        53.8127 
 326   0.0000       1.988507        54.1100 
 327   0.0000       1.993983        54.2590 
 328   0.0000       2.008824        54.6629 
 329   0.0000       2.016572        54.8737 
 330   0.0000       2.024909        55.1006 
 331   0.0000       2.029768        55.2328 
 332   0.0000       2.046442        55.6865 
 333   0.0000       2.053041        55.8661 
 334   0.0000       2.060769        56.0764 
 335   0.0000       2.073235        56.4156 
 336   0.0000       2.080217        56.6056 
 337   0.0000       2.099905        57.1413 
 338   0.0000       2.100531        57.1583 
 339   0.0000       2.114623        57.5418 
 340   0.0000       2.123500        57.7834 
 341   0.0000       2.133740        58.0620 
 342   0.0000       2.139828        58.2277 
 343   0.0000       2.147550        58.4378 
 344   0.0000       2.168916        59.0192 
 345   0.0000       2.171432        59.0877 
 346   0.0000       2.184631        59.4468 
 347   0.0000       2.190748        59.6133 
 348   0.0000       2.205311        60.0096 
 349   0.0000       2.212343        60.2009 
 350   0.0000       2.230098        60.6840 
 351   0.0000       2.241274        60.9882 
 352   0.0000       2.253459        61.3197 
 353   0.0000       2.262392        61.5628 
 354   0.0000       2.266482        61.6741 
 355   0.0000       2.275684        61.9245 
 356   0.0000       2.280337        62.0511 
 357   0.0000       2.285397        62.1888 
 358   0.0000       2.297445        62.5167 
 359   0.0000       2.313478        62.9529 
 360   0.0000       2.322870        63.2085 
 361   0.0000       2.328957        63.3741 
 362   0.0000       2.333043        63.4853 
 363   0.0000       2.348577        63.9080 
 364   0.0000       2.363074        64.3025 
 365   0.0000       2.379745        64.7561 
 366   0.0000       2.389432        65.0198 
 367   0.0000       2.396470        65.2113 
 368   0.0000       2.405919        65.4684 
 369   0.0000       2.415348        65.7250 
 370   0.0000       2.422715        65.9254 
 371   0.0000       2.438172        66.3460 
 372   0.0000       2.453017        66.7500 
 373   0.0000       2.458346        66.8950 
 374   0.0000       2.467923        67.1556 
 375   0.0000       2.484534        67.6076 
 376   0.0000       2.502340        68.0921 
 377   0.0000       2.515325        68.4455 
 378   0.0000       2.524310        68.6900 
 379   0.0000       2.539948        69.1155 
 380   0.0000       2.544854        69.2490 
 381   0.0000       2.549087        69.3642 
 382   0.0000       2.552211        69.4492 
 383   0.0000       2.562241        69.7221 
 384   0.0000       2.574986        70.0689 
 385   0.0000       2.578893        70.1752 
 386   0.0000       2.589584        70.4662 
 387   0.0000       2.603283        70.8389 
 388   0.0000       2.620434        71.3056 
 389   0.0000       2.626130        71.4606 
 390   0.0000       2.639577        71.8265 
 391   0.0000       2.647203        72.0341 
 392   0.0000       2.655739        72.2663 
 393   0.0000       2.664957        72.5172 
 394   0.0000       2.669339        72.6364 
 395   0.0000       2.676893        72.8419 
 396   0.0000       2.683280        73.0157 
 397   0.0000       2.694771        73.3284 
 398   0.0000       2.706372        73.6441 
 399   0.0000       2.717559        73.9485 
 400   0.0000       2.720357        74.0247 
 401   0.0000       2.737803        74.4994 
 402   0.0000       2.743047        74.6421 
 403   0.0000       2.756455        75.0069 
 404   0.0000       2.762412        75.1691 
 405   0.0000       2.776422        75.5503 
 406   0.0000       2.786777        75.8321 
 407   0.0000       2.790835        75.9425 
 408   0.0000       2.797935        76.1357 
 409   0.0000       2.801076        76.2211 
 410   0.0000       2.813366        76.5556 
 411   0.0000       2.821648        76.7810 
 412   0.0000       2.826083        76.9016 
 413   0.0000       2.841014        77.3079 
 414   0.0000       2.852188        77.6120 
 415   0.0000       2.854751        77.6817 
 416   0.0000       2.859298        77.8055 
 417   0.0000       2.874189        78.2107 
 418   0.0000       2.879193        78.3468 
 419   0.0000       2.882105        78.4261 
 420   0.0000       2.883904        78.4750 
 421   0.0000       2.894073        78.7517 
 422   0.0000       2.905724        79.0688 
 423   0.0000       2.910260        79.1922 
 424   0.0000       2.918002        79.4029 
 425   0.0000       2.935041        79.8665 
 426   0.0000       2.946384        80.1752 
 427   0.0000       2.964159        80.6589 
 428   0.0000       2.975956        80.9799 
 429   0.0000       2.989501        81.3485 
 430   0.0000       3.000950        81.6600 
 431   0.0000       3.011421        81.9449 
 432   0.0000       3.019553        82.1662 
 433   0.0000       3.029438        82.4352 
 434   0.0000       3.034882        82.5833 
 435   0.0000       3.040584        82.7385 
 436   0.0000       3.048027        82.9410 
 437   0.0000       3.059137        83.2433 
 438   0.0000       3.063677        83.3669 
 439   0.0000       3.076367        83.7122 
 440   0.0000       3.079179        83.7887 
 441   0.0000       3.093823        84.1872 
 442   0.0000       3.104582        84.4800 
 443   0.0000       3.110574        84.6430 
 444   0.0000       3.113757        84.7296 
 445   0.0000       3.125424        85.0471 
 446   0.0000       3.135143        85.3116 
 447   0.0000       3.142165        85.5026 
 448   0.0000       3.144971        85.5790 
 449   0.0000       3.165152        86.1282 
 450   0.0000       3.166075        86.1533 
 451   0.0000       3.179007        86.5052 
 452   0.0000       3.186067        86.6973 
 453   0.0000       3.196344        86.9769 
 454   0.0000       3.206122        87.2430 
 455   0.0000       3.213778        87.4513 
 456   0.0000       3.216809        87.5338 
 457   0.0000       3.217083        87.5413 
 458   0.0000       3.227125        87.8145 
 459   0.0000       3.237412        88.0945 
 460   0.0000       3.243423        88.2580 
 461   0.0000       3.257549        88.6424 
 462   0.0000       3.262659        88.7815 
 463   0.0000       3.268742        88.9470 
 464   0.0000       3.280149        89.2574 
 465   0.0000       3.291723        89.5723 
 466   0.0000       3.299435        89.7822 
 467   0.0000       3.313587        90.1673 
 468   0.0000       3.316825        90.2554 
 469   0.0000       3.326591        90.5211 
 470   0.0000       3.329445        90.5988 
 471   0.0000       3.331531        90.6556 
 472   0.0000       3.335254        90.7569 
 473   0.0000       3.339308        90.8672 
 474   0.0000       3.346539        91.0640 
 475   0.0000       3.358964        91.4021 
 476   0.0000       3.362710        91.5040 
 477   0.0000       3.370500        91.7160 
 478   0.0000       3.372794        91.7784 
 479   0.0000       3.383711        92.0755 
 480   0.0000       3.394604        92.3719 
 481   0.0000       3.409279        92.7712 
 482   0.0000       3.418357        93.0182 
 483   0.0000       3.425728        93.2188 
 484   0.0000       3.434604        93.4603 
 485   0.0000       3.438977        93.5793 
 486   0.0000       3.446542        93.7852 
 487   0.0000       3.454829        94.0107 
 488   0.0000       3.463187        94.2381 
 489   0.0000       3.468059        94.3707 
 490   0.0000       3.469180        94.4012 
 491   0.0000       3.478073        94.6432 
 492   0.0000       3.500965        95.2661 
 493   0.0000       3.511989        95.5661 
 494   0.0000       3.516363        95.6851 
 495   0.0000       3.532913        96.1355 
 496   0.0000       3.545315        96.4729 
 497   0.0000       3.553749        96.7024 
 498   0.0000       3.561167        96.9043 
 499   0.0000       3.567798        97.0847 
 500   0.0000       3.571544        97.1866 
 501   0.0000       3.584486        97.5388 
 502   0.0000       3.592601        97.7596 
 503   0.0000       3.596476        97.8651 
[...]
     61      -0.000861   0.001920  -0.000019  -0.001067  -0.000799   0.000380
     62      -0.003635   0.005444   0.000173  -0.002368  -0.001047   0.000832
     63      -0.000518  -0.643954  -0.000740   0.381896   0.224184  -0.031308
     64      -0.000129  -0.184102  -0.000216   0.108806   0.060907  -0.008252
     65      -0.000373  -0.473140  -0.000550   0.280329   0.162267  -0.022471
     66      -0.000096  -0.007859   0.000009  -0.007534  -0.017712   0.000951
     67       0.000369   0.343818  -0.000341   0.168199   0.692586  -0.084874
     68       0.000222   0.259717  -0.000255   0.125123   0.522162  -0.064584
     69      -0.008799   0.293448  -0.000884   0.676780  -0.284951   0.196149
     70       0.006056  -0.206150   0.000622  -0.475394   0.196819  -0.139265
     71       0.000119  -0.007503   0.000022  -0.017255   0.004700  -0.006183
     72       0.025748  -0.061276   0.000372  -0.133220   0.157679   0.761680
     73       0.008336  -0.016131   0.000106  -0.034224   0.041135   0.207702
     74       0.019362  -0.043389   0.000268  -0.093711   0.111415   0.544960
     75      -0.271797  -0.001744  -0.000705  -0.004079   0.002893   0.008415
     76       0.780868   0.004785   0.002018   0.010324  -0.007082  -0.018115
     77       0.435641   0.002638   0.001126   0.005531  -0.003754  -0.009114
     78      -0.038174   0.000169  -0.000099  -0.000761   0.000660   0.002758
     79       0.168860   0.000518   0.000400   0.004167  -0.003815  -0.014103
     80      -0.172697  -0.000298  -0.000417  -0.003750   0.003213   0.011171
     81      -0.186404  -0.000249  -0.000456  -0.004209   0.003743   0.013571
     82      -0.058015  -0.000120  -0.000137  -0.001114   0.000870   0.002439
     83       0.137051   0.000555   0.000328   0.003455  -0.003181  -0.011437
     84      -0.000001  -0.000016   0.000002   0.000010   0.000001  -0.000000
     85       0.000004   0.000046   0.000012  -0.000029  -0.000024   0.000007
     86      -0.000002  -0.000006   0.000002   0.000009   0.000012  -0.000008
     87       0.000205   0.000053  -0.249661  -0.000389  -0.000008   0.000027
     88       0.000118   0.000036  -0.105465  -0.000175  -0.000025   0.000028
     89      -0.000146  -0.000022   0.126338   0.000190  -0.000003  -0.000008
     90       0.000005   0.000125  -0.000004  -0.000079  -0.000073   0.000023
     91       0.000004   0.000012  -0.000008  -0.000012  -0.000020   0.000019
     92      -0.000005  -0.000070   0.000005   0.000044   0.000043  -0.000019
     93      -0.000003  -0.000034   0.000004   0.000023   0.000026  -0.000014
     94      -0.000004  -0.000041   0.000005   0.000028   0.000029  -0.000015
     95       0.000002   0.000019  -0.000002  -0.000013  -0.000014   0.000009


-----------
IR SPECTRUM
-----------

 Mode   freq       eps      Int      T**2         TX        TY        TZ
       cm**-1   L/(mol*cm) km/mol    a.u.
----------------------------------------------------------------------------
  6:     19.69   0.000212    1.07  0.003358  (-0.024143 -0.027340  0.045024)
  7:     31.76   0.000318    1.61  0.003125  ( 0.034723  0.042376 -0.011119)
  8:     50.68   0.000097    0.49  0.000594  ( 0.016489  0.008424 -0.015854)
  9:     62.28   0.000198    1.00  0.000994  (-0.029709  0.009571  0.004457)
 10:     71.82   0.000605    3.06  0.002627  ( 0.021585 -0.043292 -0.016940)
 11:    101.09   0.000634    3.20  0.001957  ( 0.000944 -0.025861  0.035884)
 12:    103.59   0.000683    3.45  0.002056  ( 0.026994  0.013589 -0.033806)
 13:    126.72   0.001142    5.77  0.002812  ( 0.043004 -0.000286  0.031019)
 14:    129.21   0.000157    0.79  0.000379  (-0.017891  0.004958  0.005818)
 15:    148.67   0.000100    0.50  0.000209  (-0.005795 -0.007762  0.010754)
 16:    167.78   0.001441    7.28  0.002681  ( 0.010646 -0.003610 -0.050539)
 17:    197.96   0.000066    0.33  0.000104  (-0.008166  0.002761 -0.005406)
 18:    217.55   0.002957   14.94  0.004242  ( 0.035379  0.054031  0.008415)
 19:    249.69   0.001645    8.31  0.002055  ( 0.015956  0.021582 -0.036538)
 20:    254.09   0.001427    7.21  0.001753  (-0.011908 -0.011902 -0.038332)
 21:    287.82   0.000265    1.34  0.000288  ( 0.001819 -0.016472  0.003625)
 22:    311.43   0.001057    5.34  0.001059  (-0.013672 -0.029473 -0.001912)
 23:    339.13   0.001995   10.08  0.001836  ( 0.038154 -0.019366  0.002315)
 24:    351.78   0.003927   19.84  0.003483  ( 0.019677  0.041682  0.036862)
 25:    398.06   0.001634    8.26  0.001281  (-0.019742  0.027960  0.010475)
 26:    456.16   0.001211    6.12  0.000829  (-0.010943 -0.020796  0.016623)
 27:    479.11   0.000380    1.92  0.000248  (-0.001542 -0.008416  0.013214)
 28:    499.95   0.001667    8.42  0.001041  (-0.029177  0.013734 -0.000794)
 29:    525.86   0.001874    9.47  0.001112  (-0.017991 -0.007924  0.026937)
 30:    542.74   0.001787    9.03  0.001028  (-0.017095 -0.007895  0.025944)
 31:    569.07   0.000431    2.18  0.000236  ( 0.008546 -0.004962 -0.011776)
 32:    586.26   0.001602    8.10  0.000853  ( 0.018607 -0.016023 -0.015808)
 33:    608.95   0.003183   16.09  0.001631  ( 0.038694  0.011416  0.001954)
 34:    640.96   0.005802   29.32  0.002825  ( 0.031517  0.042793  0.000384)
 35:    706.78   0.000177    0.89  0.000078  ( 0.005477  0.004495  0.005268)
 36:    719.15   0.005968   30.16  0.002590  (-0.021297  0.046215  0.000671)
 37:    733.40   0.001894    9.57  0.000806  (-0.026608 -0.004854 -0.008630)
 38:    764.93   0.016914   85.48  0.006900  (-0.044320 -0.020396  0.067232)
 39:    773.82   0.012181   61.56  0.004912  ( 0.013629  0.051847 -0.045150)
 40:    790.26   0.002913   14.72  0.001150  (-0.010860  0.019662 -0.025409)
 41:    818.35   0.007300   36.89  0.002784  (-0.011159  0.050620  0.009829)
 42:    850.69   0.002150   10.87  0.000789  ( 0.006646 -0.022741  0.015079)
 43:    877.04   0.001331    6.73  0.000474  (-0.006875 -0.014861  0.014333)
 44:    897.54   0.003650   18.45  0.001269  ( 0.029608  0.002105  0.019700)
 45:    949.47   0.055193  278.93  0.018140  (-0.080861 -0.106006 -0.019098)
 46:    957.72   0.004896   24.74  0.001595  ( 0.035657  0.017910 -0.001792)
 47:    968.25   0.001611    8.14  0.000519  (-0.019728  0.007600 -0.008510)
 48:    993.33   0.000079    0.40  0.000025  (-0.002231 -0.003871 -0.002176)
 49:   1009.08   0.010473   52.93  0.003239  (-0.012164 -0.055565 -0.001889)
 50:   1041.13   0.003348   16.92  0.001003  (-0.018749  0.022169  0.012667)
 51:   1070.74   0.015830   80.00  0.004614  ( 0.049672  0.019659  0.041950)
 52:   1083.69   0.009293   46.96  0.002676  ( 0.000725  0.035582  0.037541)
 53:   1089.67   0.011765   59.46  0.003369  (-0.003377 -0.012619 -0.056558)
 54:   1140.39   0.010015   50.61  0.002740  ( 0.029303  0.015954  0.040340)
 55:   1171.76   0.000185    0.93  0.000049  ( 0.002170  0.003436 -0.005718)
 56:   1171.90   0.000096    0.48  0.000026  (-0.001418 -0.004133 -0.002538)
 57:   1176.04   0.001531    7.74  0.000406  (-0.016113 -0.004006 -0.011426)
 58:   1194.17   0.002729   13.79  0.000713  ( 0.002404 -0.023731  0.012006)
 59:   1205.83   0.004275   21.61  0.001106  (-0.005341 -0.024944 -0.021347)
 60:   1211.34   0.003190   16.12  0.000822  ( 0.015763  0.023923  0.000954)
 61:   1225.26   0.004329   21.88  0.001102  (-0.007335 -0.027767  0.016663)
 62:   1239.70   0.029614  149.66  0.007454  ( 0.032608  0.045407  0.065798)
 63:   1280.97   0.039094  197.57  0.009524  (-0.014749  0.079750  0.054280)
 64:   1296.53   0.089047  450.01  0.021433  (-0.059817 -0.094463 -0.094507)
 65:   1309.10   0.005780   29.21  0.001378  ( 0.010809 -0.024395 -0.025803)
 66:   1319.99   0.015436   78.01  0.003649  ( 0.001588  0.049391  0.034747)
 67:   1348.12   0.000399    2.02  0.000092  (-0.002274 -0.003759 -0.008549)
 68:   1372.47   0.007793   39.38  0.001772  ( 0.013215 -0.028440 -0.028081)
 69:   1391.82   0.031677  160.08  0.007102  ( 0.026491  0.053078  0.059862)
 70:   1438.63   0.008989   45.43  0.001950  ( 0.040615  0.011090  0.013313)
 71:   1465.37   0.007717   39.00  0.001643  (-0.005670 -0.029995 -0.026674)
 72:   1466.22   0.003682   18.61  0.000784  ( 0.009040  0.020546 -0.016729)
 73:   1470.67   0.011217   56.68  0.002380  (-0.003008  0.036547  0.032177)
 74:   1472.67   0.002844   14.37  0.000603  ( 0.022743 -0.001583  0.009106)
 75:   1474.01   0.003014   15.23  0.000638  (-0.009270 -0.013859  0.018979)
 76:   1482.80   0.005440   27.49  0.001145  ( 0.002583 -0.027708 -0.019246)
 77:   1499.60   0.014625   73.91  0.003043  (-0.014539 -0.037337 -0.037921)
 78:   1536.68   0.040221  203.26  0.008168  ( 0.011101  0.067214  0.059389)
 79:   1649.37   0.014389   72.72  0.002723  (-0.032205 -0.002379 -0.040984)
 80:   1664.24   0.024393  123.27  0.004574  ( 0.005525  0.032898  0.058831)
 81:   1693.26   0.220813  1115.90  0.040695  (-0.071321  0.075727 -0.172841)
 82:   1808.04   0.102651  518.76  0.017717  ( 0.110374 -0.025797  0.069781)
 83:   2349.01   0.028442  143.73  0.003778  (-0.029964 -0.042855  0.032311)
 84:   3040.16   0.012192   61.62  0.001252  ( 0.025805  0.011399  0.021347)
 85:   3077.12   0.004819   24.36  0.000489  ( 0.007046 -0.016935 -0.012342)
 86:   3112.81   0.006864   34.69  0.000688  (-0.009621 -0.014129  0.019898)
 87:   3112.86   0.000540    2.73  0.000054  ( 0.003243 -0.002496  0.006117)
 88:   3158.39   0.000386    1.95  0.000038  ( 0.003236 -0.001430 -0.005060)
 89:   3163.68   0.002889   14.60  0.000285  ( 0.007063  0.011822 -0.009760)
 90:   3168.60   0.003570   18.04  0.000352  ( 0.006211 -0.015577 -0.008386)
 91:   3191.80   0.000307    1.55  0.000030  ( 0.004277  0.000728  0.003348)
 92:   3197.31   0.001609    8.13  0.000157  ( 0.008954  0.002159  0.008497)
 93:   3198.82   0.001699    8.59  0.000166  (-0.011680  0.004768 -0.002568)
 94:   3217.05   0.002434   12.30  0.000236  ( 0.002686 -0.012726 -0.008181)
 95:   3232.35   0.000296    1.50  0.000029  (-0.004245 -0.000950 -0.003114)

* The epsilon (eps) is given for a Dirac delta lineshape.
** The dipole moment derivative (T) already includes vibrational overlap.

The first frequency considered to be a vibration is 6
The total number of vibrations considered is 90


--------------------------
THERMOCHEMISTRY AT 298.15K
--------------------------

Temperature         ... 298.15 K
Pressure            ... 1.00 atm
Total Mass          ... 276.25 AMU

Throughout the following assumptions are being made:
  (1) The electronic state is orbitally nondegenerate
  (2) There are no thermally accessible electronically excited states
  (3) Hindered rotations indicated by low frequency modes are not
      treated as such but are treated as vibrations and this may
      cause some error
  (4) All equations used are the standard statistical mechanics
      equations for an ideal gas
  (5) All vibrations are strictly harmonic

freq.      19.69  E(vib)   ...       0.56 
freq.      31.76  E(vib)   ...       0.55 
freq.      50.68  E(vib)   ...       0.52 
freq.      62.28  E(vib)   ...       0.51 
freq.      71.82  E(vib)   ...       0.50 
freq.     101.09  E(vib)   ...       0.46 
freq.     103.59  E(vib)   ...       0.46 
freq.     126.72  E(vib)   ...       0.43 
freq.     129.21  E(vib)   ...       0.43 
freq.     148.67  E(vib)   ...       0.41 
freq.     167.78  E(vib)   ...       0.38 
freq.     197.96  E(vib)   ...       0.35 
freq.     217.55  E(vib)   ...       0.33 
freq.     249.69  E(vib)   ...       0.31 
freq.     254.09  E(vib)   ...       0.30 
freq.     287.82  E(vib)   ...       0.27 
freq.     311.43  E(vib)   ...       0.25 
freq.     339.13  E(vib)   ...       0.23 
freq.     351.78  E(vib)   ...       0.23 
freq.     398.06  E(vib)   ...       0.20 
freq.     456.16  E(vib)   ...       0.16 
freq.     479.11  E(vib)   ...       0.15 
freq.     499.95  E(vib)   ...       0.14 
freq.     525.86  E(vib)   ...       0.13 
freq.     542.74  E(vib)   ...       0.12 
freq.     569.07  E(vib)   ...       0.11 
freq.     586.26  E(vib)   ...       0.11 
freq.     608.95  E(vib)   ...       0.10 
freq.     640.96  E(vib)   ...       0.09 
freq.     706.78  E(vib)   ...       0.07 
freq.     719.15  E(vib)   ...       0.07 
freq.     733.40  E(vib)   ...       0.06 
freq.     764.93  E(vib)   ...       0.06 
freq.     773.82  E(vib)   ...       0.05 
freq.     790.26  E(vib)   ...       0.05 
freq.     818.35  E(vib)   ...       0.05 
freq.     850.69  E(vib)   ...       0.04 
freq.     877.04  E(vib)   ...       0.04 
freq.     897.54  E(vib)   ...       0.03 
freq.     949.47  E(vib)   ...       0.03 
freq.     957.72  E(vib)   ...       0.03 
freq.     968.25  E(vib)   ...       0.03 
freq.     993.33  E(vib)   ...       0.02 
freq.    1009.08  E(vib)   ...       0.02 
freq.    1041.13  E(vib)   ...       0.02 
freq.    1070.74  E(vib)   ...       0.02 
freq.    1083.69  E(vib)   ...       0.02 
freq.    1089.67  E(vib)   ...       0.02 
freq.    1140.39  E(vib)   ...       0.01 
freq.    1171.76  E(vib)   ...       0.01 
freq.    1171.90  E(vib)   ...       0.01 
freq.    1176.04  E(vib)   ...       0.01 
freq.    1194.17  E(vib)   ...       0.01 
freq.    1205.83  E(vib)   ...       0.01 
freq.    1211.34  E(vib)   ...       0.01 
freq.    1225.26  E(vib)   ...       0.01 
freq.    1239.70  E(vib)   ...       0.01 
freq.    1280.97  E(vib)   ...       0.01 
freq.    1296.53  E(vib)   ...       0.01 
freq.    1309.10  E(vib)   ...       0.01 
freq.    1319.99  E(vib)   ...       0.01 
freq.    1348.12  E(vib)   ...       0.01 
freq.    1372.47  E(vib)   ...       0.01 
freq.    1391.82  E(vib)   ...       0.00 
freq.    1438.63  E(vib)   ...       0.00 
freq.    1465.37  E(vib)   ...       0.00 
freq.    1466.22  E(vib)   ...       0.00 
freq.    1470.67  E(vib)   ...       0.00 
freq.    1472.67  E(vib)   ...       0.00 
freq.    1474.01  E(vib)   ...       0.00 
freq.    1482.80  E(vib)   ...       0.00 
freq.    1499.60  E(vib)   ...       0.00 
freq.    1536.68  E(vib)   ...       0.00 
freq.    1649.37  E(vib)   ...       0.00 
freq.    1664.24  E(vib)   ...       0.00 
freq.    1693.26  E(vib)   ...       0.00 
freq.    1808.04  E(vib)   ...       0.00 
freq.    2349.01  E(vib)   ...       0.00 
freq.    3040.16  E(vib)   ...       0.00 
freq.    3077.12  E(vib)   ...       0.00 
freq.    3112.81  E(vib)   ...       0.00 
freq.    3112.86  E(vib)   ...       0.00 
freq.    3158.39  E(vib)   ...       0.00 
freq.    3163.68  E(vib)   ...       0.00 
freq.    3168.60  E(vib)   ...       0.00 
freq.    3191.80  E(vib)   ...       0.00 
freq.    3197.31  E(vib)   ...       0.00 
freq.    3198.82  E(vib)   ...       0.00 
freq.    3217.05  E(vib)   ...       0.00 
freq.    3232.35  E(vib)   ...       0.00 

------------
INNER ENERGY
------------

The inner energy is: U= E(el) + E(ZPE) + E(vib) + E(rot) + E(trans)
    E(el)   - is the total energy from the electronic structure calculation
              = E(kin-el) + E(nuc-el) + E(el-el) + E(nuc-nuc)
    E(ZPE)  - the the zero temperature vibrational energy from the frequency calculation
    E(vib)  - the the finite temperature correction to E(ZPE) due to population
              of excited vibrational states
    E(rot)  - is the rotational thermal energy
    E(trans)- is the translational thermal energy

Summary of contributions to the inner energy U:
Electronic energy                ...   -987.42293354 Eh
Zero point energy                ...      0.24153560 Eh     151.57 kcal/mol
Thermal vibrational correction   ...      0.01542609 Eh       9.68 kcal/mol
Thermal rotational correction    ...      0.00141627 Eh       0.89 kcal/mol
Thermal translational correction ...      0.00141627 Eh       0.89 kcal/mol
-----------------------------------------------------------------------
Total thermal energy                   -987.16313931 Eh


Summary of corrections to the electronic energy:
(perhaps to be used in another calculation)
Total thermal correction                  0.01825864 Eh      11.46 kcal/mol
Non-thermal (ZPE) correction              0.24153560 Eh     151.57 kcal/mol
-----------------------------------------------------------------------
Total correction                          0.25979423 Eh     163.02 kcal/mol


--------
ENTHALPY
--------

The enthalpy is H = U + kB*T
                kB is Boltzmann's constant
Total free energy                 ...   -987.16313931 Eh 
Thermal Enthalpy correction       ...      0.00094421 Eh       0.59 kcal/mol
-----------------------------------------------------------------------
Total Enthalpy                    ...   -987.16219510 Eh


Note: Only C1 symmetry has been detected, increase convergence thresholds 
      if your molecule has a higher symmetry. Symmetry factor of 1.0 is   
      used for the rotational entropy correction. 
 

Note: Rotational entropy computed according to Herzberg 
Infrared and Raman Spectra, Chapter V,1, Van Nostrand Reinhold, 1945 
Point Group:  C1, Symmetry Number:   1  
Rotational constants in cm-1:     0.013838     0.010790     0.007182 

Vibrational entropy computed according to the QRRHO of S. Grimme
Chem.Eur.J. 2012 18 9955


-------
ENTROPY
-------

The entropy contributions are T*S = T*(S(el)+S(vib)+S(rot)+S(trans))
     S(el)   - electronic entropy
     S(vib)  - vibrational entropy
     S(rot)  - rotational entropy
     S(trans)- translational entropy
The entropies will be listed as multiplied by the temperature to get
units of energy

Electronic entropy                ...      0.00000000 Eh      0.00 kcal/mol
Vibrational entropy               ...      0.02785925 Eh     17.48 kcal/mol
Rotational entropy                ...      0.01600001 Eh     10.04 kcal/mol
Translational entropy             ...      0.02031036 Eh     12.74 kcal/mol
-----------------------------------------------------------------------
Final entropy term                ...      0.06416961 Eh     40.27 kcal/mol

In case the symmetry of your molecule has not been determined correctly
or in case you have a reason to use a different symmetry number we print 
out the resulting rotational entropy values for sn=1,12 :
 --------------------------------------------------------
|  sn= 1 | S(rot)=       0.01600001 Eh     10.04 kcal/mol|
|  sn= 2 | S(rot)=       0.01534555 Eh      9.63 kcal/mol|
|  sn= 3 | S(rot)=       0.01496272 Eh      9.39 kcal/mol|
|  sn= 4 | S(rot)=       0.01469110 Eh      9.22 kcal/mol|
|  sn= 5 | S(rot)=       0.01448041 Eh      9.09 kcal/mol|
|  sn= 6 | S(rot)=       0.01430826 Eh      8.98 kcal/mol|
|  sn= 7 | S(rot)=       0.01416272 Eh      8.89 kcal/mol|
|  sn= 8 | S(rot)=       0.01403664 Eh      8.81 kcal/mol|
|  sn= 9 | S(rot)=       0.01392543 Eh      8.74 kcal/mol|
|  sn=10 | S(rot)=       0.01382595 Eh      8.68 kcal/mol|
|  sn=11 | S(rot)=       0.01373596 Eh      8.62 kcal/mol|
|  sn=12 | S(rot)=       0.01365381 Eh      8.57 kcal/mol|
 --------------------------------------------------------


-------------------
GIBBS FREE ENERGY
-------------------

The Gibbs free energy is G = H - T*S

Total enthalpy                    ...   -987.16219510 Eh 
Total entropy correction          ...     -0.06416961 Eh    -40.27 kcal/mol
-----------------------------------------------------------------------
Final Gibbs free energy         ...   -987.22636471 Eh

For completeness - the Gibbs free energy minus the electronic energy
G-E(el)                           ...      0.19656883 Eh    123.35 kcal/mol


Timings for individual modules:

Sum of individual times         ...     2977.825 sec (=  49.630 min)
GTO integral calculation        ...       44.907 sec (=   0.748 min)   1.5 %
SCF iterations                  ...     1322.054 sec (=  22.034 min)  44.4 %
SCF Gradient evaluation         ...      400.125 sec (=   6.669 min)  13.4 %
Geometry relaxation             ...        2.278 sec (=   0.038 min)   0.1 %
Analytical frequency calculation...     1208.460 sec (=  20.141 min)  40.6 %
                             ****ORCA TERMINATED NORMALLY****
TOTAL RUN TIME: 0 days 0 hours 50 minutes 38 seconds 643 msec
