
                                 *****************
                                 * O   R   C   A *
                                 *****************

                                            #,                                       
                                            ###                                      
                                            ####                                     
                                            #####                                    
                                            ######                                   
                                           ########,                                 
                                     ,,################,,,,,                         
                               ,,#################################,,                 
                          ,,##########################################,,             
                       ,#########################################, ''#####,          
                    ,#############################################,,   '####,        
                  ,##################################################,,,,####,       
                ,###########''''           ''''###############################       
              ,#####''   ,,,,##########,,,,          '''####'''          '####       
            ,##' ,,,,###########################,,,                        '##       
           ' ,,###''''                  '''############,,,                           
         ,,##''                                '''############,,,,        ,,,,,,###''
      ,#''                                            '''#######################'''  
     '                                                          ''''####''''         
             ,#######,   #######,   ,#######,      ##                                
            ,#'     '#,  ##    ##  ,#'     '#,    #''#        ######   ,####,        
            ##       ##  ##   ,#'  ##            #'  '#       #        #'  '#        
            ##       ##  #######   ##           ,######,      #####,   #    #        
            '#,     ,#'  ##    ##  '#,     ,#' ,#      #,         ##   #,  ,#        
             '#######'   ##     ##  '#######'  #'      '#     #####' # '####'        



                  #######################################################
                  #                        -***-                        #
                  #          Department of theory and spectroscopy      #
                  #    Directorship and core code : Frank Neese         #
                  #        Max Planck Institute fuer Kohlenforschung    #
                  #                Kaiser Wilhelm Platz 1               #
                  #                 D-45470 Muelheim/Ruhr               #
                  #                      Germany                        #
                  #                                                     #
                  #                  All rights reserved                #
                  #                        -***-                        #
                  #######################################################


                         Program Version 5.0.4 -  RELEASE  -


 With contributions from (in alphabetic order):
   Daniel Aravena         : Magnetic Suceptibility
   Michael Atanasov       : Ab Initio Ligand Field Theory (pilot matlab implementation)
   Alexander A. Auer      : GIAO ZORA, VPT2 properties, NMR spectrum
   Ute Becker             : Parallelization
   Giovanni Bistoni       : ED, misc. LED, open-shell LED, HFLD
   Martin Brehm           : Molecular dynamics
   Dmytro Bykov           : SCF Hessian
   Vijay G. Chilkuri      : MRCI spin determinant printing, contributions to CSF-ICE
   Dipayan Datta          : RHF DLPNO-CCSD density
   Achintya Kumar Dutta   : EOM-CC, STEOM-CC
   Dmitry Ganyushin       : Spin-Orbit,Spin-Spin,Magnetic field MRCI
   Miquel Garcia          : C-PCM and meta-GGA Hessian, CC/C-PCM, Gaussian charge scheme
   Yang Guo               : DLPNO-NEVPT2, F12-NEVPT2, CIM, IAO-localization
   Andreas Hansen         : Spin unrestricted coupled pair/coupled cluster methods
   Benjamin Helmich-Paris : MC-RPA, TRAH-SCF, COSX integrals
   Lee Huntington         : MR-EOM, pCC
   Robert Izsak           : Overlap fitted RIJCOSX, COSX-SCS-MP3, EOM
   Marcus Kettner         : VPT2
   Christian Kollmar      : KDIIS, OOCD, Brueckner-CCSD(T), CCSD density, CASPT2, CASPT2-K
   Simone Kossmann        : Meta GGA functionals, TD-DFT gradient, OOMP2, MP2 Hessian
   Martin Krupicka        : Initial AUTO-CI
   Lucas Lang             : DCDCAS
   Marvin Lechner         : AUTO-CI (C++ implementation), FIC-MRCC
   Dagmar Lenk            : GEPOL surface, SMD
   Dimitrios Liakos       : Extrapolation schemes; Compound Job, initial MDCI parallelization
   Dimitrios Manganas     : Further ROCIS development; embedding schemes
   Dimitrios Pantazis     : SARC Basis sets
   Anastasios Papadopoulos: AUTO-CI, single reference methods and gradients
   Taras Petrenko         : DFT Hessian,TD-DFT gradient, ASA, ECA, R-Raman, ABS, FL, XAS/XES, NRVS
   Peter Pinski           : DLPNO-MP2, DLPNO-MP2 Gradient
   Christoph Reimann      : Effective Core Potentials
   Marius Retegan         : Local ZFS, SOC
   Christoph Riplinger    : Optimizer, TS searches, QM/MM, DLPNO-CCSD(T), (RO)-DLPNO pert. Triples
   Tobias Risthaus        : Range-separated hybrids, TD-DFT gradient, RPA, STAB
   Michael Roemelt        : Original ROCIS implementation
   Masaaki Saitow         : Open-shell DLPNO-CCSD energy and density
   Barbara Sandhoefer     : DKH picture change effects
   Avijit Sen             : IP-ROCIS
   Kantharuban Sivalingam : CASSCF convergence, NEVPT2, FIC-MRCI
   Bernardo de Souza      : ESD, SOC TD-DFT
   Georgi Stoychev        : AutoAux, RI-MP2 NMR, DLPNO-MP2 response
   Willem Van den Heuvel  : Paramagnetic NMR
   Boris Wezisla          : Elementary symmetry handling
   Frank Wennmohs         : Technical directorship


 We gratefully acknowledge several colleagues who have allowed us to
 interface, adapt or use parts of their codes:
   Stefan Grimme, W. Hujo, H. Kruse, P. Pracht,  : VdW corrections, initial TS optimization,
                  C. Bannwarth, S. Ehlert          DFT functionals, gCP, sTDA/sTD-DF
   Ed Valeev, F. Pavosevic, A. Kumar             : LibInt (2-el integral package), F12 methods
   Garnet Chan, S. Sharma, J. Yang, R. Olivares  : DMRG
   Ulf Ekstrom                                   : XCFun DFT Library
   Mihaly Kallay                                 : mrcc  (arbitrary order and MRCC methods)
   Jiri Pittner, Ondrej Demel                    : Mk-CCSD
   Frank Weinhold                                : gennbo (NPA and NBO analysis)
   Christopher J. Cramer and Donald G. Truhlar   : smd solvation model
   Lars Goerigk                                  : TD-DFT with DH, B97 family of functionals
   V. Asgeirsson, H. Jonsson                     : NEB implementation
   FAccTs GmbH                                   : IRC, NEB, NEB-TS, DLPNO-Multilevel, CI-OPT
                                                   MM, QMMM, 2- and 3-layer-ONIOM, Crystal-QMMM,
                                                   LR-CPCM, SF, NACMEs, symmetry and pop. for TD-DFT,
                                                   nearIR, NL-DFT gradient (VV10), updates on ESD,
                                                   ML-optimized integration grids
   S Lehtola, MJT Oliveira, MAL Marques          : LibXC Library
   Liviu Ungur et al                             : ANISO software


 Your calculation uses the libint2 library for the computation of 2-el integrals
 For citations please refer to: http://libint.valeyev.net

 Your ORCA version has been built with support for libXC version: 5.1.0
 For citations please refer to: https://tddft.org/programs/libxc/

 This ORCA versions uses:
   CBLAS   interface :  Fast vector & matrix operations
   LAPACKE interface :  Fast linear algebra routines
   SCALAPACK package :  Parallel linear algebra routines
   Shared memory     :  Shared parallel matrices
   BLAS/LAPACK       :  OpenBLAS 0.3.15  USE64BITINT DYNAMIC_ARCH NO_AFFINITY Haswell SINGLE_THREADED
        Core in use  :  Haswell
   Copyright (c) 2011-2014, The OpenBLAS Project


Your calculation utilizes the atom-pairwise dispersion correction
with the Becke-Johnson damping scheme (D3BJ)
Cite in your paper:
S.Grimme, S.Ehrlich, L.Goerigk, J Comput Chem, (2011), 32, 1456–1465 
S.Grimme, J.Antony, S.Ehrlich and H.Krieg, J.Chem.Phys., 132, (2010), 154104 
   

================================================================================

----- Orbital basis set information -----
Your calculation utilizes the basis: def2-TZVP
   F. Weigend and R. Ahlrichs, Phys. Chem. Chem. Phys. 7, 3297 (2005).

----- AuxJ basis set information -----
Your calculation utilizes the auxiliary basis: def2/J
   F. Weigend, Phys. Chem. Chem. Phys. 8, 1057 (2006).

================================================================================
                                        WARNINGS
                       Please study these warnings very carefully!
================================================================================


WARNING: Geometry Optimization
  ===> : Switching off AutoStart
         For restart on a previous wavefunction, please use MOREAD

INFO   : the flag for use of the SHARK integral package has been found!

================================================================================
                                       INPUT FILE
================================================================================
NAME = 4_F_free/4_F_free.inp
|  1> %pal nprocs 24 end
|  2> %maxcore 3500
|  3> ! PBE0 D3BJ def2-TZVP TightSCF OPT FREQ TightOpt
|  4> ! CPCM(dmso)
|  5> %scf
|  6> MaxIter 800
|  7> end
|  8> %geom
|  9> MaxIter 800
| 10> MaxStep 0.2
| 11> end
| 12> *xyz 0 1
| 13> C        0.688601000     -1.357822000     -0.083784000
| 14> C        1.038696000     -2.400404000     -1.134767000
| 15> O        1.875522000     -3.254066000     -0.997594000
| 16> O        0.299752000     -2.223994000     -2.215647000
| 17> C        0.559284000     -3.105740000     -3.314868000
| 18> H       -0.392361000     -1.329498000      0.080792000
| 19> H        1.591133000     -2.994548000     -3.647875000
| 20> H       -0.129566000     -2.805031000     -4.099475000
| 21> C        2.545513000     -0.101941000      0.281077000
| 22> C        1.266515000      0.032873000     -0.446860000
| 23> C        0.426085000      1.200761000      0.012268000
| 24> C        0.715836000      1.923950000      1.157271000
| 25> C       -0.084935000      2.986157000      1.558356000
| 26> C       -1.191761000      3.323016000      0.799015000
| 27> C       -1.506681000      2.610501000     -0.350867000
| 28> C       -0.701990000      1.548701000     -0.744792000
| 29> O       -0.933073000      0.786125000     -1.832425000
| 30> C       -2.061381000      1.086943000     -2.632379000
| 31> N        2.553255000     -1.040576000      1.164894000
| 32> O        3.382305000     -1.409160000      1.990079000
| 33> H        1.426043000      0.097909000     -1.525393000
| 34> H        1.581578000      1.656989000      1.754800000
| 35> H        0.157267000      3.540097000      2.457066000
| 36> H       -1.829740000      4.146425000      1.099571000
| 37> H       -2.381423000      2.880692000     -0.926803000
| 38> H       -2.985690000      1.002660000     -2.054733000
| 39> H       -2.065316000      0.351734000     -3.434319000
| 40> H       -1.986816000      2.092329000     -3.056095000
| 41> O        1.303225000     -1.715313000      1.151082000
| 42> H        0.375768000     -4.138504000     -3.019317000
| 43> F        3.598278000      0.667962000      0.153876000
| 44> *
| 45> 
| 46>                          ****END OF INPUT****
================================================================================

                       *****************************
                       * Geometry Optimization Run *
                       *****************************

Geometry optimization settings:
Update method            Update   .... BFGS
Choice of coordinates    CoordSys .... Z-matrix Internals
Initial Hessian          InHess   .... Almoef's Model

Convergence Tolerances:
Energy Change            TolE     ....  1.0000e-06 Eh
Max. Gradient            TolMAXG  ....  1.0000e-04 Eh/bohr
RMS Gradient             TolRMSG  ....  3.0000e-05 Eh/bohr
Max. Displacement        TolMAXD  ....  1.0000e-03 bohr
RMS Displacement         TolRMSD  ....  6.0000e-04 bohr
Strict Convergence                ....  False
------------------------------------------------------------------------------
                        ORCA OPTIMIZATION COORDINATE SETUP
------------------------------------------------------------------------------

The optimization will be done in new redundant internal coordinates
Making redundant internal coordinates   ...  (new redundants) done
Evaluating the initial hessian          ...  (Almloef) done
Evaluating the coordinates              ...  done
Calculating the B-matrix                .... done
Calculating the G-matrix                .... done
Diagonalizing the G-matrix              .... done
Small eigenvalue found = 4.291e-03
Small eigenvalue found = 1.103e-02
Small eigenvalue found = 1.884e-02
Small eigenvalue found = 2.711e-02
The first mode is                       ....   69
The number of degrees of freedom        ....   87

    -----------------------------------------------------------------
                    Redundant Internal Coordinates


    -----------------------------------------------------------------
         Definition                    Initial Value    Approx d2E/dq
    -----------------------------------------------------------------
      1. B(C   1,C   0)                  1.5212         0.385821   
      2. B(O   2,C   1)                  1.2033         1.111241   
      3. B(O   3,C   1)                  1.3212         0.720622   
      4. B(C   4,O   3)                  1.4329         0.478054   
      5. B(H   5,C   0)                  1.0938         0.355127   
      6. B(H   6,C   4)                  1.0899         0.360179   
      7. B(H   7,C   4)                  1.0865         0.364719   
      8. B(C   9,C   0)                  1.5491         0.348207   
      9. B(C   9,C   8)                  1.4778         0.452537   
     10. B(C  10,C   9)                  1.5103         0.401575   
     11. B(C  11,C  10)                  1.3849         0.636577   
     12. B(C  12,C  11)                  1.3894         0.626213   
     13. B(C  13,C  12)                  1.3839         0.638992   
     14. B(C  14,C  13)                  1.3889         0.627295   
     15. B(C  15,C  10)                  1.4024         0.596951   
     16. B(C  15,C  14)                  1.3893         0.626431   
     17. B(O  16,C  15)                  1.3483         0.652277   
     18. B(C  17,O  16)                  1.4154         0.509651   
     19. B(N  18,C   8)                  1.2893         0.810172   
     20. B(O  19,N  18)                  1.2264         0.914097   
     21. B(H  20,C   9)                  1.0922         0.357195   
     22. B(H  21,C  11)                  1.0853         0.366407   
     23. B(H  22,C  12)                  1.0831         0.369291   
     24. B(H  23,C  13)                  1.0841         0.367940   
     25. B(H  24,C  14)                  1.0816         0.371372   
     26. B(H  25,C  17)                  1.0932         0.355868   
     27. B(H  26,C  17)                  1.0880         0.362810   
     28. B(H  27,C  17)                  1.0936         0.355408   
     29. B(O  28,N  18)                  1.4206         0.447951   
     30. B(O  28,C   0)                  1.4249         0.492186   
     31. B(H  29,C   4)                  1.0898         0.360385   
     32. B(F  30,C   8)                  1.3104         0.696473   
     33. A(C   1,C   0,H   5)          110.4350         0.325298   
     34. A(H   5,C   0,O  28)          107.6005         0.336631   
     35. A(C   1,C   0,O  28)          109.1179         0.380739   
     36. A(C   1,C   0,C   9)          111.5604         0.360998   
     37. A(C   9,C   0,O  28)          105.5108         0.374043   
     38. A(H   5,C   0,C   9)          112.3770         0.319875   
     39. A(C   0,C   1,O   3)          110.1816         0.407032   
     40. A(O   2,C   1,O   3)          125.2387         0.489743   
     41. A(C   0,C   1,O   2)          124.5780         0.439788   
     42. A(C   1,O   3,C   4)          116.3689         0.420095   
     43. A(O   3,C   4,H   7)          105.5946         0.336492   
     44. A(H   7,C   4,H  29)          110.5704         0.291459   
     45. A(O   3,C   4,H   6)          110.0646         0.335792   
     46. A(O   3,C   4,H  29)          110.1586         0.335824   
     47. A(H   6,C   4,H   7)          110.5692         0.291433   
     48. A(H   6,C   4,H  29)          109.8135         0.290886   
     49. A(C   9,C   8,N  18)          114.1599         0.427581   
     50. A(N  18,C   8,F  30)          119.3044         0.457149   
     51. A(C   9,C   8,F  30)          126.4331         0.414361   
     52. A(C  10,C   9,H  20)          109.5980         0.327762   
     53. A(C   8,C   9,H  20)          111.4344         0.334306   
     54. A(C   8,C   9,C  10)          113.7282         0.380246   
     55. A(C   0,C   9,C  10)          114.5409         0.363473   
     56. A(C   0,C   9,H  20)          109.8392         0.320179   
     57. A(C   0,C   9,C   8)           97.2111         0.370996   
     58. A(C   9,C  10,C  11)          122.5954         0.403632   
     59. A(C  11,C  10,C  15)          119.0156         0.433169   
     60. A(C   9,C  10,C  15)          118.3821         0.399088   
     61. A(C  12,C  11,H  21)          119.2672         0.354547   
     62. A(C  10,C  11,H  21)          119.5806         0.355535   
     63. A(C  10,C  11,C  12)          121.1519         0.436917   
     64. A(C  13,C  12,H  22)          120.6391         0.356237   
     65. A(C  11,C  12,H  22)          120.1083         0.355018   
     66. A(C  11,C  12,C  13)          119.2525         0.437215   
     67. A(C  14,C  13,H  23)          119.0596         0.354902   
     68. A(C  12,C  13,H  23)          120.2260         0.356016   
     69. A(C  12,C  13,C  14)          120.7133         0.437352   
     70. A(C  13,C  14,C  15)          119.7022         0.435790   
     71. A(C  15,C  14,H  24)          120.5553         0.355378   
     72. A(C  13,C  14,H  24)          119.7399         0.355461   
     73. A(C  14,C  15,O  16)          124.1752         0.435990   
     74. A(C  10,C  15,O  16)          115.6586         0.432225   
     75. A(C  10,C  15,C  14)          120.1629         0.431920   
     76. A(C  15,O  16,C  17)          118.1852         0.417434   
     77. A(H  26,C  17,H  27)          109.6287         0.290583   
     78. A(H  25,C  17,H  27)          109.4668         0.289703   
     79. A(O  16,C  17,H  27)          111.1009         0.338638   
     80. A(H  25,C  17,H  26)          109.5313         0.290642   
     81. A(O  16,C  17,H  26)          106.0125         0.339805   
     82. A(O  16,C  17,H  25)          111.0367         0.338711   
     83. A(C   8,N  18,O  19)          133.1650         0.479412   
     84. A(O  19,N  18,O  28)          117.2988         0.427544   
     85. A(C   8,N  18,O  28)          109.5025         0.421209   
     86. A(C   0,O  28,N  18)          105.5937         0.385771   
     87. D(O   3,C   1,C   0,H   5)     50.9951         0.011088   
     88. D(O   2,C   1,C   0,H   5)   -129.4637         0.011088   
     89. D(O   3,C   1,C   0,C   9)    -74.7409         0.011088   
     90. D(O   2,C   1,C   0,C   9)    104.8003         0.011088   
     91. D(O   3,C   1,C   0,O  28)    169.0731         0.011088   
     92. D(O   2,C   1,C   0,O  28)    -11.3857         0.011088   
     93. D(C   4,O   3,C   1,C   0)    177.6072         0.039111   
     94. D(C   4,O   3,C   1,O   2)     -1.9303         0.039111   
     95. D(H   7,C   4,O   3,C   1)   -179.5541         0.018025   
     96. D(H   6,C   4,O   3,C   1)    -60.1953         0.018025   
     97. D(H  29,C   4,O   3,C   1)     61.0361         0.018025   
     98. D(C  10,C   9,C   0,C   1)    147.7402         0.009777   
     99. D(H  20,C   9,C   8,N  18)   -132.1406         0.015101   
    100. D(C   8,C   9,C   0,O  28)     26.3497         0.009777   
    101. D(C  10,C   9,C   8,F  30)    -72.8864         0.015101   
    102. D(C   8,C   9,C   0,C   1)    -92.0175         0.009777   
    103. D(C   0,C   9,C   8,F  30)    166.2544         0.015101   
    104. D(C   0,C   9,C   8,N  18)    -17.4840         0.015101   
    105. D(H  20,C   9,C   0,O  28)    142.2777         0.009777   
    106. D(H  20,C   9,C   0,H   5)   -100.7462         0.009777   
    107. D(H  20,C   9,C   0,C   1)     23.9104         0.009777   
    108. D(C  10,C   9,C   8,N  18)    103.3751         0.015101   
    109. D(C  10,C   9,C   0,O  28)    -93.8925         0.009777   
    110. D(C  10,C   9,C   0,H   5)     23.0837         0.009777   
    111. D(H  20,C   9,C   8,F  30)     51.5979         0.015101   
    112. D(C   8,C   9,C   0,H   5)    143.3259         0.009777   
    113. D(C  15,C  10,C   9,C   0)    -79.3239         0.011964   
    114. D(C  11,C  10,C   9,H  20)   -136.3275         0.011964   
    115. D(C  11,C  10,C   9,C   8)    -10.8609         0.011964   
    116. D(C  15,C  10,C   9,C   8)    170.1013         0.011964   
    117. D(C  11,C  10,C   9,C   0)     99.7140         0.011964   
    118. D(C  15,C  10,C   9,H  20)     44.6347         0.011964   
    119. D(H  21,C  11,C  10,C  15)    179.4612         0.028135   
    120. D(H  21,C  11,C  10,C   9)      0.4292         0.028135   
    121. D(C  12,C  11,C  10,C  15)     -0.3946         0.028135   
    122. D(C  12,C  11,C  10,C   9)   -179.4266         0.028135   
    123. D(H  22,C  12,C  11,H  21)      0.1268         0.027169   
    124. D(H  22,C  12,C  11,C  10)    179.9831         0.027169   
    125. D(C  13,C  12,C  11,H  21)   -179.7510         0.027169   
    126. D(C  13,C  12,C  11,C  10)      0.1053         0.027169   
    127. D(H  23,C  13,C  12,H  22)     -0.1266         0.028363   
    128. D(H  23,C  13,C  12,C  11)    179.7505         0.028363   
    129. D(C  14,C  13,C  12,H  22)   -179.7513         0.028363   
    130. D(C  14,C  13,C  12,C  11)      0.1259         0.028363   
    131. D(H  24,C  14,C  13,H  23)     -0.2765         0.027268   
    132. D(H  24,C  14,C  13,C  12)    179.3525         0.027268   
    133. D(C  15,C  14,C  13,H  23)   -179.6880         0.027268   
    134. D(C  15,C  14,C  13,C  12)     -0.0590         0.027268   
    135. D(O  16,C  15,C  14,H  24)     -0.3324         0.027189   
    136. D(C  10,C  15,C  14,H  24)   -179.6426         0.027189   
    137. D(C  10,C  15,C  14,C  13)     -0.2359         0.027189   
    138. D(O  16,C  15,C  10,C  11)   -178.9083         0.024553   
    139. D(O  16,C  15,C  10,C   9)      0.1647         0.024553   
    140. D(O  16,C  15,C  14,C  13)    179.0742         0.027189   
    141. D(C  14,C  15,C  10,C  11)      0.4585         0.024553   
    142. D(C  14,C  15,C  10,C   9)    179.5315         0.024553   
    143. D(C  17,O  16,C  15,C  14)      0.4072         0.031462   
    144. D(C  17,O  16,C  15,C  10)    179.7455         0.031462   
    145. D(H  27,C  17,O  16,C  15)     61.7555         0.020561   
    146. D(H  26,C  17,O  16,C  15)   -179.2096         0.020561   
    147. D(H  25,C  17,O  16,C  15)    -60.3264         0.020561   
    148. D(O  19,N  18,C   8,F  30)      0.5164         0.056135   
    149. D(O  19,N  18,C   8,C   9)   -176.0348         0.056135   
    150. D(O  28,N  18,C   8,F  30)    178.2824         0.056135   
    151. D(O  28,N  18,C   8,C   9)      1.7312         0.056135   
    152. D(C   0,O  28,N  18,O  19)   -165.0065         0.016686   
    153. D(C   0,O  28,N  18,C   8)     16.8270         0.016686   
    154. D(N  18,O  28,C   0,C   9)    -27.3630         0.019134   
    155. D(N  18,O  28,C   0,H   5)   -147.5306         0.019134   
    156. D(N  18,O  28,C   0,C   1)     92.6259         0.019134   
    -----------------------------------------------------------------

Number of atoms                         .... 31
Number of degrees of freedom            .... 156

         *************************************************************
         *                GEOMETRY OPTIMIZATION CYCLE   1            *
         *************************************************************
---------------------------------
CARTESIAN COORDINATES (ANGSTROEM)
---------------------------------
  C      0.688601   -1.357822   -0.083784
  C      1.038696   -2.400404   -1.134767
  O      1.875522   -3.254066   -0.997594
  O      0.299752   -2.223994   -2.215647
  C      0.559284   -3.105740   -3.314868
  H     -0.392361   -1.329498    0.080792
  H      1.591133   -2.994548   -3.647875
  H     -0.129566   -2.805031   -4.099475
  C      2.545513   -0.101941    0.281077
  C      1.266515    0.032873   -0.446860
  C      0.426085    1.200761    0.012268
  C      0.715836    1.923950    1.157271
  C     -0.084935    2.986157    1.558356
  C     -1.191761    3.323016    0.799015
  C     -1.506681    2.610501   -0.350867
  C     -0.701990    1.548701   -0.744792
  O     -0.933073    0.786125   -1.832425
  C     -2.061381    1.086943   -2.632379
  N      2.553255   -1.040576    1.164894
  O      3.382305   -1.409160    1.990079
  H      1.426043    0.097909   -1.525393
  H      1.581578    1.656989    1.754800
  H      0.157267    3.540097    2.457066
  H     -1.829740    4.146425    1.099571
  H     -2.381423    2.880692   -0.926803
  H     -2.985690    1.002660   -2.054733
  H     -2.065316    0.351734   -3.434319
  H     -1.986816    2.092329   -3.056095
  O      1.303225   -1.715313    1.151082
  H      0.375768   -4.138504   -3.019317
  F      3.598278    0.667962    0.153876

----------------------------
CARTESIAN COORDINATES (A.U.)
----------------------------
  NO LB      ZA    FRAG     MASS         X           Y           Z
   0 C     6.0000    0    12.011    1.301267   -2.565912   -0.158329
   1 C     6.0000    0    12.011    1.962851   -4.536106   -2.144399
   2 O     8.0000    0    15.999    3.544223   -6.149294   -1.885179
   3 O     8.0000    0    15.999    0.566449   -4.202740   -4.186966
   4 C     6.0000    0    12.011    1.056894   -5.868998   -6.264193
   5 H     1.0000    0     1.008   -0.741455   -2.512387    0.152675
   6 H     1.0000    0     1.008    3.006806   -5.658876   -6.893485
   7 H     1.0000    0     1.008   -0.244844   -5.300740   -7.746885
   8 C     6.0000    0    12.011    4.810322   -0.192641    0.531159
   9 C     6.0000    0    12.011    2.393366    0.062121   -0.844443
  10 C     6.0000    0    12.011    0.805184    2.269109    0.023183
  11 C     6.0000    0    12.011    1.352734    3.635739    2.186925
  12 C     6.0000    0    12.011   -0.160504    5.643019    2.944866
  13 C     6.0000    0    12.011   -2.252102    6.279590    1.509920
  14 C     6.0000    0    12.011   -2.847214    4.933132   -0.663043
  15 C     6.0000    0    12.011   -1.326569    2.926621   -1.407453
  16 O     8.0000    0    15.999   -1.763252    1.485561   -3.462781
  17 C     6.0000    0    12.011   -3.895446    2.054025   -4.974475
  18 N     7.0000    0    14.007    4.824953   -1.966404    2.201331
  19 O     8.0000    0    15.999    6.391630   -2.662926    3.760704
  20 H     1.0000    0     1.008    2.694831    0.185021   -2.882575
  21 H     1.0000    0     1.008    2.988749    3.131255    3.316091
  22 H     1.0000    0     1.008    0.297192    6.689814    4.643182
  23 H     1.0000    0     1.008   -3.457707    7.835608    2.077888
  24 H     1.0000    0     1.008   -4.500237    5.443719   -1.751404
  25 H     1.0000    0     1.008   -5.642136    1.894753   -3.882883
  26 H     1.0000    0     1.008   -3.902882    0.664681   -6.489922
  27 H     1.0000    0     1.008   -3.754538    3.953929   -5.775183
  28 O     8.0000    0    15.999    2.462738   -3.241472    2.175230
  29 H     1.0000    0     1.008    0.710099   -7.820639   -5.705682
  30 F     9.0000    0    18.998    6.799760    1.262265    0.290783

--------------------------------
INTERNAL COORDINATES (ANGSTROEM)
--------------------------------
 C      0   0   0     0.000000000000     0.00000000     0.00000000
 C      1   0   0     1.521219577194     0.00000000     0.00000000
 O      2   1   0     1.203259322195   124.57799498     0.00000000
 O      2   1   3     1.321158695099   110.18156833   180.45876780
 C      4   2   1     1.432871129719   116.36894665   177.60718228
 H      1   2   3     1.093785332776   110.43495509   230.53631653
 H      5   4   2     1.089940219330   110.06463319   299.80470835
 H      5   4   2     1.086530427383   105.59460941   180.44589026
 C      1   2   3     2.271229361211   107.56566717    62.21654095
 C      9   1   2     1.477803428934    42.58452627   102.86104731
 C     10   9   1     1.510325622450   113.72822196   120.85912644
 C     11  10   9     1.384915102716   122.59541817   349.13914339
 C     12  11  10     1.389383706006   121.15194848   180.57343809
 C     13  12  11     1.383884581328   119.25249297     0.10525003
 C     14  13  12     1.388913548623   120.71333332     0.12585271
 C     15  14  13     1.389288937229   119.70219645   359.94098982
 O     16  15  14     1.348283001211   124.17520729   179.07420131
 C     17  16  15     1.415449332934   118.18515789     0.40717578
 N      9   1   2     1.289274249831    73.28963368   266.22985559
 O     19   9   1     1.226420952113   133.16500640   171.71007005
 H     10   9   1     1.092205244525   111.43436073   245.34341977
 H     12  11  10     1.085273371979   119.58064774     0.42921084
 H     13  12  11     1.083139416928   120.10827709   179.98305997
 H     14  13  12     1.084137212191   120.22601624   179.75054855
 H     15  14  13     1.081609457772   119.73988956   179.35250974
 H     18  17  16     1.093218026235   111.03667131   299.67364083
 H     18  17  16     1.087959338168   106.01249425   180.79040048
 H     18  17  16     1.093570389539   111.10089338    61.75553168
 O     19   9   1     1.420575866124   109.50250635   349.47608543
 H      5   4   2     1.089784380303   110.15860732    61.03610907
 F      9   1   2     1.310436900059   165.03724360    55.09384056

---------------------------
INTERNAL COORDINATES (A.U.)
---------------------------
 C      0   0   0     0.000000000000     0.00000000     0.00000000
 C      1   0   0     2.874688390456     0.00000000     0.00000000
 O      2   1   0     2.273830587036   124.57799498     0.00000000
 O      2   1   3     2.496628113186   110.18156833   180.45876780
 C      4   2   1     2.707734020370   116.36894665   177.60718228
 H      1   2   3     2.066954728247   110.43495509   230.53631653
 H      5   4   2     2.059688516881   110.06463319   299.80470835
 H      5   4   2     2.053244943927   105.59460941   180.44589026
 C      1   2   3     4.292001480009   107.56566717    62.21654095
 C      9   1   2     2.792643760455    42.58452627   102.86104731
 C     10   9   1     2.854101799474   113.72822196   120.85912644
 C     11  10   9     2.617110262865   122.59541817   349.13914339
 C     12  11  10     2.625554699284   121.15194848   180.57343809
 C     13  12  11     2.615162859667   119.25249297     0.10525003
 C     14  13  12     2.624666230591   120.71333332     0.12585271
 C     15  14  13     2.625375612249   119.70219645   359.94098982
 O     16  15  14     2.547885623310   124.17520729   179.07420131
 C     17  16  15     2.674811595687   118.18515789     0.40717578
 N      9   1   2     2.436375243698    73.28963368   266.22985559
 O     19   9   1     2.317599724396   133.16500640   171.71007005
 H     10   9   1     2.063968794186   111.43436073   245.34341977
 H     12  11  10     2.050869453477   119.58064774     0.42921084
 H     13  12  11     2.046836862850   120.10827709   179.98305997
 H     14  13  12     2.048722422634   120.22601624   179.75054855
 H     15  14  13     2.043945659047   119.73988956   179.35250974
 H     18  17  16     2.065882674251   111.03667131   299.67364083
 H     18  17  16     2.055945193979   106.01249425   180.79040048
 H     18  17  16     2.066548544395   111.10089338    61.75553168
 O     19   9   1     2.684499339432   109.50250635   349.47608543
 H      5   4   2     2.059394023798   110.15860732    61.03610907
 F      9   1   2     2.476366856895   165.03724360    55.09384056

---------------------
BASIS SET INFORMATION
---------------------
There are 5 groups of distinct atoms

 Group   1 Type C   : 11s6p2d1f contracted to 5s3p2d1f pattern {62111/411/11/1}
 Group   2 Type O   : 11s6p2d1f contracted to 5s3p2d1f pattern {62111/411/11/1}
 Group   3 Type H   : 5s1p contracted to 3s1p pattern {311/1}
 Group   4 Type N   : 11s6p2d1f contracted to 5s3p2d1f pattern {62111/411/11/1}
 Group   5 Type F   : 11s6p2d1f contracted to 5s3p2d1f pattern {62111/411/11/1}

Atom   0C    basis set group =>   1
Atom   1C    basis set group =>   1
Atom   2O    basis set group =>   2
Atom   3O    basis set group =>   2
Atom   4C    basis set group =>   1
Atom   5H    basis set group =>   3
Atom   6H    basis set group =>   3
Atom   7H    basis set group =>   3
Atom   8C    basis set group =>   1
Atom   9C    basis set group =>   1
Atom  10C    basis set group =>   1
Atom  11C    basis set group =>   1
Atom  12C    basis set group =>   1
Atom  13C    basis set group =>   1
Atom  14C    basis set group =>   1
Atom  15C    basis set group =>   1
Atom  16O    basis set group =>   2
Atom  17C    basis set group =>   1
Atom  18N    basis set group =>   4
Atom  19O    basis set group =>   2
Atom  20H    basis set group =>   3
Atom  21H    basis set group =>   3
Atom  22H    basis set group =>   3
Atom  23H    basis set group =>   3
Atom  24H    basis set group =>   3
Atom  25H    basis set group =>   3
Atom  26H    basis set group =>   3
Atom  27H    basis set group =>   3
Atom  28O    basis set group =>   2
Atom  29H    basis set group =>   3
Atom  30F    basis set group =>   5
---------------------------------
AUXILIARY/J BASIS SET INFORMATION
---------------------------------
There are 5 groups of distinct atoms

 Group   1 Type C   : 12s5p4d2f1g contracted to 6s4p3d1f1g pattern {711111/2111/211/2/1}
 Group   2 Type O   : 12s5p4d2f1g contracted to 6s4p3d1f1g pattern {711111/2111/211/2/1}
 Group   3 Type H   : 5s2p1d contracted to 3s1p1d pattern {311/2/1}
 Group   4 Type N   : 12s5p4d2f1g contracted to 6s4p3d1f1g pattern {711111/2111/211/2/1}
 Group   5 Type F   : 12s5p4d2f1g contracted to 6s4p3d1f1g pattern {711111/2111/211/2/1}

Atom   0C    basis set group =>   1
Atom   1C    basis set group =>   1
Atom   2O    basis set group =>   2
Atom   3O    basis set group =>   2
Atom   4C    basis set group =>   1
Atom   5H    basis set group =>   3
Atom   6H    basis set group =>   3
Atom   7H    basis set group =>   3
Atom   8C    basis set group =>   1
Atom   9C    basis set group =>   1
Atom  10C    basis set group =>   1
Atom  11C    basis set group =>   1
Atom  12C    basis set group =>   1
Atom  13C    basis set group =>   1
Atom  14C    basis set group =>   1
Atom  15C    basis set group =>   1
Atom  16O    basis set group =>   2
Atom  17C    basis set group =>   1
Atom  18N    basis set group =>   4
Atom  19O    basis set group =>   2
Atom  20H    basis set group =>   3
Atom  21H    basis set group =>   3
Atom  22H    basis set group =>   3
Atom  23H    basis set group =>   3
Atom  24H    basis set group =>   3
Atom  25H    basis set group =>   3
Atom  26H    basis set group =>   3
Atom  27H    basis set group =>   3
Atom  28O    basis set group =>   2
Atom  29H    basis set group =>   3
Atom  30F    basis set group =>   5


           ************************************************************
           *        Program running with 24 parallel MPI-processes    *
           *              working on a common directory               *
           ************************************************************
------------------------------------------------------------------------------
                           ORCA GTO INTEGRAL CALCULATION
                           -- RI-GTO INTEGRALS CHOSEN --
------------------------------------------------------------------------------
------------------------------------------------------------------------------
                   ___                                                        
                  /   \      - P O W E R E D   B Y -                         
                 /     \                                                     
                 |  |  |   _    _      __       _____    __    __             
                 |  |  |  | |  | |    /  \     |  _  \  |  |  /  |          
                  \  \/   | |  | |   /    \    | | | |  |  | /  /          
                 / \  \   | |__| |  /  /\  \   | |_| |  |  |/  /          
                |  |  |   |  __  | /  /__\  \  |    /   |      \           
                |  |  |   | |  | | |   __   |  |    \   |  |\   \          
                \     /   | |  | | |  |  |  |  | |\  \  |  | \   \       
                 \___/    |_|  |_| |__|  |__|  |_| \__\ |__|  \__/        
                                                                              
                      - O R C A' S   B I G   F R I E N D -                    
                                      &                                       
                       - I N T E G R A L  F E E D E R -                       
                                                                              
 v1 FN, 2020, v2 2021                                                         
------------------------------------------------------------------------------


Reading SHARK input file 4_F_free/4_F_free.SHARKINP.tmp ... ok
----------------------
SHARK INTEGRAL PACKAGE
----------------------

Number of atoms                             ...     31
Number of basis functions                   ...    661
Number of shells                            ...    257
Maximum angular momentum                    ...      3
Integral batch strategy                     ... SHARK/LIBINT Hybrid
RI-J (if used) integral strategy            ... SPLIT-RIJ (Revised 2003 algorithm where possible)
Printlevel                                  ...      1
Contraction scheme used                     ... SEGMENTED contraction
Coulomb Range Separation                    ... NOT USED
Exchange Range Separation                   ... NOT USED
Finite Nucleus Model                        ... NOT USED
Auxiliary Coulomb fitting basis             ... AVAILABLE
   # of basis functions in Aux-J            ...   1063
   # of shells in Aux-J                     ...    345
   Maximum angular momentum in Aux-J        ...      4
Auxiliary J/K fitting basis                 ... NOT available
Auxiliary Correlation fitting basis         ... NOT available
Auxiliary 'external' fitting basis          ... NOT available
Integral threshold                          ...     2.500000e-11
Primitive cut-off                           ...     2.500000e-12
Primitive pair pre-selection threshold      ...     2.500000e-12

Calculating pre-screening integrals         ... done (  0.1 sec) Dimension = 257
Organizing shell pair data                  ... done (  1.0 sec)
Shell pair information
Total number of shell pairs                 ...     33153
Shell pairs after pre-screening             ...     24972
Total number of primitive shell pairs       ...    102832
Primitive shell pairs kept                  ...     52085
          la=0 lb=0:   6216 shell pairs
          la=1 lb=0:   7065 shell pairs
          la=1 lb=1:   2031 shell pairs
          la=2 lb=0:   3617 shell pairs
          la=2 lb=1:   2110 shell pairs
          la=2 lb=2:    563 shell pairs
          la=3 lb=0:   1714 shell pairs
          la=3 lb=1:   1007 shell pairs
          la=3 lb=2:    512 shell pairs
          la=3 lb=3:    137 shell pairs

Calculating one electron integrals          ... done (  0.0 sec)
Calculating RI/J V-Matrix + Cholesky decomp.... done (  0.2 sec)
Calculating Nuclear repulsion               ... done (  0.0 sec) ENN=   1526.828868143416 Eh

SHARK setup successfully completed in   2.0 seconds

Maximum memory used throughout the entire GTOINT-calculation: 39.7 MB


           ************************************************************
           *        Program running with 24 parallel MPI-processes    *
           *              working on a common directory               *
           ************************************************************
-------------------------------------------------------------------------------
                                 ORCA SCF
-------------------------------------------------------------------------------

------------
SCF SETTINGS
------------
Hamiltonian:
 Density Functional     Method          .... DFT(GTOs)
 Exchange Functional    Exchange        .... PBE
   PBE kappa parameter   XKappa         ....  0.804000
   PBE mue parameter    XMuePBE         ....  0.219520
 Correlation Functional Correlation     .... PBE
   PBE beta parameter  CBetaPBE         ....  0.066725
 LDA part of GGA corr.  LDAOpt          .... PW91-LDA
 Gradients option       PostSCFGGA      .... off
 Hybrid DFT is turned on
   Fraction HF Exchange ScalHFX         ....  0.250000
   Scaling of DF-GGA-X  ScalDFX         ....  0.750000
   Scaling of DF-GGA-C  ScalDFC         ....  1.000000
   Scaling of DF-LDA-C  ScalLDAC        ....  1.000000
   Perturbative correction              ....  0.000000
   Density functional embedding theory  .... OFF
   NL short-range parameter             ....  6.900000
 RI-approximation to the Coulomb term is turned on
   Number of AuxJ basis functions       .... 1063
   RIJ-COSX (HFX calculated with COS-X)).... on


General Settings:
 Integral files         IntName         .... 4_F_free/4_F_free
 Hartree-Fock type      HFTyp           .... RHF
 Total Charge           Charge          ....    0
 Multiplicity           Mult            ....    1
 Number of Electrons    NEL             ....  140
 Basis Dimension        Dim             ....  661
 Nuclear Repulsion      ENuc            ....   1526.8288681434 Eh

Convergence Acceleration:
 DIIS                   CNVDIIS         .... on
   Start iteration      DIISMaxIt       ....    12
   Startup error        DIISStart       ....  0.200000
   # of expansion vecs  DIISMaxEq       ....     5
   Bias factor          DIISBfac        ....   1.050
   Max. coefficient     DIISMaxC        ....  10.000
 Trust-Rad. Augm. Hess. CNVTRAH         .... auto
   Auto Start mean grad. ratio tolernc. ....  1.125000
   Auto Start start iteration           ....    20
   Auto Start num. interpolation iter.  ....    10
   Max. Number of Micro iterations      ....    16
   Max. Number of Macro iterations      .... Maxiter - #DIIS iter
   Number of Davidson start vectors     ....     2
   Converg. threshold I  (grad. norm)   ....   1.000e-05
   Converg. threshold II (energy diff.) ....   1.000e-08
   Grad. Scal. Fac. for Micro threshold ....   0.100
   Minimum threshold for Micro iter.    ....   0.010
   NR start threshold (gradient norm)   ....   0.001
   Initial trust radius                 ....   0.400
   Minimum AH scaling param. (alpha)    ....   1.000
   Maximum AH scaling param. (alpha)    .... 1000.000
   Orbital update algorithm             .... Taylor
   White noise on init. David. guess    .... on
   Maximum white noise                  ....   0.010
   Quad. conv. algorithm                .... NR
 SOSCF                  CNVSOSCF        .... on
   Start iteration      SOSCFMaxIt      ....   150
   Startup grad/error   SOSCFStart      ....  0.003300
 Level Shifting         CNVShift        .... on
   Level shift para.    LevelShift      ....    0.2500
   Turn off err/grad.   ShiftErr        ....    0.0010
 Zerner damping         CNVZerner       .... off
 Static damping         CNVDamp         .... on
   Fraction old density DampFac         ....    0.7000
   Max. Damping (<1)    DampMax         ....    0.9800
   Min. Damping (>=0)   DampMin         ....    0.0000
   Turn off err/grad.   DampErr         ....    0.1000
 Fernandez-Rico         CNVRico         .... off

SCF Procedure:
 Maximum # iterations   MaxIter         ....   800
 SCF integral mode      SCFMode         .... Direct
   Integral package                     .... SHARK and LIBINT hybrid scheme
 Reset frequency        DirectResetFreq ....    20
 Integral Threshold     Thresh          ....  2.500e-11 Eh
 Primitive CutOff       TCut            ....  2.500e-12 Eh

Convergence Tolerance:
 Convergence Check Mode ConvCheckMode   .... Total+1el-Energy
 Convergence forced     ConvForced      .... 0
 Energy Change          TolE            ....  1.000e-08 Eh
 1-El. energy change                    ....  1.000e-05 Eh
 Orbital Gradient       TolG            ....  1.000e-05
 Orbital Rotation angle TolX            ....  1.000e-05
 DIIS Error             TolErr          ....  5.000e-07


Diagonalization of the overlap matrix:
Smallest eigenvalue                        ... 6.430e-06
Time for diagonalization                   ...    0.135 sec
Threshold for overlap eigenvalues          ... 1.000e-08
Number of eigenvalues below threshold      ... 0
Time for construction of square roots      ...    0.077 sec
Total time needed                          ...    0.217 sec

Time for model grid setup =    0.237 sec

------------------------------
INITIAL GUESS: MODEL POTENTIAL
------------------------------
Loading Hartree-Fock densities                     ... done
Calculating cut-offs                               ... done
Initializing the effective Hamiltonian             ... done
Setting up the integral package (SHARK)            ... done
Starting the Coulomb interaction                   ... done (   0.3 sec)
Reading the grid                                   ... done
Mapping shells                                     ... done
Starting the XC term evaluation                    ... done (   0.2 sec)
  promolecular density results
     # of electrons  =    139.986063980
     EX              =   -122.319938329
     EC              =     -4.768290003
     EX+EC           =   -127.088228332
Transforming the Hamiltonian                       ... done (   0.1 sec)
Diagonalizing the Hamiltonian                      ... done (   0.1 sec)
Back transforming the eigenvectors                 ... done (   0.0 sec)
Now organizing SCF variables                       ... done
                      ------------------
                      INITIAL GUESS DONE (   1.1 sec)
                      ------------------
-------------------
DFT GRID GENERATION
-------------------

General Integration Accuracy     IntAcc      ... 4.388
Radial Grid Type                 RadialGrid  ... OptM3 with GC (2021)
Angular Grid (max. ang.)         AngularGrid ... 4 (Lebedev-302)
Angular grid pruning method      GridPruning ... 4 (adaptive)
Weight generation scheme         WeightScheme... Becke
Basis function cutoff            BFCut       ... 1.0000e-11
Integration weight cutoff        WCut        ... 1.0000e-14
Angular grids for H and He will be reduced by one unit
Partially contracted basis set               ... off
Rotationally invariant grid construction     ... off

Total number of grid points                  ...   152421
Total number of batches                      ...     2398
Average number of points per batch           ...       63
Average number of grid points per atom       ...     4917
Time for grid setup =    0.876 sec

--------------------
COSX GRID GENERATION
--------------------

GRIDX 1
-------
General Integration Accuracy     IntAcc      ... 3.816
Radial Grid Type                 RadialGrid  ... OptM3 with GC (2021)
Angular Grid (max. ang.)         AngularGrid ... 1 (Lebedev-50)
Angular grid pruning method      GridPruning ... 4 (adaptive)
Weight generation scheme         WeightScheme... Becke
Basis function cutoff            BFCut       ... 1.0000e-11
Integration weight cutoff        WCut        ... 1.0000e-14
Angular grids for H and He will be reduced by one unit
Partially contracted basis set               ... on
Rotationally invariant grid construction     ... off

Total number of grid points                  ...    19343
Total number of batches                      ...      319
Average number of points per batch           ...       60
Average number of grid points per atom       ...      624
UseSFitting                                  ... on

GRIDX 2
-------
General Integration Accuracy     IntAcc      ... 4.020
Radial Grid Type                 RadialGrid  ... OptM3 with GC (2021)
Angular Grid (max. ang.)         AngularGrid ... 2 (Lebedev-110)
Angular grid pruning method      GridPruning ... 4 (adaptive)
Weight generation scheme         WeightScheme... Becke
Basis function cutoff            BFCut       ... 1.0000e-11
Integration weight cutoff        WCut        ... 1.0000e-14
Angular grids for H and He will be reduced by one unit
Partially contracted basis set               ... on
Rotationally invariant grid construction     ... off

Total number of grid points                  ...    42626
Total number of batches                      ...      683
Average number of points per batch           ...       62
Average number of grid points per atom       ...     1375
UseSFitting                                  ... on

GRIDX 3
-------
General Integration Accuracy     IntAcc      ... 4.338
Radial Grid Type                 RadialGrid  ... OptM3 with GC (2021)
Angular Grid (max. ang.)         AngularGrid ... 3 (Lebedev-194)
Angular grid pruning method      GridPruning ... 4 (adaptive)
Weight generation scheme         WeightScheme... Becke
Basis function cutoff            BFCut       ... 1.0000e-11
Integration weight cutoff        WCut        ... 1.0000e-14
Angular grids for H and He will be reduced by one unit
Partially contracted basis set               ... on
Rotationally invariant grid construction     ... off

Total number of grid points                  ...    93381
Total number of batches                      ...     1475
Average number of points per batch           ...       63
Average number of grid points per atom       ...     3012
UseSFitting                                  ... on

Time for X-Grid setup             =    1.575 sec


--------------------
CPCM SOLVATION MODEL
--------------------
CPCM parameters:
  Epsilon                                         ...      47.2000
  Refrac                                          ...       1.4790
  Rsolv                                           ...       1.3000
  Surface type                                    ... GAUSSIAN VDW
  Epsilon function type                           ...         CPCM
Radii:
 Radius for C  used is    3.8550 Bohr (=   2.0400 Ang.)
 Radius for O  used is    3.4469 Bohr (=   1.8240 Ang.)
 Radius for H  used is    2.4944 Bohr (=   1.3200 Ang.)
 Radius for N  used is    3.5149 Bohr (=   1.8600 Ang.)
 Radius for F  used is    3.3335 Bohr (=   1.7640 Ang.)
Calculating surface                               ...        done! (  0.0s)
GEPOL surface points                              ...         1639
GEPOL Volume                                      ...    1963.4379
GEPOL Surface-area                                ...    1027.5197
Calculating surface distance matrix               ...        done! (  0.0s)
Performing Cholesky decomposition & store         ...        done! (  0.3s)
Overall time for CPCM initialization              ...                 0.4s
--------------
SCF ITERATIONS
--------------
ITER       Energy         Delta-E        Max-DP      RMS-DP      [F,P]     Damp
               ***  Starting incremental Fock matrix formation  ***
  0   -994.0001961100   0.000000000000 0.27374099  0.00099910  0.2637673 0.7000
  1   -994.1835821774  -0.183386067338 0.23303859  0.00082646  0.1025682 0.7000
                               ***Turning on DIIS***
  2   -994.2535071832  -0.069925005893 0.29801570  0.00128924  0.0312548 0.0000
  3   -994.3755946254  -0.122087442178 0.16994164  0.00059583  0.0536714 0.0000
  4   -994.3950843013  -0.019489675893 0.01543075  0.00014372  0.0181443 0.0000
  5   -994.3968869464  -0.001802645109 0.01625725  0.00006400  0.0048452 0.0000
                      *** Initiating the SOSCF procedure ***
                           *** Shutting down DIIS ***
                      *** Re-Reading the Fockian *** 
                      *** Removing any level shift *** 
ITER      Energy       Delta-E        Grad      Rot      Max-DP    RMS-DP
  6   -994.39697628  -0.0000893307  0.000314  0.000314  0.001286  0.000017
               *** Restarting incremental Fock matrix formation ***
  7   -994.39695346   0.0000228177  0.000130  0.000384  0.002264  0.000019
  8   -994.39695270   0.0000007590  0.000222  0.000449  0.001262  0.000006
  9   -994.39695574  -0.0000030386  0.000033  0.000126  0.000414  0.000003
 10   -994.39695569   0.0000000465  0.000063  0.000095  0.000229  0.000001
 11   -994.39695578  -0.0000000852  0.000006  0.000014  0.000230  0.000002
 12   -994.39695579  -0.0000000154  0.000010  0.000010  0.000141  0.000001
                  ***Gradient check signals convergence***
              ***Rediagonalizing the Fockian in SOSCF/NRSCF***

               *****************************************************
               *                     SUCCESS                       *
               *           SCF CONVERGED AFTER  13 CYCLES          *
               *****************************************************

Old exchange energy                            =    -31.082362094 Eh
New exchange energy                            =    -31.082322896 Eh
Exchange energy change after final integration =      0.000039198 Eh
Total energy after final integration           =   -994.396916575 Eh
Final COS-X integration done in                =     7.436 sec

----------------
TOTAL SCF ENERGY
----------------

Total Energy       :         -994.39691658 Eh          -27058.91575 eV

Components:
Nuclear Repulsion  :         1526.82886814 Eh           41547.12572 eV
Electronic Energy  :        -2521.22578472 Eh          -68606.04147 eV
One Electron Energy:        -4393.94792027 Eh         -119565.40150 eV
Two Electron Energy:         1872.72213555 Eh           50959.36003 eV
Max COSX asymmetry :            0.00000279 Eh               0.00008 eV
CPCM Dielectric    :           -0.02970150 Eh              -0.80822 eV

Virial components:
Potential Energy   :        -1984.67830487 Eh          -54005.84228 eV
Kinetic Energy     :          990.28138830 Eh           26946.92653 eV
Virial Ratio       :            2.00415592


DFT components:
N(Alpha)           :       70.000172496245 electrons
N(Beta)            :       70.000172496245 electrons
N(Total)           :      140.000344992491 electrons
E(X)               :      -93.144794323087 Eh       
E(C)               :       -4.765517201115 Eh       
E(XC)              :      -97.910311524202 Eh       
DFET-embed. en.    :        0.000000000000 Eh       
CPCM Solvation Model Properties:
Surface-charge          :           -0.02449015
Charge-correction       :           -0.00009605 Eh              -0.00261 eV
Free-energy (cav+disp)  :  This term is not implemented in the current solvation scheme

---------------
SCF CONVERGENCE
---------------

  Last Energy change         ...    2.0213e-08  Tolerance :   1.0000e-08
  Last MAX-Density change    ...    1.4433e-15  Tolerance :   1.0000e-07
  Last RMS-Density change    ...    1.4529e-17  Tolerance :   5.0000e-09
  Last Orbital Gradient      ...    1.4084e-06  Tolerance :   1.0000e-05
  Last Orbital Rotation      ...    2.4762e-06  Tolerance :   1.0000e-05

             **** THE GBW FILE WAS UPDATED (4_F_free/4_F_free.gbw) ****
             **** DENSITY 4_F_free/4_F_free.scfp WAS UPDATED ****
             **** ENERGY FILE WAS UPDATED (4_F_free/4_F_free.en.tmp) ****
             **** THE GBW FILE WAS UPDATED (4_F_free/4_F_free.gbw) ****
             **** DENSITY 4_F_free/4_F_free.scfp WAS UPDATED ****
----------------
ORBITAL ENERGIES
----------------

  NO   OCC          E(Eh)            E(eV) 
   0   2.0000     -24.831800      -675.7076 
   1   2.0000     -19.290030      -524.9084 
   2   2.0000     -19.271421      -524.4020 
   3   2.0000     -19.249472      -523.8048 
   4   2.0000     -19.224111      -523.1147 
   5   2.0000     -19.213255      -522.8192 
   6   2.0000     -14.591615      -397.0580 
   7   2.0000     -10.367470      -282.1132 
   8   2.0000     -10.367245      -282.1071 
   9   2.0000     -10.321637      -280.8660 
  10   2.0000     -10.295428      -280.1528 
  11   2.0000     -10.283642      -279.8321 
  12   2.0000     -10.274087      -279.5721 
  13   2.0000     -10.268183      -279.4115 
  14   2.0000     -10.247888      -278.8592 
  15   2.0000     -10.236378      -278.5460 
  16   2.0000     -10.232698      -278.4459 
  17   2.0000     -10.228992      -278.3450 
  18   2.0000     -10.224728      -278.2290 
  19   2.0000      -1.319772       -35.9128 
  20   2.0000      -1.235526       -33.6204 
  21   2.0000      -1.162373       -31.6298 
  22   2.0000      -1.112835       -30.2818 
  23   2.0000      -1.106839       -30.1186 
  24   2.0000      -1.068890       -29.0860 
  25   2.0000      -0.923357       -25.1258 
  26   2.0000      -0.895512       -24.3681 
  27   2.0000      -0.852680       -23.2026 
  28   2.0000      -0.797247       -21.6942 
  29   2.0000      -0.783317       -21.3151 
  30   2.0000      -0.759606       -20.6699 
  31   2.0000      -0.726077       -19.7576 
  32   2.0000      -0.710713       -19.3395 
  33   2.0000      -0.668389       -18.1878 
  34   2.0000      -0.641205       -17.4481 
  35   2.0000      -0.625849       -17.0302 
  36   2.0000      -0.615985       -16.7618 
  37   2.0000      -0.587869       -15.9967 
  38   2.0000      -0.580319       -15.7913 
  39   2.0000      -0.559612       -15.2278 
  40   2.0000      -0.554134       -15.0787 
  41   2.0000      -0.536119       -14.5885 
  42   2.0000      -0.533390       -14.5143 
  43   2.0000      -0.519952       -14.1486 
  44   2.0000      -0.511720       -13.9246 
  45   2.0000      -0.509977       -13.8772 
  46   2.0000      -0.501978       -13.6595 
  47   2.0000      -0.494481       -13.4555 
  48   2.0000      -0.490834       -13.3563 
  49   2.0000      -0.472910       -12.8685 
  50   2.0000      -0.463297       -12.6070 
  51   2.0000      -0.456049       -12.4097 
  52   2.0000      -0.445447       -12.1212 
  53   2.0000      -0.438665       -11.9367 
  54   2.0000      -0.431495       -11.7416 
  55   2.0000      -0.426655       -11.6099 
  56   2.0000      -0.409189       -11.1346 
  57   2.0000      -0.390935       -10.6379 
  58   2.0000      -0.388452       -10.5703 
  59   2.0000      -0.386838       -10.5264 
  60   2.0000      -0.374909       -10.2018 
  61   2.0000      -0.354060        -9.6345 
  62   2.0000      -0.347219        -9.4483 
  63   2.0000      -0.345796        -9.4096 
  64   2.0000      -0.337713        -9.1896 
  65   2.0000      -0.324672        -8.8348 
  66   2.0000      -0.313667        -8.5353 
  67   2.0000      -0.276199        -7.5157 
  68   2.0000      -0.255196        -6.9442 
  69   2.0000      -0.244457        -6.6520 
  70   0.0000      -0.024402        -0.6640 
  71   0.0000      -0.016040        -0.4365 
  72   0.0000      -0.008733        -0.2376 
  73   0.0000       0.000172         0.0047 
  74   0.0000       0.040797         1.1101 
  75   0.0000       0.044745         1.2176 
  76   0.0000       0.062988         1.7140 
  77   0.0000       0.065941         1.7943 
  78   0.0000       0.079800         2.1715 
  79   0.0000       0.084219         2.2917 
  80   0.0000       0.090641         2.4665 
  81   0.0000       0.094788         2.5793 
  82   0.0000       0.101281         2.7560 
  83   0.0000       0.113024         3.0755 
  84   0.0000       0.118629         3.2281 
  85   0.0000       0.131101         3.5674 
  86   0.0000       0.136861         3.7242 
  87   0.0000       0.140123         3.8129 
  88   0.0000       0.144426         3.9300 
  89   0.0000       0.147377         4.0103 
  90   0.0000       0.154359         4.2003 
  91   0.0000       0.160706         4.3730 
  92   0.0000       0.164344         4.4720 
  93   0.0000       0.174956         4.7608 
  94   0.0000       0.189262         5.1501 
  95   0.0000       0.198032         5.3887 
  96   0.0000       0.200024         5.4429 
  97   0.0000       0.208895         5.6843 
  98   0.0000       0.211750         5.7620 
  99   0.0000       0.215755         5.8710 
 100   0.0000       0.220688         6.0052 
 101   0.0000       0.226027         6.1505 
 102   0.0000       0.231953         6.3118 
 103   0.0000       0.238475         6.4892 
 104   0.0000       0.239836         6.5263 
 105   0.0000       0.248492         6.7618 
 106   0.0000       0.249115         6.7788 
 107   0.0000       0.260179         7.0798 
 108   0.0000       0.269135         7.3235 
 109   0.0000       0.274741         7.4761 
 110   0.0000       0.280650         7.6369 
 111   0.0000       0.287376         7.8199 
 112   0.0000       0.293139         7.9767 
 113   0.0000       0.299298         8.1443 
 114   0.0000       0.301797         8.2123 
 115   0.0000       0.309937         8.4338 
 116   0.0000       0.318147         8.6572 
 117   0.0000       0.327278         8.9057 
 118   0.0000       0.329420         8.9640 
 119   0.0000       0.336940         9.1686 
 120   0.0000       0.343487         9.3468 
 121   0.0000       0.349542         9.5115 
 122   0.0000       0.356816         9.7094 
 123   0.0000       0.368700        10.0328 
 124   0.0000       0.370194        10.0735 
 125   0.0000       0.374752        10.1975 
 126   0.0000       0.378787        10.3073 
 127   0.0000       0.384931        10.4745 
 128   0.0000       0.389600        10.6015 
 129   0.0000       0.393866        10.7176 
 130   0.0000       0.398200        10.8356 
 131   0.0000       0.403560        10.9814 
 132   0.0000       0.410961        11.1828 
 133   0.0000       0.417578        11.3629 
 134   0.0000       0.421510        11.4699 
 135   0.0000       0.424342        11.5469 
 136   0.0000       0.426859        11.6154 
 137   0.0000       0.434795        11.8314 
 138   0.0000       0.442279        12.0350 
 139   0.0000       0.446337        12.1455 
 140   0.0000       0.450892        12.2694 
 141   0.0000       0.452702        12.3187 
 142   0.0000       0.461077        12.5465 
 143   0.0000       0.464132        12.6297 
 144   0.0000       0.469156        12.7664 
 145   0.0000       0.476544        12.9674 
 146   0.0000       0.478304        13.0153 
 147   0.0000       0.485574        13.2131 
 148   0.0000       0.489106        13.3093 
 149   0.0000       0.496014        13.4972 
 150   0.0000       0.498469        13.5640 
 151   0.0000       0.500896        13.6301 
 152   0.0000       0.515386        14.0244 
 153   0.0000       0.520595        14.1661 
 154   0.0000       0.523763        14.2523 
 155   0.0000       0.528597        14.3839 
 156   0.0000       0.541046        14.7226 
 157   0.0000       0.551046        14.9947 
 158   0.0000       0.557072        15.1587 
 159   0.0000       0.562137        15.2965 
 160   0.0000       0.571312        15.5462 
 161   0.0000       0.579405        15.7664 
 162   0.0000       0.589745        16.0478 
 163   0.0000       0.591837        16.1047 
 164   0.0000       0.596594        16.2341 
 165   0.0000       0.598388        16.2830 
 166   0.0000       0.613981        16.7073 
 167   0.0000       0.619362        16.8537 
 168   0.0000       0.637130        17.3372 
 169   0.0000       0.640302        17.4235 
 170   0.0000       0.653646        17.7866 
 171   0.0000       0.657704        17.8970 
 172   0.0000       0.662151        18.0180 
 173   0.0000       0.667757        18.1706 
 174   0.0000       0.680760        18.5244 
 175   0.0000       0.683954        18.6113 
 176   0.0000       0.696286        18.9469 
 177   0.0000       0.709056        19.2944 
 178   0.0000       0.712822        19.3969 
 179   0.0000       0.734309        19.9816 
 180   0.0000       0.738776        20.1031 
 181   0.0000       0.745909        20.2972 
 182   0.0000       0.754499        20.5310 
 183   0.0000       0.756259        20.5788 
 184   0.0000       0.768000        20.8983 
 185   0.0000       0.774546        21.0765 
 186   0.0000       0.780203        21.2304 
 187   0.0000       0.787539        21.4300 
 188   0.0000       0.801561        21.8116 
 189   0.0000       0.805214        21.9110 
 190   0.0000       0.814618        22.1669 
 191   0.0000       0.823607        22.4115 
 192   0.0000       0.835888        22.7457 
 193   0.0000       0.838703        22.8223 
 194   0.0000       0.844471        22.9792 
 195   0.0000       0.856474        23.3058 
 196   0.0000       0.863414        23.4947 
 197   0.0000       0.863735        23.5034 
 198   0.0000       0.878214        23.8974 
 199   0.0000       0.890467        24.2308 
 200   0.0000       0.898810        24.4579 
 201   0.0000       0.905450        24.6385 
 202   0.0000       0.912602        24.8332 
 203   0.0000       0.919011        25.0076 
 204   0.0000       0.936279        25.4775 
 205   0.0000       0.944596        25.7038 
 206   0.0000       0.953791        25.9540 
 207   0.0000       0.957864        26.0648 
 208   0.0000       0.969307        26.3762 
 209   0.0000       0.989269        26.9194 
 210   0.0000       0.997444        27.1418 
 211   0.0000       1.004669        27.3384 
 212   0.0000       1.008702        27.4482 
 213   0.0000       1.020610        27.7722 
 214   0.0000       1.025313        27.9002 
 215   0.0000       1.029696        28.0194 
 216   0.0000       1.037884        28.2423 
 217   0.0000       1.047051        28.4917 
 218   0.0000       1.064229        28.9592 
 219   0.0000       1.071852        29.1666 
 220   0.0000       1.078507        29.3477 
 221   0.0000       1.086519        29.5657 
 222   0.0000       1.102481        30.0000 
 223   0.0000       1.113231        30.2925 
 224   0.0000       1.119141        30.4534 
 225   0.0000       1.137373        30.9495 
 226   0.0000       1.150049        31.2944 
 227   0.0000       1.166439        31.7404 
 228   0.0000       1.182165        32.1683 
 229   0.0000       1.185231        32.2518 
 230   0.0000       1.187341        32.3092 
 231   0.0000       1.204702        32.7816 
 232   0.0000       1.213496        33.0209 
 233   0.0000       1.222888        33.2765 
 234   0.0000       1.241101        33.7721 
 235   0.0000       1.250495        34.0277 
 236   0.0000       1.257631        34.2219 
 237   0.0000       1.270498        34.5720 
 238   0.0000       1.272854        34.6361 
 239   0.0000       1.283674        34.9306 
 240   0.0000       1.296950        35.2918 
 241   0.0000       1.313652        35.7463 
 242   0.0000       1.324144        36.0318 
 243   0.0000       1.334819        36.3223 
 244   0.0000       1.336470        36.3672 
 245   0.0000       1.370642        37.2971 
 246   0.0000       1.387621        37.7591 
 247   0.0000       1.394435        37.9445 
 248   0.0000       1.404813        38.2269 
 249   0.0000       1.418869        38.6094 
 250   0.0000       1.428125        38.8613 
 251   0.0000       1.434266        39.0284 
 252   0.0000       1.445315        39.3290 
 253   0.0000       1.449614        39.4460 
 254   0.0000       1.468377        39.9566 
 255   0.0000       1.482147        40.3313 
 256   0.0000       1.482973        40.3538 
 257   0.0000       1.488770        40.5115 
 258   0.0000       1.499067        40.7917 
 259   0.0000       1.506601        40.9967 
 260   0.0000       1.510657        41.1071 
 261   0.0000       1.519925        41.3593 
 262   0.0000       1.525456        41.5098 
 263   0.0000       1.530847        41.6565 
 264   0.0000       1.537353        41.8335 
 265   0.0000       1.545552        42.0566 
 266   0.0000       1.546805        42.0907 
 267   0.0000       1.555971        42.3401 
 268   0.0000       1.569760        42.7154 
 269   0.0000       1.579751        42.9872 
 270   0.0000       1.587175        43.1892 
 271   0.0000       1.597517        43.4706 
 272   0.0000       1.601146        43.5694 
 273   0.0000       1.607287        43.7365 
 274   0.0000       1.616062        43.9753 
 275   0.0000       1.635829        44.5132 
 276   0.0000       1.643707        44.7276 
 277   0.0000       1.648113        44.8474 
 278   0.0000       1.660002        45.1710 
 279   0.0000       1.668855        45.4119 
 280   0.0000       1.699041        46.2333 
 281   0.0000       1.714835        46.6630 
 282   0.0000       1.717262        46.7291 
 283   0.0000       1.720723        46.8232 
 284   0.0000       1.721476        46.8437 
 285   0.0000       1.731574        47.1185 
 286   0.0000       1.743880        47.4534 
 287   0.0000       1.754873        47.7525 
 288   0.0000       1.760103        47.8948 
 289   0.0000       1.771790        48.2129 
 290   0.0000       1.804066        49.0911 
 291   0.0000       1.815136        49.3924 
 292   0.0000       1.816139        49.4197 
 293   0.0000       1.846153        50.2364 
 294   0.0000       1.859791        50.6075 
 295   0.0000       1.863850        50.7179 
 296   0.0000       1.879880        51.1541 
 297   0.0000       1.883982        51.2658 
 298   0.0000       1.893125        51.5145 
 299   0.0000       1.899290        51.6823 
 300   0.0000       1.911260        52.0080 
 301   0.0000       1.915766        52.1306 
 302   0.0000       1.936016        52.6817 
 303   0.0000       1.941972        52.8437 
 304   0.0000       1.957742        53.2729 
 305   0.0000       1.972699        53.6799 
 306   0.0000       1.980017        53.8790 
 307   0.0000       1.990630        54.1678 
 308   0.0000       2.001182        54.4549 
 309   0.0000       2.013318        54.7852 
 310   0.0000       2.017051        54.8867 
 311   0.0000       2.019929        54.9651 
 312   0.0000       2.029003        55.2120 
 313   0.0000       2.045638        55.6647 
 314   0.0000       2.050175        55.7881 
 315   0.0000       2.056528        55.9610 
 316   0.0000       2.079124        56.5758 
 317   0.0000       2.088541        56.8321 
 318   0.0000       2.094216        56.9865 
 319   0.0000       2.102072        57.2003 
 320   0.0000       2.105850        57.3031 
 321   0.0000       2.113071        57.4996 
 322   0.0000       2.131670        58.0057 
 323   0.0000       2.137824        58.1732 
 324   0.0000       2.149710        58.4966 
 325   0.0000       2.151449        58.5439 
 326   0.0000       2.175090        59.1872 
 327   0.0000       2.189232        59.5720 
 328   0.0000       2.199036        59.8388 
 329   0.0000       2.215009        60.2735 
 330   0.0000       2.216454        60.3128 
 331   0.0000       2.234473        60.8031 
 332   0.0000       2.249985        61.2252 
 333   0.0000       2.258528        61.4577 
 334   0.0000       2.268394        61.7261 
 335   0.0000       2.272277        61.8318 
 336   0.0000       2.279624        62.0317 
 337   0.0000       2.284467        62.1635 
 338   0.0000       2.294498        62.4365 
 339   0.0000       2.314717        62.9867 
 340   0.0000       2.326479        63.3067 
 341   0.0000       2.331677        63.4481 
 342   0.0000       2.340686        63.6933 
 343   0.0000       2.364276        64.3352 
 344   0.0000       2.373919        64.5976 
 345   0.0000       2.380697        64.7820 
 346   0.0000       2.393604        65.1333 
 347   0.0000       2.399830        65.3027 
 348   0.0000       2.411692        65.6255 
 349   0.0000       2.422549        65.9209 
 350   0.0000       2.429949        66.1223 
 351   0.0000       2.438580        66.3571 
 352   0.0000       2.454040        66.7778 
 353   0.0000       2.466051        67.1047 
 354   0.0000       2.472682        67.2851 
 355   0.0000       2.490961        67.7825 
 356   0.0000       2.503308        68.1185 
 357   0.0000       2.524571        68.6971 
 358   0.0000       2.531666        68.8901 
 359   0.0000       2.538832        69.0851 
 360   0.0000       2.552628        69.4605 
 361   0.0000       2.553621        69.4876 
 362   0.0000       2.559029        69.6347 
 363   0.0000       2.566271        69.8318 
 364   0.0000       2.580180        70.2103 
 365   0.0000       2.585341        70.3507 
 366   0.0000       2.595537        70.6282 
 367   0.0000       2.607786        70.9615 
 368   0.0000       2.614542        71.1453 
 369   0.0000       2.633051        71.6490 
 370   0.0000       2.644127        71.9503 
 371   0.0000       2.654386        72.2295 
 372   0.0000       2.656981        72.3001 
 373   0.0000       2.672569        72.7243 
 374   0.0000       2.689157        73.1757 
 375   0.0000       2.696158        73.3662 
 376   0.0000       2.704713        73.5990 
 377   0.0000       2.712397        73.8081 
 378   0.0000       2.716456        73.9185 
 379   0.0000       2.736196        74.4557 
 380   0.0000       2.762504        75.1715 
 381   0.0000       2.764987        75.2391 
 382   0.0000       2.769260        75.3554 
 383   0.0000       2.776094        75.5413 
 384   0.0000       2.784651        75.7742 
 385   0.0000       2.793504        76.0151 
 386   0.0000       2.807566        76.3977 
 387   0.0000       2.820081        76.7383 
 388   0.0000       2.826242        76.9059 
 389   0.0000       2.834650        77.1347 
 390   0.0000       2.848242        77.5046 
 391   0.0000       2.862711        77.8983 
 392   0.0000       2.867060        78.0167 
 393   0.0000       2.869659        78.0874 
 394   0.0000       2.875772        78.2537 
 395   0.0000       2.876322        78.2687 
 396   0.0000       2.886200        78.5375 
 397   0.0000       2.895102        78.7797 
 398   0.0000       2.900213        78.9188 
 399   0.0000       2.905987        79.0759 
 400   0.0000       2.920358        79.4670 
 401   0.0000       2.936908        79.9173 
 402   0.0000       2.944466        80.1230 
 403   0.0000       2.962441        80.6121 
 404   0.0000       2.971536        80.8596 
 405   0.0000       2.995029        81.4989 
 406   0.0000       3.003000        81.7158 
 407   0.0000       3.010796        81.9279 
 408   0.0000       3.023135        82.2637 
 409   0.0000       3.026199        82.3471 
 410   0.0000       3.038295        82.6762 
 411   0.0000       3.040968        82.7489 
 412   0.0000       3.055723        83.1505 
 413   0.0000       3.060777        83.2880 
 414   0.0000       3.066123        83.4334 
 415   0.0000       3.083165        83.8972 
 416   0.0000       3.088362        84.0386 
 417   0.0000       3.101302        84.3907 
 418   0.0000       3.111862        84.6781 
 419   0.0000       3.121818        84.9490 
 420   0.0000       3.131223        85.2049 
 421   0.0000       3.133834        85.2760 
 422   0.0000       3.140717        85.4632 
 423   0.0000       3.167114        86.1815 
 424   0.0000       3.175619        86.4130 
 425   0.0000       3.185782        86.6895 
 426   0.0000       3.193222        86.8920 
 427   0.0000       3.197345        87.0042 
 428   0.0000       3.207271        87.2743 
 429   0.0000       3.211489        87.3891 
 430   0.0000       3.217727        87.5588 
 431   0.0000       3.229460        87.8781 
 432   0.0000       3.236418        88.0674 
 433   0.0000       3.238720        88.1300 
 434   0.0000       3.261506        88.7501 
 435   0.0000       3.268462        88.9394 
 436   0.0000       3.270492        88.9946 
 437   0.0000       3.280013        89.2537 
 438   0.0000       3.294906        89.6590 
 439   0.0000       3.296428        89.7004 
 440   0.0000       3.305234        89.9400 
 441   0.0000       3.320897        90.3662 
 442   0.0000       3.326762        90.5258 
 443   0.0000       3.332049        90.6697 
 444   0.0000       3.335338        90.7592 
 445   0.0000       3.341557        90.9284 
 446   0.0000       3.343459        90.9802 
 447   0.0000       3.353436        91.2516 
 448   0.0000       3.357935        91.3740 
 449   0.0000       3.368089        91.6504 
 450   0.0000       3.382590        92.0449 
 451   0.0000       3.386080        92.1399 
 452   0.0000       3.390614        92.2633 
 453   0.0000       3.398248        92.4710 
 454   0.0000       3.405552        92.6698 
 455   0.0000       3.414402        92.9106 
 456   0.0000       3.426178        93.2311 
 457   0.0000       3.437045        93.5267 
 458   0.0000       3.440670        93.6254 
 459   0.0000       3.454090        93.9906 
 460   0.0000       3.462873        94.2296 
 461   0.0000       3.465336        94.2966 
 462   0.0000       3.474970        94.5587 
 463   0.0000       3.478178        94.6460 
 464   0.0000       3.505799        95.3976 
 465   0.0000       3.517371        95.7125 
 466   0.0000       3.526506        95.9611 
 467   0.0000       3.537028        96.2474 
 468   0.0000       3.546267        96.4988 
 469   0.0000       3.551848        96.6507 
 470   0.0000       3.559276        96.8528 
 471   0.0000       3.559737        96.8654 
 472   0.0000       3.573970        97.2527 
 473   0.0000       3.579868        97.4132 
 474   0.0000       3.591406        97.7271 
 475   0.0000       3.595176        97.8297 
 476   0.0000       3.601022        97.9888 
 477   0.0000       3.608825        98.2011 
 478   0.0000       3.621693        98.5513 
 479   0.0000       3.635224        98.9195 
 480   0.0000       3.648217        99.2730 
 481   0.0000       3.660090        99.5961 
 482   0.0000       3.682380       100.2026 
 483   0.0000       3.704788       100.8124 
 484   0.0000       3.712783       101.0300 
 485   0.0000       3.718410       101.1831 
 486   0.0000       3.748290       101.9961 
 487   0.0000       3.765010       102.4511 
 488   0.0000       3.779453       102.8441 
 489   0.0000       3.788179       103.0816 
 490   0.0000       3.805948       103.5651 
 491   0.0000       3.826147       104.1147 
 492   0.0000       3.839699       104.4835 
 493   0.0000       3.867445       105.2385 
 494   0.0000       3.884996       105.7161 
 495   0.0000       3.912550       106.4659 
 496   0.0000       3.920327       106.6775 
 497   0.0000       3.937080       107.1334 
 498   0.0000       3.947623       107.4203 
 499   0.0000       3.966699       107.9394 
 500   0.0000       3.971567       108.0718 
 501   0.0000       3.993935       108.6805 
 502   0.0000       4.013962       109.2254 
 503   0.0000       4.035005       109.7981 
 504   0.0000       4.077764       110.9616 
 505   0.0000       4.088166       111.2447 
 506   0.0000       4.099897       111.5639 
 507   0.0000       4.141168       112.6869 
 508   0.0000       4.154709       113.0554 
 509   0.0000       4.172215       113.5317 
 510   0.0000       4.179095       113.7190 
 511   0.0000       4.182496       113.8115 
 512   0.0000       4.191523       114.0571 
 513   0.0000       4.203302       114.3777 
 514   0.0000       4.203877       114.3933 
 515   0.0000       4.221036       114.8602 
[...]
     24      -0.000029  -0.000001   0.000015
     25       0.000050  -0.000067   0.000057
     26       0.000004   0.000019  -0.000008
     27       0.000128  -0.000116   0.000033
     28      -0.000013   0.000009  -0.000053
     29      -0.000015  -0.000048  -0.000115
     30      -0.000202   0.000275   0.000263
     31      -0.000670   0.000750  -0.000105
     32      -0.000988   0.001173   0.000166
     33       0.020180  -0.017789   0.002741
     34      -0.006255   0.007244  -0.001110
     35       0.013760  -0.010110   0.001559
     36       0.003647  -0.017790   0.003262
     37       0.016106  -0.040022   0.004538
     38       0.022461  -0.064864   0.008649
     39       0.044359   0.021476  -0.012376
     40      -0.057974  -0.024674   0.018121
     41      -0.021180  -0.006323   0.008151
     42      -0.011775  -0.013779  -0.067599
     43       0.005247   0.005455   0.021035
     44      -0.006055  -0.007878  -0.045272
     45      -0.000223   0.000367   0.001809
     46       0.000115  -0.000356  -0.002781
     47      -0.000091  -0.000033  -0.001347
     48      -0.000032  -0.000092  -0.000314
     49      -0.000099   0.000019   0.000268
     50      -0.000143  -0.000071  -0.000010
     51      -0.000332  -0.000315  -0.001200
     52       0.001122   0.000790   0.002245
     53       0.000941   0.000597   0.001395
     54      -0.000002  -0.000022   0.000012
     55      -0.000047   0.000093  -0.000048
     56      -0.000018  -0.000054   0.000052
     57      -0.000002   0.000033  -0.000026
     58       0.000006  -0.000022   0.000016
     59      -0.000000   0.000041  -0.000032
     60      -0.000614   0.000538  -0.000248
     61       0.000397  -0.000544   0.000150
     62       0.001304  -0.001052   0.000887
     63      -0.225973   0.182842  -0.027515
     64       0.068708  -0.057588   0.008832
     65      -0.155557   0.123450  -0.018402
     66      -0.070869   0.195430  -0.024992
     67      -0.171599   0.451532  -0.054548
     68      -0.272414   0.726139  -0.089128
     69      -0.515711  -0.214001   0.142604
     70       0.669086   0.274175  -0.186492
     71       0.240617   0.095812  -0.068308
     72       0.144637   0.162008   0.770819
     73      -0.046433  -0.051683  -0.239139
     74       0.095171   0.107021   0.516837
     75       0.004841   0.004460   0.015240
     76       0.000894   0.000713   0.001804
     77      -0.003590  -0.003405  -0.011999
     78       0.000658   0.000548   0.002319
     79      -0.009865  -0.006494  -0.016732
     80      -0.010233  -0.006629  -0.016227
     81      -0.000799  -0.000722  -0.002287
     82      -0.005411  -0.005002  -0.017723
     83       0.002188   0.001863   0.005862
     84       0.000005  -0.000010   0.000003
     85       0.000013  -0.000017   0.000009
     86      -0.000007   0.000007  -0.000006
     87      -0.000053  -0.000002  -0.000002
     88      -0.000249  -0.000092   0.000048
     89       0.000076   0.000010   0.000002
     90       0.000010  -0.000008  -0.000007
     91      -0.000024   0.000019  -0.000007
     92      -0.000021   0.000021  -0.000004


-----------
IR SPECTRUM
-----------

 Mode   freq       eps      Int      T**2         TX        TY        TZ
       cm**-1   L/(mol*cm) km/mol    a.u.
----------------------------------------------------------------------------
  6:     18.64   0.000336    1.70  0.005623  ( 0.062904  0.022458 -0.034077)
  7:     30.28   0.000165    0.83  0.001697  ( 0.033111  0.012387 -0.021147)
  8:     50.28   0.000166    0.84  0.001033  ( 0.003149 -0.031640 -0.004717)
  9:     68.66   0.000270    1.36  0.001226  (-0.011361  0.032608  0.005836)
 10:     87.86   0.000152    0.77  0.000541  ( 0.003895 -0.018095 -0.014087)
 11:    101.07   0.000309    1.56  0.000955  ( 0.010909  0.028728 -0.003292)
 12:    102.96   0.001095    5.53  0.003319  (-0.031469 -0.020219  0.043812)
 13:    142.75   0.000090    0.46  0.000197  ( 0.007077  0.011174  0.004749)
 14:    148.63   0.000356    1.80  0.000746  ( 0.013186 -0.002623 -0.023785)
 15:    169.45   0.000198    1.00  0.000365  (-0.017574 -0.000194  0.007459)
 16:    192.47   0.001179    5.96  0.001911  (-0.029262 -0.029083  0.014453)
 17:    215.89   0.000759    3.83  0.001097  ( 0.024135  0.022502 -0.002822)
 18:    249.22   0.001526    7.71  0.001910  ( 0.013503  0.023786 -0.034093)
 19:    253.71   0.001117    5.64  0.001373  ( 0.010074 -0.009568  0.034356)
 20:    296.45   0.000715    3.61  0.000752  (-0.015159 -0.017370 -0.014865)
 21:    311.22   0.002043   10.32  0.002049  ( 0.036161  0.022622  0.015141)
 22:    325.46   0.003256   16.46  0.003122  ( 0.044304  0.024186  0.023965)
 23:    354.31   0.001816    9.18  0.001600  (-0.000131  0.001005  0.039985)
 24:    370.28   0.001168    5.90  0.000984  (-0.022256 -0.005801 -0.021333)
 25:    428.11   0.002381   12.03  0.001736  (-0.014010  0.037860  0.010302)
 26:    466.09   0.001024    5.18  0.000686  (-0.013199 -0.018701  0.012724)
 27:    493.86   0.000877    4.43  0.000554  ( 0.008392 -0.021780 -0.003029)
 28:    528.30   0.005432   27.45  0.003209  (-0.048068 -0.008338  0.028790)
 29:    565.52   0.000483    2.44  0.000267  ( 0.014824 -0.002522 -0.006363)
 30:    582.67   0.001332    6.73  0.000713  (-0.001942 -0.024828 -0.009654)
 31:    607.08   0.001961    9.91  0.001008  (-0.023669  0.013277 -0.016477)
 32:    638.91   0.002551   12.89  0.001246  ( 0.020985 -0.013339  0.025057)
 33:    665.38   0.005552   28.06  0.002604  (-0.024754 -0.009850 -0.043524)
 34:    712.80   0.003166   16.00  0.001386  ( 0.003473 -0.035407 -0.010973)
 35:    718.61   0.004450   22.49  0.001932  ( 0.036624 -0.021176  0.011947)
 36:    762.20   0.007618   38.50  0.003119  ( 0.035705  0.006450 -0.042457)
 37:    770.82   0.021711  109.72  0.008790  (-0.045702 -0.068498  0.044821)
 38:    779.32   0.000094    0.48  0.000038  ( 0.004747 -0.002563 -0.002941)
 39:    817.17   0.006554   33.12  0.002503  (-0.002049 -0.039709 -0.030365)
 40:    850.32   0.002297   11.61  0.000843  ( 0.002449  0.028920  0.000792)
 41:    877.64   0.001295    6.54  0.000460  (-0.010869 -0.015857  0.009533)
 42:    898.71   0.002637   13.32  0.000916  (-0.009383  0.027047 -0.009795)
 43:    955.46   0.003128   15.81  0.001022  ( 0.016068  0.020400  0.018634)
 44:    965.04   0.047756  241.34  0.015443  (-0.110079 -0.040737 -0.040813)
 45:    966.92   0.001226    6.19  0.000396  ( 0.011622 -0.015447  0.004675)
 46:    994.03   0.000134    0.68  0.000042  (-0.004557 -0.002343 -0.003967)
 47:   1016.27   0.023152  117.00  0.007109  ( 0.055976  0.058593  0.023298)
 48:   1039.62   0.003638   18.38  0.001092  (-0.011541  0.023988  0.019577)
 49:   1070.26   0.015584   78.76  0.004544  (-0.052548  0.013464 -0.040018)
 50:   1084.29   0.009633   48.68  0.002773  (-0.012982 -0.017864 -0.047800)
 51:   1090.82   0.013947   70.48  0.003990  ( 0.005405 -0.015437  0.061011)
 52:   1138.84   0.007489   37.85  0.002052  ( 0.031757 -0.004310  0.032018)
 53:   1170.86   0.000220    1.11  0.000059  (-0.004948 -0.005796  0.000820)
 54:   1171.35   0.000196    0.99  0.000052  ( 0.002141  0.003412 -0.005990)
 55:   1176.24   0.001700    8.59  0.000451  ( 0.015952 -0.007475  0.011857)
 56:   1194.47   0.000554    2.80  0.000145  ( 0.001539 -0.009020 -0.007805)
 57:   1205.31   0.004869   24.60  0.001261  (-0.011807 -0.009668 -0.032057)
 58:   1212.31   0.002305   11.65  0.000593  ( 0.017321 -0.000305  0.017123)
 59:   1229.79   0.002909   14.70  0.000738  (-0.012023  0.000607 -0.024357)
 60:   1239.88   0.035793  180.89  0.009009  (-0.045106 -0.007529 -0.083171)
 61:   1284.61   0.060334  304.90  0.014657  (-0.018909 -0.046926 -0.109986)
 62:   1294.99   0.069130  349.35  0.016659  (-0.089525 -0.001660 -0.092959)
 63:   1306.56   0.016676   84.27  0.003983  (-0.004445 -0.032685 -0.053805)
 64:   1322.53   0.017589   88.89  0.004150  ( 0.031469  0.024645  0.050523)
 65:   1357.02   0.045594  230.41  0.010485  (-0.050377  0.051201 -0.072976)
 66:   1372.63   0.007891   39.88  0.001794  ( 0.003775 -0.040664 -0.011234)
 67:   1385.21   0.035637  180.09  0.008028  ( 0.037109 -0.001120  0.081547)
 68:   1452.09   0.047131  238.18  0.010129  ( 0.037274  0.090911 -0.021785)
 69:   1466.12   0.003564   18.01  0.000759  (-0.016070 -0.019697  0.010602)
 70:   1467.54   0.008475   42.83  0.001802  (-0.006962 -0.017930  0.037845)
 71:   1469.80   0.009833   49.69  0.002088  ( 0.002361  0.020900  0.040562)
 72:   1472.34   0.003602   18.20  0.000763  (-0.020700  0.009020 -0.015927)
 73:   1474.08   0.003335   16.86  0.000706  ( 0.013909  0.016095 -0.015925)
 74:   1483.15   0.005812   29.37  0.001223  ( 0.007558  0.022559  0.025627)
 75:   1499.50   0.013128   66.34  0.002732  ( 0.016747  0.005466  0.049212)
 76:   1538.28   0.038280  193.45  0.007766  (-0.024906 -0.033489 -0.077614)
 77:   1650.19   0.006764   34.18  0.001279  (-0.026037  0.008421 -0.023026)
 78:   1664.72   0.016408   82.92  0.003076  ( 0.011048  0.024399  0.048564)
 79:   1806.37   0.109449  553.11  0.018908  ( 0.098383 -0.083388  0.047701)
 80:   1815.61   0.079234  400.42  0.013619  ( 0.089195 -0.036846  0.065614)
 81:   3039.40   0.012080   61.05  0.001240  ( 0.027154 -0.005516  0.021738)
 82:   3076.00   0.005092   25.74  0.000517  (-0.001876  0.012935  0.018596)
 83:   3098.92   0.000273    1.38  0.000027  ( 0.004172 -0.002336  0.002151)
 84:   3111.75   0.007077   35.76  0.000710  (-0.013960 -0.016722  0.015337)
 85:   3151.65   0.000411    2.08  0.000041  ( 0.000104  0.000135  0.006381)
 86:   3161.93   0.003133   15.83  0.000309  (-0.011439 -0.011922  0.006021)
 87:   3168.23   0.003647   18.43  0.000359  ( 0.001014 -0.013073 -0.013684)
 88:   3186.18   0.000841    4.25  0.000082  (-0.007607  0.003635 -0.003360)
 89:   3195.21   0.001727    8.73  0.000169  ( 0.009163 -0.004323  0.008122)
 90:   3197.35   0.001393    7.04  0.000136  ( 0.008631 -0.007820 -0.000579)
 91:   3216.20   0.002461   12.44  0.000239  (-0.001420 -0.009960 -0.011730)
 92:   3231.70   0.000281    1.42  0.000027  (-0.003933  0.001631 -0.003007)

* The epsilon (eps) is given for a Dirac delta lineshape.
** The dipole moment derivative (T) already includes vibrational overlap.

The first frequency considered to be a vibration is 6
The total number of vibrations considered is 87


--------------------------
THERMOCHEMISTRY AT 298.15K
--------------------------

Temperature         ... 298.15 K
Pressure            ... 1.00 atm
Total Mass          ... 269.23 AMU

Throughout the following assumptions are being made:
  (1) The electronic state is orbitally nondegenerate
  (2) There are no thermally accessible electronically excited states
  (3) Hindered rotations indicated by low frequency modes are not
      treated as such but are treated as vibrations and this may
      cause some error
  (4) All equations used are the standard statistical mechanics
      equations for an ideal gas
  (5) All vibrations are strictly harmonic

freq.      18.64  E(vib)   ...       0.57 
freq.      30.28  E(vib)   ...       0.55 
freq.      50.28  E(vib)   ...       0.52 
freq.      68.66  E(vib)   ...       0.50 
freq.      87.86  E(vib)   ...       0.48 
freq.     101.07  E(vib)   ...       0.46 
freq.     102.96  E(vib)   ...       0.46 
freq.     142.75  E(vib)   ...       0.41 
freq.     148.63  E(vib)   ...       0.41 
freq.     169.45  E(vib)   ...       0.38 
freq.     192.47  E(vib)   ...       0.36 
freq.     215.89  E(vib)   ...       0.34 
freq.     249.22  E(vib)   ...       0.31 
freq.     253.71  E(vib)   ...       0.30 
freq.     296.45  E(vib)   ...       0.27 
freq.     311.22  E(vib)   ...       0.25 
freq.     325.46  E(vib)   ...       0.24 
freq.     354.31  E(vib)   ...       0.22 
freq.     370.28  E(vib)   ...       0.21 
freq.     428.11  E(vib)   ...       0.18 
freq.     466.09  E(vib)   ...       0.16 
freq.     493.86  E(vib)   ...       0.14 
freq.     528.30  E(vib)   ...       0.13 
freq.     565.52  E(vib)   ...       0.11 
freq.     582.67  E(vib)   ...       0.11 
freq.     607.08  E(vib)   ...       0.10 
freq.     638.91  E(vib)   ...       0.09 
freq.     665.38  E(vib)   ...       0.08 
freq.     712.80  E(vib)   ...       0.07 
freq.     718.61  E(vib)   ...       0.07 
freq.     762.20  E(vib)   ...       0.06 
freq.     770.82  E(vib)   ...       0.05 
freq.     779.32  E(vib)   ...       0.05 
freq.     817.17  E(vib)   ...       0.05 
freq.     850.32  E(vib)   ...       0.04 
freq.     877.64  E(vib)   ...       0.04 
freq.     898.71  E(vib)   ...       0.03 
freq.     955.46  E(vib)   ...       0.03 
freq.     965.04  E(vib)   ...       0.03 
freq.     966.92  E(vib)   ...       0.03 
freq.     994.03  E(vib)   ...       0.02 
freq.    1016.27  E(vib)   ...       0.02 
freq.    1039.62  E(vib)   ...       0.02 
freq.    1070.26  E(vib)   ...       0.02 
freq.    1084.29  E(vib)   ...       0.02 
freq.    1090.82  E(vib)   ...       0.02 
freq.    1138.84  E(vib)   ...       0.01 
freq.    1170.86  E(vib)   ...       0.01 
freq.    1171.35  E(vib)   ...       0.01 
freq.    1176.24  E(vib)   ...       0.01 
freq.    1194.47  E(vib)   ...       0.01 
freq.    1205.31  E(vib)   ...       0.01 
freq.    1212.31  E(vib)   ...       0.01 
freq.    1229.79  E(vib)   ...       0.01 
freq.    1239.88  E(vib)   ...       0.01 
freq.    1284.61  E(vib)   ...       0.01 
freq.    1294.99  E(vib)   ...       0.01 
freq.    1306.56  E(vib)   ...       0.01 
freq.    1322.53  E(vib)   ...       0.01 
freq.    1357.02  E(vib)   ...       0.01 
freq.    1372.63  E(vib)   ...       0.01 
freq.    1385.21  E(vib)   ...       0.00 
freq.    1452.09  E(vib)   ...       0.00 
freq.    1466.12  E(vib)   ...       0.00 
freq.    1467.54  E(vib)   ...       0.00 
freq.    1469.80  E(vib)   ...       0.00 
freq.    1472.34  E(vib)   ...       0.00 
freq.    1474.08  E(vib)   ...       0.00 
freq.    1483.15  E(vib)   ...       0.00 
freq.    1499.50  E(vib)   ...       0.00 
freq.    1538.28  E(vib)   ...       0.00 
freq.    1650.19  E(vib)   ...       0.00 
freq.    1664.72  E(vib)   ...       0.00 
freq.    1806.37  E(vib)   ...       0.00 
freq.    1815.61  E(vib)   ...       0.00 
freq.    3039.40  E(vib)   ...       0.00 
freq.    3076.00  E(vib)   ...       0.00 
freq.    3098.92  E(vib)   ...       0.00 
freq.    3111.75  E(vib)   ...       0.00 
freq.    3151.65  E(vib)   ...       0.00 
freq.    3161.93  E(vib)   ...       0.00 
freq.    3168.23  E(vib)   ...       0.00 
freq.    3186.18  E(vib)   ...       0.00 
freq.    3195.21  E(vib)   ...       0.00 
freq.    3197.35  E(vib)   ...       0.00 
freq.    3216.20  E(vib)   ...       0.00 
freq.    3231.70  E(vib)   ...       0.00 

------------
INNER ENERGY
------------

The inner energy is: U= E(el) + E(ZPE) + E(vib) + E(rot) + E(trans)
    E(el)   - is the total energy from the electronic structure calculation
              = E(kin-el) + E(nuc-el) + E(el-el) + E(nuc-nuc)
    E(ZPE)  - the the zero temperature vibrational energy from the frequency calculation
    E(vib)  - the the finite temperature correction to E(ZPE) due to population
              of excited vibrational states
    E(rot)  - is the rotational thermal energy
    E(trans)- is the translational thermal energy

Summary of contributions to the inner energy U:
Electronic energy                ...   -994.42991179 Eh
Zero point energy                ...      0.23463473 Eh     147.24 kcal/mol
Thermal vibrational correction   ...      0.01459526 Eh       9.16 kcal/mol
Thermal rotational correction    ...      0.00141627 Eh       0.89 kcal/mol
Thermal translational correction ...      0.00141627 Eh       0.89 kcal/mol
-----------------------------------------------------------------------
Total thermal energy                   -994.17784925 Eh


Summary of corrections to the electronic energy:
(perhaps to be used in another calculation)
Total thermal correction                  0.01742780 Eh      10.94 kcal/mol
Non-thermal (ZPE) correction              0.23463473 Eh     147.24 kcal/mol
-----------------------------------------------------------------------
Total correction                          0.25206253 Eh     158.17 kcal/mol


--------
ENTHALPY
--------

The enthalpy is H = U + kB*T
                kB is Boltzmann's constant
Total free energy                 ...   -994.17784925 Eh 
Thermal Enthalpy correction       ...      0.00094421 Eh       0.59 kcal/mol
-----------------------------------------------------------------------
Total Enthalpy                    ...   -994.17690505 Eh


Note: Only C1 symmetry has been detected, increase convergence thresholds 
      if your molecule has a higher symmetry. Symmetry factor of 1.0 is   
      used for the rotational entropy correction. 
 

Note: Rotational entropy computed according to Herzberg 
Infrared and Raman Spectra, Chapter V,1, Van Nostrand Reinhold, 1945 
Point Group:  C1, Symmetry Number:   1  
Rotational constants in cm-1:     0.016126     0.011483     0.007474 

Vibrational entropy computed according to the QRRHO of S. Grimme
Chem.Eur.J. 2012 18 9955


-------
ENTROPY
-------

The entropy contributions are T*S = T*(S(el)+S(vib)+S(rot)+S(trans))
     S(el)   - electronic entropy
     S(vib)  - vibrational entropy
     S(rot)  - rotational entropy
     S(trans)- translational entropy
The entropies will be listed as multiplied by the temperature to get
units of energy

Electronic entropy                ...      0.00000000 Eh      0.00 kcal/mol
Vibrational entropy               ...      0.02630487 Eh     16.51 kcal/mol
Rotational entropy                ...      0.01587959 Eh      9.96 kcal/mol
Translational entropy             ...      0.02027390 Eh     12.72 kcal/mol
-----------------------------------------------------------------------
Final entropy term                ...      0.06245836 Eh     39.19 kcal/mol

In case the symmetry of your molecule has not been determined correctly
or in case you have a reason to use a different symmetry number we print 
out the resulting rotational entropy values for sn=1,12 :
 --------------------------------------------------------
|  sn= 1 | S(rot)=       0.01587959 Eh      9.96 kcal/mol|
|  sn= 2 | S(rot)=       0.01522513 Eh      9.55 kcal/mol|
|  sn= 3 | S(rot)=       0.01484230 Eh      9.31 kcal/mol|
|  sn= 4 | S(rot)=       0.01457068 Eh      9.14 kcal/mol|
|  sn= 5 | S(rot)=       0.01435999 Eh      9.01 kcal/mol|
|  sn= 6 | S(rot)=       0.01418784 Eh      8.90 kcal/mol|
|  sn= 7 | S(rot)=       0.01404230 Eh      8.81 kcal/mol|
|  sn= 8 | S(rot)=       0.01391622 Eh      8.73 kcal/mol|
|  sn= 9 | S(rot)=       0.01380501 Eh      8.66 kcal/mol|
|  sn=10 | S(rot)=       0.01370553 Eh      8.60 kcal/mol|
|  sn=11 | S(rot)=       0.01361554 Eh      8.54 kcal/mol|
|  sn=12 | S(rot)=       0.01353339 Eh      8.49 kcal/mol|
 --------------------------------------------------------


-------------------
GIBBS FREE ENERGY
-------------------

The Gibbs free energy is G = H - T*S

Total enthalpy                    ...   -994.17690505 Eh 
Total entropy correction          ...     -0.06245836 Eh    -39.19 kcal/mol
-----------------------------------------------------------------------
Final Gibbs free energy         ...   -994.23936341 Eh

For completeness - the Gibbs free energy minus the electronic energy
G-E(el)                           ...      0.19054838 Eh    119.57 kcal/mol


Timings for individual modules:

Sum of individual times         ...     1775.591 sec (=  29.593 min)
GTO integral calculation        ...       25.604 sec (=   0.427 min)   1.4 %
SCF iterations                  ...      613.013 sec (=  10.217 min)  34.5 %
SCF Gradient evaluation         ...      177.087 sec (=   2.951 min)  10.0 %
Geometry relaxation             ...        1.189 sec (=   0.020 min)   0.1 %
Analytical frequency calculation...      958.699 sec (=  15.978 min)  54.0 %
                             ****ORCA TERMINATED NORMALLY****
TOTAL RUN TIME: 0 days 0 hours 30 minutes 18 seconds 712 msec
