
                                 *****************
                                 * O   R   C   A *
                                 *****************

                                            #,                                       
                                            ###                                      
                                            ####                                     
                                            #####                                    
                                            ######                                   
                                           ########,                                 
                                     ,,################,,,,,                         
                               ,,#################################,,                 
                          ,,##########################################,,             
                       ,#########################################, ''#####,          
                    ,#############################################,,   '####,        
                  ,##################################################,,,,####,       
                ,###########''''           ''''###############################       
              ,#####''   ,,,,##########,,,,          '''####'''          '####       
            ,##' ,,,,###########################,,,                        '##       
           ' ,,###''''                  '''############,,,                           
         ,,##''                                '''############,,,,        ,,,,,,###''
      ,#''                                            '''#######################'''  
     '                                                          ''''####''''         
             ,#######,   #######,   ,#######,      ##                                
            ,#'     '#,  ##    ##  ,#'     '#,    #''#        ######   ,####,        
            ##       ##  ##   ,#'  ##            #'  '#       #        #'  '#        
            ##       ##  #######   ##           ,######,      #####,   #    #        
            '#,     ,#'  ##    ##  '#,     ,#' ,#      #,         ##   #,  ,#        
             '#######'   ##     ##  '#######'  #'      '#     #####' # '####'        



                  #######################################################
                  #                        -***-                        #
                  #          Department of theory and spectroscopy      #
                  #    Directorship and core code : Frank Neese         #
                  #        Max Planck Institute fuer Kohlenforschung    #
                  #                Kaiser Wilhelm Platz 1               #
                  #                 D-45470 Muelheim/Ruhr               #
                  #                      Germany                        #
                  #                                                     #
                  #                  All rights reserved                #
                  #                        -***-                        #
                  #######################################################


                         Program Version 5.0.4 -  RELEASE  -


 With contributions from (in alphabetic order):
   Daniel Aravena         : Magnetic Suceptibility
   Michael Atanasov       : Ab Initio Ligand Field Theory (pilot matlab implementation)
   Alexander A. Auer      : GIAO ZORA, VPT2 properties, NMR spectrum
   Ute Becker             : Parallelization
   Giovanni Bistoni       : ED, misc. LED, open-shell LED, HFLD
   Martin Brehm           : Molecular dynamics
   Dmytro Bykov           : SCF Hessian
   Vijay G. Chilkuri      : MRCI spin determinant printing, contributions to CSF-ICE
   Dipayan Datta          : RHF DLPNO-CCSD density
   Achintya Kumar Dutta   : EOM-CC, STEOM-CC
   Dmitry Ganyushin       : Spin-Orbit,Spin-Spin,Magnetic field MRCI
   Miquel Garcia          : C-PCM and meta-GGA Hessian, CC/C-PCM, Gaussian charge scheme
   Yang Guo               : DLPNO-NEVPT2, F12-NEVPT2, CIM, IAO-localization
   Andreas Hansen         : Spin unrestricted coupled pair/coupled cluster methods
   Benjamin Helmich-Paris : MC-RPA, TRAH-SCF, COSX integrals
   Lee Huntington         : MR-EOM, pCC
   Robert Izsak           : Overlap fitted RIJCOSX, COSX-SCS-MP3, EOM
   Marcus Kettner         : VPT2
   Christian Kollmar      : KDIIS, OOCD, Brueckner-CCSD(T), CCSD density, CASPT2, CASPT2-K
   Simone Kossmann        : Meta GGA functionals, TD-DFT gradient, OOMP2, MP2 Hessian
   Martin Krupicka        : Initial AUTO-CI
   Lucas Lang             : DCDCAS
   Marvin Lechner         : AUTO-CI (C++ implementation), FIC-MRCC
   Dagmar Lenk            : GEPOL surface, SMD
   Dimitrios Liakos       : Extrapolation schemes; Compound Job, initial MDCI parallelization
   Dimitrios Manganas     : Further ROCIS development; embedding schemes
   Dimitrios Pantazis     : SARC Basis sets
   Anastasios Papadopoulos: AUTO-CI, single reference methods and gradients
   Taras Petrenko         : DFT Hessian,TD-DFT gradient, ASA, ECA, R-Raman, ABS, FL, XAS/XES, NRVS
   Peter Pinski           : DLPNO-MP2, DLPNO-MP2 Gradient
   Christoph Reimann      : Effective Core Potentials
   Marius Retegan         : Local ZFS, SOC
   Christoph Riplinger    : Optimizer, TS searches, QM/MM, DLPNO-CCSD(T), (RO)-DLPNO pert. Triples
   Tobias Risthaus        : Range-separated hybrids, TD-DFT gradient, RPA, STAB
   Michael Roemelt        : Original ROCIS implementation
   Masaaki Saitow         : Open-shell DLPNO-CCSD energy and density
   Barbara Sandhoefer     : DKH picture change effects
   Avijit Sen             : IP-ROCIS
   Kantharuban Sivalingam : CASSCF convergence, NEVPT2, FIC-MRCI
   Bernardo de Souza      : ESD, SOC TD-DFT
   Georgi Stoychev        : AutoAux, RI-MP2 NMR, DLPNO-MP2 response
   Willem Van den Heuvel  : Paramagnetic NMR
   Boris Wezisla          : Elementary symmetry handling
   Frank Wennmohs         : Technical directorship


 We gratefully acknowledge several colleagues who have allowed us to
 interface, adapt or use parts of their codes:
   Stefan Grimme, W. Hujo, H. Kruse, P. Pracht,  : VdW corrections, initial TS optimization,
                  C. Bannwarth, S. Ehlert          DFT functionals, gCP, sTDA/sTD-DF
   Ed Valeev, F. Pavosevic, A. Kumar             : LibInt (2-el integral package), F12 methods
   Garnet Chan, S. Sharma, J. Yang, R. Olivares  : DMRG
   Ulf Ekstrom                                   : XCFun DFT Library
   Mihaly Kallay                                 : mrcc  (arbitrary order and MRCC methods)
   Jiri Pittner, Ondrej Demel                    : Mk-CCSD
   Frank Weinhold                                : gennbo (NPA and NBO analysis)
   Christopher J. Cramer and Donald G. Truhlar   : smd solvation model
   Lars Goerigk                                  : TD-DFT with DH, B97 family of functionals
   V. Asgeirsson, H. Jonsson                     : NEB implementation
   FAccTs GmbH                                   : IRC, NEB, NEB-TS, DLPNO-Multilevel, CI-OPT
                                                   MM, QMMM, 2- and 3-layer-ONIOM, Crystal-QMMM,
                                                   LR-CPCM, SF, NACMEs, symmetry and pop. for TD-DFT,
                                                   nearIR, NL-DFT gradient (VV10), updates on ESD,
                                                   ML-optimized integration grids
   S Lehtola, MJT Oliveira, MAL Marques          : LibXC Library
   Liviu Ungur et al                             : ANISO software


 Your calculation uses the libint2 library for the computation of 2-el integrals
 For citations please refer to: http://libint.valeyev.net

 Your ORCA version has been built with support for libXC version: 5.1.0
 For citations please refer to: https://tddft.org/programs/libxc/

 This ORCA versions uses:
   CBLAS   interface :  Fast vector & matrix operations
   LAPACKE interface :  Fast linear algebra routines
   SCALAPACK package :  Parallel linear algebra routines
   Shared memory     :  Shared parallel matrices
   BLAS/LAPACK       :  OpenBLAS 0.3.15  USE64BITINT DYNAMIC_ARCH NO_AFFINITY Haswell SINGLE_THREADED
        Core in use  :  Haswell
   Copyright (c) 2011-2014, The OpenBLAS Project


Your calculation utilizes the atom-pairwise dispersion correction
with the Becke-Johnson damping scheme (D3BJ)
Cite in your paper:
S.Grimme, S.Ehrlich, L.Goerigk, J Comput Chem, (2011), 32, 1456–1465 
S.Grimme, J.Antony, S.Ehrlich and H.Krieg, J.Chem.Phys., 132, (2010), 154104 
   

================================================================================

----- Orbital basis set information -----
Your calculation utilizes the basis: def2-TZVP
   F. Weigend and R. Ahlrichs, Phys. Chem. Chem. Phys. 7, 3297 (2005).

----- AuxJ basis set information -----
Your calculation utilizes the auxiliary basis: def2/J
   F. Weigend, Phys. Chem. Chem. Phys. 8, 1057 (2006).

================================================================================
                                        WARNINGS
                       Please study these warnings very carefully!
================================================================================


WARNING: Geometry Optimization
  ===> : Switching off AutoStart
         For restart on a previous wavefunction, please use MOREAD

INFO   : the flag for use of the SHARK integral package has been found!

================================================================================
                                       INPUT FILE
================================================================================
NAME = 4_H_free/4_H_free.inp
|  1> %pal nprocs 24 end
|  2> %maxcore 3500
|  3> ! PBE0 D3BJ def2-TZVP TightSCF OPT FREQ TightOpt
|  4> ! CPCM(dmso)
|  5> %scf
|  6> MaxIter 800
|  7> end
|  8> %geom
|  9> MaxIter 800
| 10> MaxStep 0.2
| 11> end
| 12> *xyz 0 1
| 13> C        0.718139000     -1.359355000     -0.062971000
| 14> C        1.053797000     -2.409310000     -1.110250000
| 15> O        1.916031000     -3.241317000     -0.993531000
| 16> O        0.272992000     -2.271175000     -2.168711000
| 17> C        0.516605000     -3.167062000     -3.259133000
| 18> H       -0.358347000     -1.347533000      0.128674000
| 19> H        1.535960000     -3.044200000     -3.625022000
| 20> H       -0.200360000     -2.893584000     -4.028498000
| 21> C        2.587744000     -0.043218000      0.215763000
| 22> C        1.266261000      0.033707000     -0.456800000
| 23> C        0.412372000      1.186517000      0.018560000
| 24> C        0.705267000      1.902929000      1.167845000
| 25> C       -0.096001000      2.958876000      1.585453000
| 26> C       -1.208827000      3.300066000      0.837413000
| 27> C       -1.529073000      2.595471000     -0.316055000
| 28> C       -0.724721000      1.538759000     -0.724469000
| 29> O       -0.966274000      0.787718000     -1.819537000
| 30> C       -2.076962000      1.124489000     -2.628587000
| 31> N        2.615348000     -0.972704000      1.111123000
| 32> O        3.446558000     -1.341027000      1.928501000
| 33> H        1.369365000      0.094137000     -1.541794000
| 34> H        1.578681000      1.631887000      1.751366000
| 35> H        0.151502000      3.505248000      2.487610000
| 36> H       -1.847214000      4.119040000      1.149259000
| 37> H       -2.408685000      2.868464000     -0.883064000
| 38> H       -3.011816000      1.047049000     -2.067166000
| 39> H       -2.083316000      0.405248000     -3.445011000
| 40> H       -1.977791000      2.136535000     -3.031367000
| 41> O        1.377820000     -1.682975000      1.147419000
| 42> H        0.361411000     -4.197897000     -2.940987000
| 43> H        3.450063000      0.592320000      0.092898000
| 44> *
| 45> 
| 46>                          ****END OF INPUT****
================================================================================

                       *****************************
                       * Geometry Optimization Run *
                       *****************************

Geometry optimization settings:
Update method            Update   .... BFGS
Choice of coordinates    CoordSys .... Z-matrix Internals
Initial Hessian          InHess   .... Almoef's Model

Convergence Tolerances:
Energy Change            TolE     ....  1.0000e-06 Eh
Max. Gradient            TolMAXG  ....  1.0000e-04 Eh/bohr
RMS Gradient             TolRMSG  ....  3.0000e-05 Eh/bohr
Max. Displacement        TolMAXD  ....  1.0000e-03 bohr
RMS Displacement         TolRMSD  ....  6.0000e-04 bohr
Strict Convergence                ....  False
------------------------------------------------------------------------------
                        ORCA OPTIMIZATION COORDINATE SETUP
------------------------------------------------------------------------------

The optimization will be done in new redundant internal coordinates
Making redundant internal coordinates   ...  (new redundants) done
Evaluating the initial hessian          ...  (Almloef) done
Evaluating the coordinates              ...  done
Calculating the B-matrix                .... done
Calculating the G-matrix                .... done
Diagonalizing the G-matrix              .... done
Small eigenvalue found = 4.310e-03
Small eigenvalue found = 1.113e-02
Small eigenvalue found = 1.885e-02
Small eigenvalue found = 2.746e-02
The first mode is                       ....   69
The number of degrees of freedom        ....   87

    -----------------------------------------------------------------
                    Redundant Internal Coordinates


    -----------------------------------------------------------------
         Definition                    Initial Value    Approx d2E/dq
    -----------------------------------------------------------------
      1. B(C   1,C   0)                  1.5205         0.386868   
      2. B(O   2,C   1)                  1.2039         1.108745   
      3. B(O   3,C   1)                  1.3225         0.717009   
      4. B(C   4,O   3)                  1.4321         0.479367   
      5. B(H   5,C   0)                  1.0935         0.355531   
      6. B(H   6,C   4)                  1.0900         0.360128   
      7. B(H   7,C   4)                  1.0866         0.364594   
      8. B(C   9,C   0)                  1.5480         0.349730   
      9. B(C   9,C   8)                  1.4848         0.441084   
     10. B(C  10,C   9)                  1.5113         0.400122   
     11. B(C  11,C  10)                  1.3856         0.634976   
     12. B(C  12,C  11)                  1.3898         0.625333   
     13. B(C  13,C  12)                  1.3836         0.639654   
     14. B(C  14,C  13)                  1.3891         0.626947   
     15. B(C  15,C  10)                  1.4033         0.595084   
     16. B(C  15,C  14)                  1.3894         0.626182   
     17. B(O  16,C  15)                  1.3497         0.648984   
     18. B(C  17,O  16)                  1.4148         0.510904   
     19. B(N  18,C   8)                  1.2909         0.805401   
     20. B(O  19,N  18)                  1.2226         0.927119   
     21. B(H  20,C   9)                  1.0916         0.358048   
     22. B(H  21,C  11)                  1.0848         0.367032   
     23. B(H  22,C  12)                  1.0834         0.368993   
     24. B(H  23,C  13)                  1.0842         0.367846   
     25. B(H  24,C  14)                  1.0815         0.371459   
     26. B(H  25,C  17)                  1.0932         0.355858   
     27. B(H  26,C  17)                  1.0881         0.362662   
     28. B(H  27,C  17)                  1.0938         0.355164   
     29. B(O  28,N  18)                  1.4273         0.436969   
     30. B(O  28,C   0)                  1.4160         0.508689   
     31. B(H  29,C   4)                  1.0899         0.360208   
     32. B(H  30,C   8)                  1.0782         0.376000   
     33. A(C   1,C   0,H   5)          110.2130         0.325504   
     34. A(H   5,C   0,O  28)          108.1378         0.338551   
     35. A(C   1,C   0,O  28)          109.1541         0.383105   
     36. A(C   1,C   0,C   9)          111.5945         0.361434   
     37. A(C   9,C   0,O  28)          104.9630         0.376463   
     38. A(H   5,C   0,C   9)          112.5478         0.320163   
     39. A(C   0,C   1,O   3)          110.4137         0.406865   
     40. A(O   2,C   1,O   3)          124.9336         0.489084   
     41. A(C   0,C   1,O   2)          124.6506         0.439825   
     42. A(C   1,O   3,C   4)          116.3342         0.419923   
     43. A(O   3,C   4,H   7)          105.6297         0.336627   
     44. A(H   7,C   4,H  29)          110.5336         0.291420   
     45. A(O   3,C   4,H   6)          110.1306         0.335937   
     46. A(O   3,C   4,H  29)          110.1928         0.335949   
     47. A(H   6,C   4,H   7)          110.5493         0.291410   
     48. A(H   6,C   4,H  29)          109.7404         0.290857   
     49. A(C   9,C   8,N  18)          111.7476         0.425172   
     50. A(N  18,C   8,H  30)          119.1004         0.369433   
     51. A(C   9,C   8,H  30)          129.0234         0.335736   
     52. A(C  10,C   9,H  20)          108.8918         0.327695   
     53. A(C   8,C   9,H  20)          111.6570         0.333019   
     54. A(C   8,C   9,C  10)          113.5721         0.378324   
     55. A(C   0,C   9,C  10)          113.9773         0.363519   
     56. A(C   0,C   9,H  20)          109.6430         0.320532   
     57. A(C   0,C   9,C   8)           98.8171         0.369642   
     58. A(C   9,C  10,C  11)          122.4016         0.403195   
     59. A(C  11,C  10,C  15)          118.7310         0.432729   
     60. A(C   9,C  10,C  15)          118.8655         0.398614   
     61. A(C  12,C  11,H  21)          119.4986         0.354565   
     62. A(C  10,C  11,H  21)          119.1548         0.355486   
     63. A(C  10,C  11,C  12)          121.3466         0.436608   
     64. A(C  13,C  12,H  22)          120.6373         0.356251   
     65. A(C  11,C  12,H  22)          120.1127         0.354885   
     66. A(C  11,C  12,C  13)          119.2500         0.437186   
     67. A(C  14,C  13,H  23)          119.0944         0.354853   
     68. A(C  12,C  13,H  23)          120.2875         0.356063   
     69. A(C  12,C  13,C  14)          120.6168         0.437390   
     70. A(C  13,C  14,C  15)          119.7629         0.435715   
     71. A(C  15,C  14,H  24)          120.5771         0.355368   
     72. A(C  13,C  14,H  24)          119.6571         0.355442   
     73. A(C  14,C  15,O  16)          123.9254         0.435561   
     74. A(C  10,C  15,O  16)          115.7829         0.431589   
     75. A(C  10,C  15,C  14)          120.2900         0.431646   
     76. A(C  15,O  16,C  17)          118.1660         0.417241   
     77. A(H  26,C  17,H  27)          109.6246         0.290533   
     78. A(H  25,C  17,H  27)          109.4020         0.289671   
     79. A(O  16,C  17,H  27)          111.0794         0.338738   
     80. A(H  25,C  17,H  26)          109.4823         0.290622   
     81. A(O  16,C  17,H  26)          106.0409         0.339922   
     82. A(O  16,C  17,H  25)          111.1491         0.338848   
     83. A(C   8,N  18,O  19)          134.0423         0.480140   
     84. A(O  19,N  18,O  28)          114.9962         0.426727   
     85. A(C   8,N  18,O  28)          110.9409         0.418907   
     86. A(C   0,O  28,N  18)          105.5730         0.386320   
     87. D(O   3,C   1,C   0,H   5)     50.2318         0.011145   
     88. D(O   2,C   1,C   0,H   5)   -130.2823         0.011145   
     89. D(O   3,C   1,C   0,C   9)    -75.5851         0.011145   
     90. D(O   2,C   1,C   0,C   9)    103.9008         0.011145   
     91. D(O   3,C   1,C   0,O  28)    168.8558         0.011145   
     92. D(O   2,C   1,C   0,O  28)    -11.6583         0.011145   
     93. D(C   4,O   3,C   1,C   0)    177.6666         0.038681   
     94. D(C   4,O   3,C   1,O   2)     -1.8175         0.038681   
     95. D(H   7,C   4,O   3,C   1)   -179.1037         0.018127   
     96. D(H   6,C   4,O   3,C   1)    -59.7135         0.018127   
     97. D(H  29,C   4,O   3,C   1)     61.4919         0.018127   
     98. D(C  10,C   9,C   0,C   1)    147.7550         0.009856   
     99. D(H  20,C   9,C   8,N  18)   -133.1632         0.014355   
    100. D(C   8,C   9,C   0,O  28)     26.6473         0.009856   
    101. D(C  10,C   9,C   8,H  30)    -72.5355         0.014355   
    102. D(C   8,C   9,C   0,C   1)    -91.4550         0.009856   
    103. D(C   0,C   9,C   8,H  30)    166.3767         0.014355   
    104. D(C   0,C   9,C   8,N  18)    -17.8473         0.014355   
    105. D(H  20,C   9,C   0,O  28)    143.5132         0.009856   
    106. D(H  20,C   9,C   0,H   5)    -99.1086         0.009856   
    107. D(H  20,C   9,C   0,C   1)     25.4109         0.009856   
    108. D(C  10,C   9,C   8,N  18)    103.2405         0.014355   
    109. D(C  10,C   9,C   0,O  28)    -94.1427         0.009856   
    110. D(C  10,C   9,C   0,H   5)     23.2355         0.009856   
    111. D(H  20,C   9,C   8,H  30)     51.0609         0.014355   
    112. D(C   8,C   9,C   0,H   5)    144.0255         0.009856   
    113. D(C  15,C  10,C   9,C   0)    -81.1943         0.011881   
    114. D(C  11,C  10,C   9,H  20)   -138.9440         0.011881   
    115. D(C  11,C  10,C   9,C   8)    -13.8525         0.011881   
    116. D(C  15,C  10,C   9,C   8)    166.6527         0.011881   
    117. D(C  11,C  10,C   9,C   0)     98.3005         0.011881   
    118. D(C  15,C  10,C   9,H  20)     41.5612         0.011881   
    119. D(H  21,C  11,C  10,C  15)    179.5650         0.027984   
    120. D(H  21,C  11,C  10,C   9)      0.0695         0.027984   
    121. D(C  12,C  11,C  10,C  15)     -0.4522         0.027984   
    122. D(C  12,C  11,C  10,C   9)   -179.9477         0.027984   
    123. D(H  22,C  12,C  11,H  21)     -0.0395         0.027087   
    124. D(H  22,C  12,C  11,C  10)    179.9777         0.027087   
    125. D(C  13,C  12,C  11,H  21)   -179.9917         0.027087   
    126. D(C  13,C  12,C  11,C  10)      0.0255         0.027087   
    127. D(H  23,C  13,C  12,H  22)     -0.1318         0.028426   
    128. D(H  23,C  13,C  12,C  11)    179.8201         0.028426   
    129. D(C  14,C  13,C  12,H  22)   -179.7157         0.028426   
    130. D(C  14,C  13,C  12,C  11)      0.2363         0.028426   
    131. D(H  24,C  14,C  13,H  23)     -0.2605         0.027236   
    132. D(H  24,C  14,C  13,C  12)    179.3282         0.027236   
    133. D(C  15,C  14,C  13,H  23)   -179.6489         0.027236   
    134. D(C  15,C  14,C  13,C  12)     -0.0602         0.027236   
    135. D(O  16,C  15,C  14,H  24)     -0.2609         0.027166   
    136. D(C  10,C  15,C  14,H  24)   -179.7591         0.027166   
    137. D(C  10,C  15,C  14,C  13)     -0.3764         0.027166   
    138. D(O  16,C  15,C  10,C  11)   -178.9115         0.024391   
    139. D(O  16,C  15,C  10,C   9)      0.6021         0.024391   
    140. D(O  16,C  15,C  14,C  13)    179.1218         0.027166   
    141. D(C  14,C  15,C  10,C  11)      0.6261         0.024391   
    142. D(C  14,C  15,C  10,C   9)   -179.8603         0.024391   
    143. D(C  17,O  16,C  15,C  14)      2.3788         0.031119   
    144. D(C  17,O  16,C  15,C  10)   -178.1024         0.031119   
    145. D(H  27,C  17,O  16,C  15)     60.7365         0.020666   
    146. D(H  26,C  17,O  16,C  15)    179.7718         0.020666   
    147. D(H  25,C  17,O  16,C  15)    -61.3260         0.020666   
    148. D(O  19,N  18,C   8,H  30)      0.3104         0.055395   
    149. D(O  19,N  18,C   8,C   9)   -175.9346         0.055395   
    150. D(O  28,N  18,C   8,H  30)    178.5226         0.055395   
    151. D(O  28,N  18,C   8,C   9)      2.2776         0.055395   
    152. D(C   0,O  28,N  18,O  19)   -165.0910         0.015868   
    153. D(C   0,O  28,N  18,C   8)     16.3269         0.015868   
    154. D(N  18,O  28,C   0,C   9)    -26.8058         0.020481   
    155. D(N  18,O  28,C   0,H   5)   -147.1513         0.020481   
    156. D(N  18,O  28,C   0,C   1)     92.9370         0.020481   
    -----------------------------------------------------------------

Number of atoms                         .... 31
Number of degrees of freedom            .... 156

         *************************************************************
         *                GEOMETRY OPTIMIZATION CYCLE   1            *
         *************************************************************
---------------------------------
CARTESIAN COORDINATES (ANGSTROEM)
---------------------------------
  C      0.718139   -1.359355   -0.062971
  C      1.053797   -2.409310   -1.110250
  O      1.916031   -3.241317   -0.993531
  O      0.272992   -2.271175   -2.168711
  C      0.516605   -3.167062   -3.259133
  H     -0.358347   -1.347533    0.128674
  H      1.535960   -3.044200   -3.625022
  H     -0.200360   -2.893584   -4.028498
  C      2.587744   -0.043218    0.215763
  C      1.266261    0.033707   -0.456800
  C      0.412372    1.186517    0.018560
  C      0.705267    1.902929    1.167845
  C     -0.096001    2.958876    1.585453
  C     -1.208827    3.300066    0.837413
  C     -1.529073    2.595471   -0.316055
  C     -0.724721    1.538759   -0.724469
  O     -0.966274    0.787718   -1.819537
  C     -2.076962    1.124489   -2.628587
  N      2.615348   -0.972704    1.111123
  O      3.446558   -1.341027    1.928501
  H      1.369365    0.094137   -1.541794
  H      1.578681    1.631887    1.751366
  H      0.151502    3.505248    2.487610
  H     -1.847214    4.119040    1.149259
  H     -2.408685    2.868464   -0.883064
  H     -3.011816    1.047049   -2.067166
  H     -2.083316    0.405248   -3.445011
  H     -1.977791    2.136535   -3.031367
  O      1.377820   -1.682975    1.147419
  H      0.361411   -4.197897   -2.940987
  H      3.450063    0.592320    0.092898

----------------------------
CARTESIAN COORDINATES (A.U.)
----------------------------
  NO LB      ZA    FRAG     MASS         X           Y           Z
   0 C     6.0000    0    12.011    1.357086   -2.568809   -0.118998
   1 C     6.0000    0    12.011    1.991388   -4.552936   -2.098068
   2 O     8.0000    0    15.999    3.620774   -6.125201   -1.877501
   3 O     8.0000    0    15.999    0.515880   -4.291899   -4.098270
   4 C     6.0000    0    12.011    0.976242   -5.984880   -6.158869
   5 H     1.0000    0     1.008   -0.677178   -2.546468    0.243159
   6 H     1.0000    0     1.008    2.902544   -5.752704   -6.850299
   7 H     1.0000    0     1.008   -0.378626   -5.468081   -7.612758
   8 C     6.0000    0    12.011    4.890127   -0.081670    0.407733
   9 C     6.0000    0    12.011    2.392887    0.063697   -0.863227
  10 C     6.0000    0    12.011    0.779270    2.242192    0.035073
  11 C     6.0000    0    12.011    1.332761    3.596015    2.206907
  12 C     6.0000    0    12.011   -0.181416    5.591465    2.996072
  13 C     6.0000    0    12.011   -2.284352    6.236221    1.582481
  14 C     6.0000    0    12.011   -2.889529    4.904729   -0.597257
  15 C     6.0000    0    12.011   -1.369524    2.907833   -1.369048
  16 O     8.0000    0    15.999   -1.825993    1.488571   -3.438427
  17 C     6.0000    0    12.011   -3.924889    2.124976   -4.967310
  18 N     7.0000    0    14.007    4.942291   -1.838144    2.099718
  19 O     8.0000    0    15.999    6.513051   -2.534174    3.644339
  20 H     1.0000    0     1.008    2.587725    0.177893   -2.913568
  21 H     1.0000    0     1.008    2.983275    3.083820    3.309602
  22 H     1.0000    0     1.008    0.286297    6.623959    4.700902
  23 H     1.0000    0     1.008   -3.490729    7.783858    2.171785
  24 H     1.0000    0     1.008   -4.551755    5.420611   -1.668749
  25 H     1.0000    0     1.008   -5.691507    1.978636   -3.906378
  26 H     1.0000    0     1.008   -3.936897    0.765808   -6.510127
  27 H     1.0000    0     1.008   -3.737483    4.037466   -5.728453
  28 O     8.0000    0    15.999    2.603702   -3.180362    2.168308
  29 H     1.0000    0     1.008    0.682968   -7.932876   -5.557660
  30 H     1.0000    0     1.008    6.519674    1.119323    0.175552

--------------------------------
INTERNAL COORDINATES (ANGSTROEM)
--------------------------------
 C      0   0   0     0.000000000000     0.00000000     0.00000000
 C      1   0   0     1.520481864025     0.00000000     0.00000000
 O      2   1   0     1.203871439883   124.65060498     0.00000000
 O      2   1   3     1.322526905122   110.41365233   180.51410819
 C      4   2   1     1.432124627476   116.33423405   177.66661881
 H      1   2   3     1.093475959455   110.21296724   229.71770786
 H      5   4   2     1.089979104107   110.13061202   300.28653470
 H      5   4   2     1.086623914210   105.62971407   180.89628749
 C      1   2   3     2.303330653977   107.38211183    62.04387252
 C      9   1   2     1.484781385889    41.61394979   103.09633831
 C     10   9   1     1.511312161673   113.57213021   121.08779732
 C     11  10   9     1.385600824911   122.40160469   346.14751035
 C     12  11  10     1.389766497041   121.34661410   180.05234451
 C     13  12  11     1.383602603342   119.25002388     0.02554888
 C     14  13  12     1.389064448312   120.61676829     0.23625391
 C     15  14  13     1.389397130501   119.76288822   359.93978028
 O     16  15  14     1.349660831511   123.92538808   179.12184944
 C     17  16  15     1.414780704662   118.16604342     2.37875781
 N      9   1   2     1.290881766318    71.93218509   265.67277820
 O     19   9   1     1.222570526110   134.04229261   171.70298369
 H     10   9   1     1.091555861948   111.65695750   244.68418712
 H     12  11  10     1.084809908971   119.15478571     0.06952267
 H     13  12  11     1.083359289452   120.11270437   179.97771410
 H     14  13  12     1.084206761721   120.28754886   179.82007029
 H     15  14  13     1.081545955877   119.65713760   179.32823300
 H     18  17  16     1.093225728821   111.14908439   298.67403753
 H     18  17  16     1.088069913734   106.04085054   179.77179653
 H     18  17  16     1.093756701354   111.07938328    60.73650128
 O      1   2   3     1.415963586488   109.15407102   348.34168700
 H      5   4   2     1.089918736501   110.19277326    61.49190341
 H      9   1   2     1.078238570739   166.44917852    51.74709331

---------------------------
INTERNAL COORDINATES (A.U.)
---------------------------
 C      0   0   0     0.000000000000     0.00000000     0.00000000
 C      1   0   0     2.873294314602     0.00000000     0.00000000
 O      2   1   0     2.274987321828   124.65060498     0.00000000
 O      2   1   3     2.499213655423   110.41365233   180.51410819
 C      4   2   1     2.706323335573   116.33423405   177.66661881
 H      1   2   3     2.066370097396   110.21296724   229.71770786
 H      5   4   2     2.059761998459   110.13061202   300.28653470
 H      5   4   2     2.053421608427   105.62971407   180.89628749
 C      1   2   3     4.352664131882   107.38211183    62.04387252
 C      9   1   2     2.805830188075    41.61394979   103.09633831
 C     10   9   1     2.855966088427   113.57213021   121.08779732
 C     11  10   9     2.618406090017   122.40160469   346.14751035
 C     12  11  10     2.626278069506   121.34661410   180.05234451
 C     13  12  11     2.614629998498   119.25002388     0.02554888
 C     14  13  12     2.624951389677   120.61676829     0.23625391
 C     15  14  13     2.625580067903   119.76288822   359.93978028
 O     16  15  14     2.550489345236   123.92538808   179.12184944
 C     17  16  15     2.673548071368   118.16604342     2.37875781
 N      9   1   2     2.439413009613    71.93218509   265.67277820
 O     19   9   1     2.310323473752   134.04229261   171.70298369
 H     10   9   1     2.062741638957   111.65695750   244.68418712
 H     12  11  10     2.049993635319   119.15478571     0.06952267
 H     13  12  11     2.047252361704   120.11270437   179.97771410
 H     14  13  12     2.048853852198   120.28754886   179.82007029
 H     15  14  13     2.043825657858   119.65713760   179.32823300
 H     18  17  16     2.065897230029   111.14908439   298.67403753
 H     18  17  16     2.056154151516   106.04085054   179.77179653
 H     18  17  16     2.066900622700   111.07938328    60.73650128
 O      1   2   3     2.675783394068   109.15407102   348.34168700
 H      5   4   2     2.059647920217   110.19277326    61.49190341
 H      9   1   2     2.037575605728   166.44917852    51.74709331

---------------------
BASIS SET INFORMATION
---------------------
There are 4 groups of distinct atoms

 Group   1 Type C   : 11s6p2d1f contracted to 5s3p2d1f pattern {62111/411/11/1}
 Group   2 Type O   : 11s6p2d1f contracted to 5s3p2d1f pattern {62111/411/11/1}
 Group   3 Type H   : 5s1p contracted to 3s1p pattern {311/1}
 Group   4 Type N   : 11s6p2d1f contracted to 5s3p2d1f pattern {62111/411/11/1}

Atom   0C    basis set group =>   1
Atom   1C    basis set group =>   1
Atom   2O    basis set group =>   2
Atom   3O    basis set group =>   2
Atom   4C    basis set group =>   1
Atom   5H    basis set group =>   3
Atom   6H    basis set group =>   3
Atom   7H    basis set group =>   3
Atom   8C    basis set group =>   1
Atom   9C    basis set group =>   1
Atom  10C    basis set group =>   1
Atom  11C    basis set group =>   1
Atom  12C    basis set group =>   1
Atom  13C    basis set group =>   1
Atom  14C    basis set group =>   1
Atom  15C    basis set group =>   1
Atom  16O    basis set group =>   2
Atom  17C    basis set group =>   1
Atom  18N    basis set group =>   4
Atom  19O    basis set group =>   2
Atom  20H    basis set group =>   3
Atom  21H    basis set group =>   3
Atom  22H    basis set group =>   3
Atom  23H    basis set group =>   3
Atom  24H    basis set group =>   3
Atom  25H    basis set group =>   3
Atom  26H    basis set group =>   3
Atom  27H    basis set group =>   3
Atom  28O    basis set group =>   2
Atom  29H    basis set group =>   3
Atom  30H    basis set group =>   3
---------------------------------
AUXILIARY/J BASIS SET INFORMATION
---------------------------------
There are 4 groups of distinct atoms

 Group   1 Type C   : 12s5p4d2f1g contracted to 6s4p3d1f1g pattern {711111/2111/211/2/1}
 Group   2 Type O   : 12s5p4d2f1g contracted to 6s4p3d1f1g pattern {711111/2111/211/2/1}
 Group   3 Type H   : 5s2p1d contracted to 3s1p1d pattern {311/2/1}
 Group   4 Type N   : 12s5p4d2f1g contracted to 6s4p3d1f1g pattern {711111/2111/211/2/1}

Atom   0C    basis set group =>   1
Atom   1C    basis set group =>   1
Atom   2O    basis set group =>   2
Atom   3O    basis set group =>   2
Atom   4C    basis set group =>   1
Atom   5H    basis set group =>   3
Atom   6H    basis set group =>   3
Atom   7H    basis set group =>   3
Atom   8C    basis set group =>   1
Atom   9C    basis set group =>   1
Atom  10C    basis set group =>   1
Atom  11C    basis set group =>   1
Atom  12C    basis set group =>   1
Atom  13C    basis set group =>   1
Atom  14C    basis set group =>   1
Atom  15C    basis set group =>   1
Atom  16O    basis set group =>   2
Atom  17C    basis set group =>   1
Atom  18N    basis set group =>   4
Atom  19O    basis set group =>   2
Atom  20H    basis set group =>   3
Atom  21H    basis set group =>   3
Atom  22H    basis set group =>   3
Atom  23H    basis set group =>   3
Atom  24H    basis set group =>   3
Atom  25H    basis set group =>   3
Atom  26H    basis set group =>   3
Atom  27H    basis set group =>   3
Atom  28O    basis set group =>   2
Atom  29H    basis set group =>   3
Atom  30H    basis set group =>   3


           ************************************************************
           *        Program running with 24 parallel MPI-processes    *
           *              working on a common directory               *
           ************************************************************
------------------------------------------------------------------------------
                           ORCA GTO INTEGRAL CALCULATION
                           -- RI-GTO INTEGRALS CHOSEN --
------------------------------------------------------------------------------
------------------------------------------------------------------------------
                   ___                                                        
                  /   \      - P O W E R E D   B Y -                         
                 /     \                                                     
                 |  |  |   _    _      __       _____    __    __             
                 |  |  |  | |  | |    /  \     |  _  \  |  |  /  |          
                  \  \/   | |  | |   /    \    | | | |  |  | /  /          
                 / \  \   | |__| |  /  /\  \   | |_| |  |  |/  /          
                |  |  |   |  __  | /  /__\  \  |    /   |      \           
                |  |  |   | |  | | |   __   |  |    \   |  |\   \          
                \     /   | |  | | |  |  |  |  | |\  \  |  | \   \       
                 \___/    |_|  |_| |__|  |__|  |_| \__\ |__|  \__/        
                                                                              
                      - O R C A' S   B I G   F R I E N D -                    
                                      &                                       
                       - I N T E G R A L  F E E D E R -                       
                                                                              
 v1 FN, 2020, v2 2021                                                         
------------------------------------------------------------------------------


Reading SHARK input file 4_H_free/4_H_free.SHARKINP.tmp ... ok
----------------------
SHARK INTEGRAL PACKAGE
----------------------

Number of atoms                             ...     31
Number of basis functions                   ...    636
Number of shells                            ...    250
Maximum angular momentum                    ...      3
Integral batch strategy                     ... SHARK/LIBINT Hybrid
RI-J (if used) integral strategy            ... SPLIT-RIJ (Revised 2003 algorithm where possible)
Printlevel                                  ...      1
Contraction scheme used                     ... SEGMENTED contraction
Coulomb Range Separation                    ... NOT USED
Exchange Range Separation                   ... NOT USED
Finite Nucleus Model                        ... NOT USED
Auxiliary Coulomb fitting basis             ... AVAILABLE
   # of basis functions in Aux-J            ...   1025
   # of shells in Aux-J                     ...    335
   Maximum angular momentum in Aux-J        ...      4
Auxiliary J/K fitting basis                 ... NOT available
Auxiliary Correlation fitting basis         ... NOT available
Auxiliary 'external' fitting basis          ... NOT available
Integral threshold                          ...     2.500000e-11
Primitive cut-off                           ...     2.500000e-12
Primitive pair pre-selection threshold      ...     2.500000e-12

Calculating pre-screening integrals         ... done (  0.1 sec) Dimension = 250
Organizing shell pair data                  ... done (  0.3 sec)
Shell pair information
Total number of shell pairs                 ...     31375
Shell pairs after pre-screening             ...     23954
Total number of primitive shell pairs       ...     96576
Primitive shell pairs kept                  ...     50025
          la=0 lb=0:   6138 shell pairs
          la=1 lb=0:   6809 shell pairs
          la=1 lb=1:   1919 shell pairs
          la=2 lb=0:   3443 shell pairs
          la=2 lb=1:   1956 shell pairs
          la=2 lb=2:    515 shell pairs
          la=3 lb=0:   1640 shell pairs
          la=3 lb=1:    936 shell pairs
          la=3 lb=2:    471 shell pairs
          la=3 lb=3:    127 shell pairs

Calculating one electron integrals          ... done (  0.1 sec)
Calculating RI/J V-Matrix + Cholesky decomp.... done (  0.2 sec)
Calculating Nuclear repulsion               ... done (  0.0 sec) ENN=   1373.894278659825 Eh

SHARK setup successfully completed in   1.4 seconds

Maximum memory used throughout the entire GTOINT-calculation: 38.0 MB


           ************************************************************
           *        Program running with 24 parallel MPI-processes    *
           *              working on a common directory               *
           ************************************************************
-------------------------------------------------------------------------------
                                 ORCA SCF
-------------------------------------------------------------------------------

------------
SCF SETTINGS
------------
Hamiltonian:
 Density Functional     Method          .... DFT(GTOs)
 Exchange Functional    Exchange        .... PBE
   PBE kappa parameter   XKappa         ....  0.804000
   PBE mue parameter    XMuePBE         ....  0.219520
 Correlation Functional Correlation     .... PBE
   PBE beta parameter  CBetaPBE         ....  0.066725
 LDA part of GGA corr.  LDAOpt          .... PW91-LDA
 Gradients option       PostSCFGGA      .... off
 Hybrid DFT is turned on
   Fraction HF Exchange ScalHFX         ....  0.250000
   Scaling of DF-GGA-X  ScalDFX         ....  0.750000
   Scaling of DF-GGA-C  ScalDFC         ....  1.000000
   Scaling of DF-LDA-C  ScalLDAC        ....  1.000000
   Perturbative correction              ....  0.000000
   Density functional embedding theory  .... OFF
   NL short-range parameter             ....  6.900000
 RI-approximation to the Coulomb term is turned on
   Number of AuxJ basis functions       .... 1025
   RIJ-COSX (HFX calculated with COS-X)).... on


General Settings:
 Integral files         IntName         .... 4_H_free/4_H_free
 Hartree-Fock type      HFTyp           .... RHF
 Total Charge           Charge          ....    0
 Multiplicity           Mult            ....    1
 Number of Electrons    NEL             ....  132
 Basis Dimension        Dim             ....  636
 Nuclear Repulsion      ENuc            ....   1373.8942786598 Eh

Convergence Acceleration:
 DIIS                   CNVDIIS         .... on
   Start iteration      DIISMaxIt       ....    12
   Startup error        DIISStart       ....  0.200000
   # of expansion vecs  DIISMaxEq       ....     5
   Bias factor          DIISBfac        ....   1.050
   Max. coefficient     DIISMaxC        ....  10.000
 Trust-Rad. Augm. Hess. CNVTRAH         .... auto
   Auto Start mean grad. ratio tolernc. ....  1.125000
   Auto Start start iteration           ....    20
   Auto Start num. interpolation iter.  ....    10
   Max. Number of Micro iterations      ....    16
   Max. Number of Macro iterations      .... Maxiter - #DIIS iter
   Number of Davidson start vectors     ....     2
   Converg. threshold I  (grad. norm)   ....   1.000e-05
   Converg. threshold II (energy diff.) ....   1.000e-08
   Grad. Scal. Fac. for Micro threshold ....   0.100
   Minimum threshold for Micro iter.    ....   0.010
   NR start threshold (gradient norm)   ....   0.001
   Initial trust radius                 ....   0.400
   Minimum AH scaling param. (alpha)    ....   1.000
   Maximum AH scaling param. (alpha)    .... 1000.000
   Orbital update algorithm             .... Taylor
   White noise on init. David. guess    .... on
   Maximum white noise                  ....   0.010
   Quad. conv. algorithm                .... NR
 SOSCF                  CNVSOSCF        .... on
   Start iteration      SOSCFMaxIt      ....   150
   Startup grad/error   SOSCFStart      ....  0.003300
 Level Shifting         CNVShift        .... on
   Level shift para.    LevelShift      ....    0.2500
   Turn off err/grad.   ShiftErr        ....    0.0010
 Zerner damping         CNVZerner       .... off
 Static damping         CNVDamp         .... on
   Fraction old density DampFac         ....    0.7000
   Max. Damping (<1)    DampMax         ....    0.9800
   Min. Damping (>=0)   DampMin         ....    0.0000
   Turn off err/grad.   DampErr         ....    0.1000
 Fernandez-Rico         CNVRico         .... off

SCF Procedure:
 Maximum # iterations   MaxIter         ....   800
 SCF integral mode      SCFMode         .... Direct
   Integral package                     .... SHARK and LIBINT hybrid scheme
 Reset frequency        DirectResetFreq ....    20
 Integral Threshold     Thresh          ....  2.500e-11 Eh
 Primitive CutOff       TCut            ....  2.500e-12 Eh

Convergence Tolerance:
 Convergence Check Mode ConvCheckMode   .... Total+1el-Energy
 Convergence forced     ConvForced      .... 0
 Energy Change          TolE            ....  1.000e-08 Eh
 1-El. energy change                    ....  1.000e-05 Eh
 Orbital Gradient       TolG            ....  1.000e-05
 Orbital Rotation angle TolX            ....  1.000e-05
 DIIS Error             TolErr          ....  5.000e-07


Diagonalization of the overlap matrix:
Smallest eigenvalue                        ... 6.488e-06
Time for diagonalization                   ...    0.124 sec
Threshold for overlap eigenvalues          ... 1.000e-08
Number of eigenvalues below threshold      ... 0
Time for construction of square roots      ...    0.078 sec
Total time needed                          ...    0.206 sec

Time for model grid setup =    0.246 sec

------------------------------
INITIAL GUESS: MODEL POTENTIAL
------------------------------
Loading Hartree-Fock densities                     ... done
Calculating cut-offs                               ... done
Initializing the effective Hamiltonian             ... done
Setting up the integral package (SHARK)            ... done
Starting the Coulomb interaction                   ... done (   0.2 sec)
Reading the grid                                   ... done
Mapping shells                                     ... done
Starting the XC term evaluation                    ... done (   0.1 sec)
  promolecular density results
     # of electrons  =    131.984284620
     EX              =   -112.596205184
     EC              =     -4.472759554
     EX+EC           =   -117.068964739
Transforming the Hamiltonian                       ... done (   0.1 sec)
Diagonalizing the Hamiltonian                      ... done (   0.1 sec)
Back transforming the eigenvectors                 ... done (   0.0 sec)
Now organizing SCF variables                       ... done
                      ------------------
                      INITIAL GUESS DONE (   0.9 sec)
                      ------------------
-------------------
DFT GRID GENERATION
-------------------

General Integration Accuracy     IntAcc      ... 4.388
Radial Grid Type                 RadialGrid  ... OptM3 with GC (2021)
Angular Grid (max. ang.)         AngularGrid ... 4 (Lebedev-302)
Angular grid pruning method      GridPruning ... 4 (adaptive)
Weight generation scheme         WeightScheme... Becke
Basis function cutoff            BFCut       ... 1.0000e-11
Integration weight cutoff        WCut        ... 1.0000e-14
Angular grids for H and He will be reduced by one unit
Partially contracted basis set               ... off
Rotationally invariant grid construction     ... off

Total number of grid points                  ...   149540
Total number of batches                      ...     2352
Average number of points per batch           ...       63
Average number of grid points per atom       ...     4824
Time for grid setup =    0.955 sec

--------------------
COSX GRID GENERATION
--------------------

GRIDX 1
-------
General Integration Accuracy     IntAcc      ... 3.816
Radial Grid Type                 RadialGrid  ... OptM3 with GC (2021)
Angular Grid (max. ang.)         AngularGrid ... 1 (Lebedev-50)
Angular grid pruning method      GridPruning ... 4 (adaptive)
Weight generation scheme         WeightScheme... Becke
Basis function cutoff            BFCut       ... 1.0000e-11
Integration weight cutoff        WCut        ... 1.0000e-14
Angular grids for H and He will be reduced by one unit
Partially contracted basis set               ... on
Rotationally invariant grid construction     ... off

Total number of grid points                  ...    18979
Total number of batches                      ...      311
Average number of points per batch           ...       61
Average number of grid points per atom       ...      612
UseSFitting                                  ... on

GRIDX 2
-------
General Integration Accuracy     IntAcc      ... 4.020
Radial Grid Type                 RadialGrid  ... OptM3 with GC (2021)
Angular Grid (max. ang.)         AngularGrid ... 2 (Lebedev-110)
Angular grid pruning method      GridPruning ... 4 (adaptive)
Weight generation scheme         WeightScheme... Becke
Basis function cutoff            BFCut       ... 1.0000e-11
Integration weight cutoff        WCut        ... 1.0000e-14
Angular grids for H and He will be reduced by one unit
Partially contracted basis set               ... on
Rotationally invariant grid construction     ... off

Total number of grid points                  ...    41562
Total number of batches                      ...      667
Average number of points per batch           ...       62
Average number of grid points per atom       ...     1341
UseSFitting                                  ... on

GRIDX 3
-------
General Integration Accuracy     IntAcc      ... 4.338
Radial Grid Type                 RadialGrid  ... OptM3 with GC (2021)
Angular Grid (max. ang.)         AngularGrid ... 3 (Lebedev-194)
Angular grid pruning method      GridPruning ... 4 (adaptive)
Weight generation scheme         WeightScheme... Becke
Basis function cutoff            BFCut       ... 1.0000e-11
Integration weight cutoff        WCut        ... 1.0000e-14
Angular grids for H and He will be reduced by one unit
Partially contracted basis set               ... on
Rotationally invariant grid construction     ... off

Total number of grid points                  ...    90991
Total number of batches                      ...     1437
Average number of points per batch           ...       63
Average number of grid points per atom       ...     2935
UseSFitting                                  ... on

Time for X-Grid setup             =    1.540 sec


--------------------
CPCM SOLVATION MODEL
--------------------
CPCM parameters:
  Epsilon                                         ...      47.2000
  Refrac                                          ...       1.4790
  Rsolv                                           ...       1.3000
  Surface type                                    ... GAUSSIAN VDW
  Epsilon function type                           ...         CPCM
Radii:
 Radius for C  used is    3.8550 Bohr (=   2.0400 Ang.)
 Radius for O  used is    3.4469 Bohr (=   1.8240 Ang.)
 Radius for H  used is    2.4944 Bohr (=   1.3200 Ang.)
 Radius for N  used is    3.5149 Bohr (=   1.8600 Ang.)
Calculating surface                               ...        done! (  0.0s)
GEPOL surface points                              ...         1625
GEPOL Volume                                      ...    1912.1854
GEPOL Surface-area                                ...    1000.7823
Calculating surface distance matrix               ...        done! (  0.0s)
Performing Cholesky decomposition & store         ...        done! (  0.3s)
Overall time for CPCM initialization              ...                 0.3s
--------------
SCF ITERATIONS
--------------
ITER       Energy         Delta-E        Max-DP      RMS-DP      [F,P]     Damp
               ***  Starting incremental Fock matrix formation  ***
  0   -894.8270885300   0.000000000000 0.11024137  0.00074706  0.2644500 0.7000
  1   -895.0059050413  -0.178816511263 0.10718207  0.00061557  0.1036896 0.7000
                               ***Turning on DIIS***
  2   -895.0768324213  -0.070927379989 0.16998048  0.00110241  0.0317410 0.0000
  3   -895.1960075221  -0.119175100866 0.06933714  0.00041839  0.0541578 0.0000
  4   -895.2165089255  -0.020501403428 0.01029622  0.00014001  0.0168661 0.0000
  5   -895.2179500170  -0.001441091465 0.00694551  0.00005307  0.0055516 0.0000
                      *** Initiating the SOSCF procedure ***
                           *** Shutting down DIIS ***
                      *** Re-Reading the Fockian *** 
                      *** Removing any level shift *** 
ITER      Energy       Delta-E        Grad      Rot      Max-DP    RMS-DP
  6   -895.21805300  -0.0001029825  0.000175  0.000175  0.001159  0.000017
               *** Restarting incremental Fock matrix formation ***
  7   -895.21803092   0.0000220755  0.000245  0.001069  0.001415  0.000020
  8   -895.21802935   0.0000015781  0.000445  0.000664  0.000870  0.000006
  9   -895.21803274  -0.0000033980  0.000055  0.000155  0.000370  0.000003
 10   -895.21803261   0.0000001351  0.000056  0.000069  0.000229  0.000001
 11   -895.21803282  -0.0000002138  0.000003  0.000010  0.000086  0.000001
 12   -895.21803282   0.0000000015  0.000004  0.000007  0.000028  0.000000
                  ***Gradient check signals convergence***
              ***Rediagonalizing the Fockian in SOSCF/NRSCF***

               *****************************************************
               *                     SUCCESS                       *
               *           SCF CONVERGED AFTER  13 CYCLES          *
               *****************************************************

Old exchange energy                            =    -28.655104206 Eh
New exchange energy                            =    -28.655057769 Eh
Exchange energy change after final integration =      0.000046437 Eh
Total energy after final integration           =   -895.217986376 Eh
Final COS-X integration done in                =     7.781 sec

----------------
TOTAL SCF ENERGY
----------------

Total Energy       :         -895.21798638 Eh          -24360.11985 eV

Components:
Nuclear Repulsion  :         1373.89427866 Eh           37385.56397 eV
Electronic Energy  :        -2269.11226504 Eh          -61745.68382 eV
One Electron Energy:        -3950.57910959 Eh         -107500.72280 eV
Two Electron Energy:         1681.46684456 Eh           45755.03898 eV
Max COSX asymmetry :            0.00000205 Eh               0.00006 eV
CPCM Dielectric    :           -0.03025686 Eh              -0.82333 eV

Virial components:
Potential Energy   :        -1786.60146959 Eh          -48615.89757 eV
Kinetic Energy     :          891.38348321 Eh           24255.77772 eV
Virial Ratio       :            2.00430174


DFT components:
N(Alpha)           :       66.000202154781 electrons
N(Beta)            :       66.000202154781 electrons
N(Total)           :      132.000404309562 electrons
E(X)               :      -85.851560536928 Eh       
E(C)               :       -4.473045556124 Eh       
E(XC)              :      -90.324606093052 Eh       
DFET-embed. en.    :        0.000000000000 Eh       
CPCM Solvation Model Properties:
Surface-charge          :           -0.02593356
Charge-correction       :           -0.00015786 Eh              -0.00430 eV
Free-energy (cav+disp)  :  This term is not implemented in the current solvation scheme

---------------
SCF CONVERGENCE
---------------

  Last Energy change         ...    7.8682e-09  Tolerance :   1.0000e-08
  Last MAX-Density change    ...    1.7764e-15  Tolerance :   1.0000e-07
  Last RMS-Density change    ...    1.4043e-17  Tolerance :   5.0000e-09
  Last Orbital Gradient      ...    7.9845e-07  Tolerance :   1.0000e-05
  Last Orbital Rotation      ...    2.6324e-06  Tolerance :   1.0000e-05

             **** THE GBW FILE WAS UPDATED (4_H_free/4_H_free.gbw) ****
             **** DENSITY 4_H_free/4_H_free.scfp WAS UPDATED ****
             **** ENERGY FILE WAS UPDATED (4_H_free/4_H_free.en.tmp) ****
             **** THE GBW FILE WAS UPDATED (4_H_free/4_H_free.gbw) ****
             **** DENSITY 4_H_free/4_H_free.scfp WAS UPDATED ****
----------------
ORBITAL ENERGIES
----------------

  NO   OCC          E(Eh)            E(eV) 
   0   2.0000     -19.281232      -524.6690 
   1   2.0000     -19.268986      -524.3358 
   2   2.0000     -19.247267      -523.7448 
   3   2.0000     -19.220354      -523.0124 
   4   2.0000     -19.210285      -522.7384 
   5   2.0000     -14.590186      -397.0192 
   6   2.0000     -10.363744      -282.0118 
   7   2.0000     -10.312520      -280.6179 
   8   2.0000     -10.292456      -280.0720 
   9   2.0000     -10.278006      -279.6788 
  10   2.0000     -10.272944      -279.5410 
  11   2.0000     -10.270396      -279.4717 
  12   2.0000     -10.267209      -279.3850 
  13   2.0000     -10.242936      -278.7245 
  14   2.0000     -10.232115      -278.4300 
  15   2.0000     -10.230557      -278.3876 
  16   2.0000     -10.226888      -278.2878 
  17   2.0000     -10.222476      -278.1677 
  18   2.0000      -1.232869       -33.5481 
  19   2.0000      -1.159560       -31.5532 
  20   2.0000      -1.110308       -30.2130 
  21   2.0000      -1.100673       -29.9508 
  22   2.0000      -1.065514       -28.9941 
  23   2.0000      -0.916377       -24.9359 
  24   2.0000      -0.890171       -24.2228 
  25   2.0000      -0.842025       -22.9127 
  26   2.0000      -0.792940       -21.5770 
  27   2.0000      -0.779921       -21.2227 
  28   2.0000      -0.753995       -20.5172 
  29   2.0000      -0.722060       -19.6483 
  30   2.0000      -0.698610       -19.0101 
  31   2.0000      -0.647942       -17.6314 
  32   2.0000      -0.631410       -17.1815 
  33   2.0000      -0.613261       -16.6877 
  34   2.0000      -0.596107       -16.2209 
  35   2.0000      -0.577602       -15.7174 
  36   2.0000      -0.565718       -15.3940 
  37   2.0000      -0.549892       -14.9633 
  38   2.0000      -0.534767       -14.5518 
  39   2.0000      -0.519008       -14.1229 
  40   2.0000      -0.516574       -14.0567 
  41   2.0000      -0.510152       -13.8820 
  42   2.0000      -0.502421       -13.6716 
  43   2.0000      -0.493270       -13.4226 
  44   2.0000      -0.484357       -13.1800 
  45   2.0000      -0.472396       -12.8545 
  46   2.0000      -0.457434       -12.4474 
  47   2.0000      -0.452496       -12.3130 
  48   2.0000      -0.445071       -12.1110 
  49   2.0000      -0.432037       -11.7563 
  50   2.0000      -0.430586       -11.7168 
  51   2.0000      -0.417250       -11.3540 
  52   2.0000      -0.406778       -11.0690 
  53   2.0000      -0.387465       -10.5435 
  54   2.0000      -0.385560       -10.4916 
  55   2.0000      -0.384688       -10.4679 
  56   2.0000      -0.371271       -10.1028 
  57   2.0000      -0.349710        -9.5161 
  58   2.0000      -0.343990        -9.3605 
  59   2.0000      -0.343152        -9.3376 
  60   2.0000      -0.335571        -9.1314 
  61   2.0000      -0.319064        -8.6822 
  62   2.0000      -0.309628        -8.4254 
  63   2.0000      -0.273265        -7.4359 
  64   2.0000      -0.257078        -6.9955 
  65   2.0000      -0.242012        -6.5855 
  66   0.0000      -0.027725        -0.7544 
  67   0.0000      -0.015943        -0.4338 
  68   0.0000      -0.003832        -0.1043 
  69   0.0000       0.003543         0.0964 
  70   0.0000       0.044087         1.1997 
  71   0.0000       0.054758         1.4900 
  72   0.0000       0.064961         1.7677 
  73   0.0000       0.075190         2.0460 
  74   0.0000       0.083409         2.2697 
  75   0.0000       0.085884         2.3370 
  76   0.0000       0.090854         2.4723 
  77   0.0000       0.097429         2.6512 
  78   0.0000       0.101932         2.7737 
  79   0.0000       0.117445         3.1958 
  80   0.0000       0.121605         3.3090 
  81   0.0000       0.126970         3.4550 
  82   0.0000       0.132731         3.6118 
  83   0.0000       0.136864         3.7243 
  84   0.0000       0.140951         3.8355 
  85   0.0000       0.151529         4.1233 
  86   0.0000       0.151853         4.1321 
  87   0.0000       0.156946         4.2707 
  88   0.0000       0.164077         4.4647 
  89   0.0000       0.172820         4.7027 
  90   0.0000       0.181065         4.9270 
  91   0.0000       0.189650         5.1607 
  92   0.0000       0.201691         5.4883 
  93   0.0000       0.205357         5.5880 
  94   0.0000       0.212273         5.7762 
  95   0.0000       0.215725         5.8702 
  96   0.0000       0.220773         6.0075 
  97   0.0000       0.224636         6.1127 
  98   0.0000       0.233175         6.3450 
  99   0.0000       0.236796         6.4436 
 100   0.0000       0.245270         6.6741 
 101   0.0000       0.246118         6.6972 
 102   0.0000       0.255698         6.9579 
 103   0.0000       0.263244         7.1632 
 104   0.0000       0.276011         7.5106 
 105   0.0000       0.276684         7.5290 
 106   0.0000       0.282451         7.6859 
 107   0.0000       0.289208         7.8698 
 108   0.0000       0.295295         8.0354 
 109   0.0000       0.299887         8.1603 
 110   0.0000       0.306319         8.3354 
 111   0.0000       0.313868         8.5408 
 112   0.0000       0.323990         8.8162 
 113   0.0000       0.326811         8.8930 
 114   0.0000       0.333427         9.0730 
 115   0.0000       0.337622         9.1872 
 116   0.0000       0.345701         9.4070 
 117   0.0000       0.351448         9.5634 
 118   0.0000       0.362857         9.8738 
 119   0.0000       0.367738        10.0067 
 120   0.0000       0.374216        10.1829 
 121   0.0000       0.376541        10.2462 
 122   0.0000       0.382747        10.4151 
 123   0.0000       0.385520        10.4905 
 124   0.0000       0.393067        10.6959 
 125   0.0000       0.395973        10.7750 
 126   0.0000       0.399582        10.8732 
 127   0.0000       0.403634        10.9834 
 128   0.0000       0.415158        11.2970 
 129   0.0000       0.419969        11.4279 
 130   0.0000       0.422671        11.5015 
 131   0.0000       0.426050        11.5934 
 132   0.0000       0.429003        11.6738 
 133   0.0000       0.437161        11.8957 
 134   0.0000       0.442448        12.0396 
 135   0.0000       0.447694        12.1824 
 136   0.0000       0.452372        12.3097 
 137   0.0000       0.456178        12.4132 
 138   0.0000       0.460551        12.5322 
 139   0.0000       0.468526        12.7492 
 140   0.0000       0.470348        12.7988 
 141   0.0000       0.474015        12.8986 
 142   0.0000       0.478592        13.0231 
 143   0.0000       0.483383        13.1535 
 144   0.0000       0.493113        13.4183 
 145   0.0000       0.497881        13.5480 
 146   0.0000       0.499963        13.6047 
 147   0.0000       0.506906        13.7936 
 148   0.0000       0.517211        14.0740 
 149   0.0000       0.520078        14.1521 
 150   0.0000       0.527980        14.3671 
 151   0.0000       0.530799        14.4438 
 152   0.0000       0.545246        14.8369 
 153   0.0000       0.552867        15.0443 
 154   0.0000       0.562467        15.3055 
 155   0.0000       0.564476        15.3602 
 156   0.0000       0.571275        15.5452 
 157   0.0000       0.586117        15.9491 
 158   0.0000       0.589875        16.0513 
 159   0.0000       0.595054        16.1922 
 160   0.0000       0.604074        16.4377 
 161   0.0000       0.607349        16.5268 
 162   0.0000       0.615766        16.7559 
 163   0.0000       0.622562        16.9408 
 164   0.0000       0.644258        17.5312 
 165   0.0000       0.646133        17.5822 
 166   0.0000       0.654735        17.8163 
 167   0.0000       0.664145        18.0723 
 168   0.0000       0.664631        18.0855 
 169   0.0000       0.673397        18.3241 
 170   0.0000       0.686998        18.6942 
 171   0.0000       0.690474        18.7887 
 172   0.0000       0.703531        19.1441 
 173   0.0000       0.712411        19.3857 
 174   0.0000       0.718673        19.5561 
 175   0.0000       0.731097        19.8942 
 176   0.0000       0.745339        20.2817 
 177   0.0000       0.754733        20.5373 
 178   0.0000       0.757871        20.6227 
 179   0.0000       0.764567        20.8049 
 180   0.0000       0.773490        21.0477 
 181   0.0000       0.776234        21.1224 
 182   0.0000       0.791345        21.5336 
 183   0.0000       0.791836        21.5470 
 184   0.0000       0.808780        22.0080 
 185   0.0000       0.811582        22.0843 
 186   0.0000       0.825255        22.4563 
 187   0.0000       0.835718        22.7410 
 188   0.0000       0.839965        22.8566 
 189   0.0000       0.846864        23.0443 
 190   0.0000       0.860994        23.4288 
 191   0.0000       0.865710        23.5572 
 192   0.0000       0.872542        23.7431 
 193   0.0000       0.887414        24.1478 
 194   0.0000       0.893952        24.3257 
 195   0.0000       0.899534        24.4776 
 196   0.0000       0.904970        24.6255 
 197   0.0000       0.920599        25.0508 
 198   0.0000       0.936500        25.4835 
 199   0.0000       0.943622        25.6773 
 200   0.0000       0.944977        25.7141 
 201   0.0000       0.964518        26.2459 
 202   0.0000       0.966100        26.2889 
 203   0.0000       0.974274        26.5114 
 204   0.0000       0.994012        27.0484 
 205   0.0000       0.995427        27.0870 
 206   0.0000       0.999416        27.1955 
 207   0.0000       1.007985        27.4287 
 208   0.0000       1.024548        27.8794 
 209   0.0000       1.029136        28.0042 
 210   0.0000       1.040951        28.3257 
 211   0.0000       1.048065        28.5193 
 212   0.0000       1.067046        29.0358 
 213   0.0000       1.077383        29.3171 
 214   0.0000       1.080910        29.4130 
 215   0.0000       1.088268        29.6133 
 216   0.0000       1.102581        30.0027 
 217   0.0000       1.108528        30.1646 
 218   0.0000       1.124121        30.5889 
 219   0.0000       1.133302        30.8387 
 220   0.0000       1.149476        31.2788 
 221   0.0000       1.170767        31.8582 
 222   0.0000       1.183032        32.1919 
 223   0.0000       1.187333        32.3090 
 224   0.0000       1.192899        32.4604 
 225   0.0000       1.211850        32.9761 
 226   0.0000       1.224754        33.3272 
 227   0.0000       1.240413        33.7534 
 228   0.0000       1.243685        33.8424 
 229   0.0000       1.253091        34.0984 
 230   0.0000       1.265518        34.4365 
 231   0.0000       1.276698        34.7407 
 232   0.0000       1.282002        34.8850 
 233   0.0000       1.288652        35.0660 
 234   0.0000       1.310838        35.6697 
 235   0.0000       1.323164        36.0051 
 236   0.0000       1.330941        36.2167 
 237   0.0000       1.340547        36.4781 
 238   0.0000       1.365899        37.1680 
 239   0.0000       1.375113        37.4187 
 240   0.0000       1.382558        37.6213 
 241   0.0000       1.401152        38.1273 
 242   0.0000       1.418972        38.6122 
 243   0.0000       1.428437        38.8698 
 244   0.0000       1.441655        39.2294 
 245   0.0000       1.446638        39.3650 
 246   0.0000       1.449962        39.4555 
 247   0.0000       1.465667        39.8828 
 248   0.0000       1.474946        40.1353 
 249   0.0000       1.484507        40.3955 
 250   0.0000       1.490085        40.5473 
 251   0.0000       1.501451        40.8566 
 252   0.0000       1.505236        40.9596 
 253   0.0000       1.506848        41.0034 
 254   0.0000       1.515762        41.2460 
 255   0.0000       1.524261        41.4772 
 256   0.0000       1.528734        41.5990 
 257   0.0000       1.534968        41.7686 
 258   0.0000       1.542924        41.9851 
 259   0.0000       1.545095        42.0442 
 260   0.0000       1.548304        42.1315 
 261   0.0000       1.565836        42.6086 
 262   0.0000       1.577541        42.9271 
 263   0.0000       1.585510        43.1439 
 264   0.0000       1.589800        43.2606 
 265   0.0000       1.598998        43.5109 
 266   0.0000       1.604222        43.6531 
 267   0.0000       1.608970        43.7823 
 268   0.0000       1.621042        44.1108 
 269   0.0000       1.634984        44.4902 
 270   0.0000       1.643917        44.7333 
 271   0.0000       1.649102        44.8744 
 272   0.0000       1.664912        45.3046 
 273   0.0000       1.686255        45.8853 
 274   0.0000       1.710727        46.5512 
 275   0.0000       1.713123        46.6164 
 276   0.0000       1.720351        46.8131 
 277   0.0000       1.724454        46.9248 
 278   0.0000       1.728644        47.0388 
 279   0.0000       1.730709        47.0950 
 280   0.0000       1.745401        47.4948 
 281   0.0000       1.756042        47.7843 
 282   0.0000       1.761791        47.9408 
 283   0.0000       1.786695        48.6184 
 284   0.0000       1.801825        49.0302 
 285   0.0000       1.811390        49.2904 
 286   0.0000       1.846223        50.2383 
 287   0.0000       1.849836        50.3366 
 288   0.0000       1.856687        50.5230 
 289   0.0000       1.864952        50.7479 
 290   0.0000       1.873763        50.9877 
 291   0.0000       1.884372        51.2764 
 292   0.0000       1.895046        51.5668 
 293   0.0000       1.907787        51.9135 
 294   0.0000       1.917003        52.1643 
 295   0.0000       1.920567        52.2613 
 296   0.0000       1.944914        52.9238 
 297   0.0000       1.954133        53.1746 
 298   0.0000       1.963595        53.4321 
 299   0.0000       1.972793        53.6824 
 300   0.0000       1.979865        53.8749 
 301   0.0000       1.999014        54.3959 
 302   0.0000       2.002385        54.4877 
 303   0.0000       2.010204        54.7004 
 304   0.0000       2.024270        55.0832 
 305   0.0000       2.033487        55.3340 
 306   0.0000       2.047652        55.7194 
 307   0.0000       2.056069        55.9485 
 308   0.0000       2.063479        56.1501 
 309   0.0000       2.086015        56.7634 
 310   0.0000       2.093927        56.9786 
 311   0.0000       2.102858        57.2217 
 312   0.0000       2.103322        57.2343 
 313   0.0000       2.115447        57.5642 
 314   0.0000       2.130073        57.9622 
 315   0.0000       2.135738        58.1164 
 316   0.0000       2.141309        58.2680 
 317   0.0000       2.148226        58.4562 
 318   0.0000       2.171465        59.0886 
 319   0.0000       2.178074        59.2684 
 320   0.0000       2.199034        59.8388 
 321   0.0000       2.205594        60.0173 
 322   0.0000       2.217789        60.3491 
 323   0.0000       2.239201        60.9318 
 324   0.0000       2.241621        60.9976 
 325   0.0000       2.246878        61.1406 
 326   0.0000       2.265571        61.6493 
 327   0.0000       2.266848        61.6841 
 328   0.0000       2.273187        61.8566 
 329   0.0000       2.280261        62.0491 
 330   0.0000       2.290365        62.3240 
 331   0.0000       2.303209        62.6735 
 332   0.0000       2.312701        62.9318 
 333   0.0000       2.329103        63.3781 
 334   0.0000       2.332138        63.4607 
 335   0.0000       2.358731        64.1843 
 336   0.0000       2.364930        64.3530 
 337   0.0000       2.368096        64.4392 
 338   0.0000       2.379820        64.7582 
 339   0.0000       2.390276        65.0427 
 340   0.0000       2.403731        65.4089 
 341   0.0000       2.410553        65.5945 
 342   0.0000       2.422534        65.9205 
 343   0.0000       2.446641        66.5765 
 344   0.0000       2.456425        66.8427 
 345   0.0000       2.462916        67.0193 
 346   0.0000       2.469495        67.1984 
 347   0.0000       2.490650        67.7740 
 348   0.0000       2.502290        68.0908 
 349   0.0000       2.514158        68.4137 
 350   0.0000       2.534217        68.9596 
 351   0.0000       2.539935        69.1151 
 352   0.0000       2.548710        69.3539 
 353   0.0000       2.554892        69.5221 
 354   0.0000       2.560900        69.6856 
 355   0.0000       2.575763        70.0901 
 356   0.0000       2.581340        70.2418 
 357   0.0000       2.588390        70.4337 
 358   0.0000       2.601395        70.7876 
 359   0.0000       2.609884        71.0185 
 360   0.0000       2.625393        71.4406 
 361   0.0000       2.640042        71.8392 
 362   0.0000       2.654272        72.2264 
 363   0.0000       2.654556        72.2341 
 364   0.0000       2.672597        72.7251 
 365   0.0000       2.688395        73.1549 
 366   0.0000       2.691991        73.2528 
 367   0.0000       2.707318        73.6699 
 368   0.0000       2.710297        73.7509 
 369   0.0000       2.715330        73.8879 
 370   0.0000       2.728370        74.2427 
 371   0.0000       2.750857        74.8546 
 372   0.0000       2.756542        75.0093 
 373   0.0000       2.764810        75.2343 
 374   0.0000       2.774247        75.4911 
 375   0.0000       2.776586        75.5548 
 376   0.0000       2.784559        75.7717 
 377   0.0000       2.795455        76.0682 
 378   0.0000       2.811056        76.4927 
 379   0.0000       2.823738        76.8378 
 380   0.0000       2.832424        77.0742 
 381   0.0000       2.837120        77.2020 
 382   0.0000       2.847725        77.4905 
 383   0.0000       2.864138        77.9372 
 384   0.0000       2.865360        77.9704 
 385   0.0000       2.873619        78.1951 
 386   0.0000       2.880879        78.3927 
 387   0.0000       2.886191        78.5372 
 388   0.0000       2.890393        78.6516 
 389   0.0000       2.900909        78.9378 
 390   0.0000       2.912224        79.2456 
 391   0.0000       2.913410        79.2779 
 392   0.0000       2.922897        79.5361 
 393   0.0000       2.934311        79.8467 
 394   0.0000       2.959311        80.5269 
 395   0.0000       2.961182        80.5779 
 396   0.0000       2.980926        81.1151 
 397   0.0000       3.000570        81.6497 
 398   0.0000       3.008047        81.8531 
 399   0.0000       3.011679        81.9520 
 400   0.0000       3.027076        82.3709 
 401   0.0000       3.031833        82.5004 
 402   0.0000       3.045387        82.8692 
 403   0.0000       3.054157        83.1078 
 404   0.0000       3.058320        83.2211 
 405   0.0000       3.072836        83.6161 
 406   0.0000       3.079524        83.7981 
 407   0.0000       3.090427        84.0948 
 408   0.0000       3.103287        84.4447 
 409   0.0000       3.106578        84.5343 
 410   0.0000       3.117468        84.8306 
 411   0.0000       3.123538        84.9958 
 412   0.0000       3.130129        85.1751 
 413   0.0000       3.138711        85.4087 
 414   0.0000       3.159895        85.9851 
 415   0.0000       3.166846        86.1743 
 416   0.0000       3.180739        86.5523 
 417   0.0000       3.188266        86.7571 
 418   0.0000       3.197388        87.0054 
 419   0.0000       3.203688        87.1768 
 420   0.0000       3.215375        87.4948 
 421   0.0000       3.215761        87.5053 
 422   0.0000       3.222765        87.6959 
 423   0.0000       3.236088        88.0584 
 424   0.0000       3.239060        88.1393 
 425   0.0000       3.260891        88.7334 
 426   0.0000       3.271710        89.0277 
 427   0.0000       3.277246        89.1784 
 428   0.0000       3.285028        89.3902 
 429   0.0000       3.290455        89.5378 
 430   0.0000       3.299176        89.7751 
 431   0.0000       3.310943        90.0953 
 432   0.0000       3.319005        90.3147 
 433   0.0000       3.328614        90.5762 
 434   0.0000       3.331500        90.6547 
 435   0.0000       3.337904        90.8290 
 436   0.0000       3.347028        91.0773 
 437   0.0000       3.351206        91.1910 
 438   0.0000       3.360712        91.4496 
 439   0.0000       3.365171        91.5710 
 440   0.0000       3.376310        91.8741 
 441   0.0000       3.380735        91.9945 
 442   0.0000       3.393675        92.3466 
 443   0.0000       3.395935        92.4081 
 444   0.0000       3.409166        92.7681 
 445   0.0000       3.412176        92.8500 
 446   0.0000       3.422938        93.1429 
 447   0.0000       3.429272        93.3152 
 448   0.0000       3.440265        93.6144 
 449   0.0000       3.445789        93.7647 
 450   0.0000       3.449536        93.8667 
 451   0.0000       3.463539        94.2477 
 452   0.0000       3.465801        94.3092 
 453   0.0000       3.469462        94.4089 
 454   0.0000       3.478086        94.6435 
 455   0.0000       3.489179        94.9454 
 456   0.0000       3.515086        95.6504 
 457   0.0000       3.522418        95.8499 
 458   0.0000       3.528587        96.0177 
 459   0.0000       3.552290        96.6627 
 460   0.0000       3.561964        96.9260 
 461   0.0000       3.563002        96.9542 
 462   0.0000       3.569840        97.1403 
 463   0.0000       3.582000        97.4712 
 464   0.0000       3.592899        97.7678 
 465   0.0000       3.594959        97.8238 
 466   0.0000       3.604352        98.0794 
 467   0.0000       3.612257        98.2945 
 468   0.0000       3.621289        98.5403 
 469   0.0000       3.632788        98.8532 
 470   0.0000       3.641944        99.1023 
 471   0.0000       3.659187        99.5715 
 472   0.0000       3.691005       100.4373 
 473   0.0000       3.704992       100.8180 
 474   0.0000       3.706405       100.8564 
 475   0.0000       3.727117       101.4200 
 476   0.0000       3.762314       102.3778 
 477   0.0000       3.767317       102.5139 
 478   0.0000       3.778888       102.8288 
 479   0.0000       3.809570       103.6637 
 480   0.0000       3.826109       104.1137 
 481   0.0000       3.830439       104.2315 
 482   0.0000       3.850702       104.7829 
 483   0.0000       3.887083       105.7729 
 484   0.0000       3.912241       106.4575 
 485   0.0000       3.922775       106.7441 
 486   0.0000       3.924998       106.8046 
 487   0.0000       3.947563       107.4186 
 488   0.0000       3.964214       107.8718 
 489   0.0000       3.977178       108.2245 
 490   0.0000       3.992062       108.6295 
 491   0.0000       4.009605       109.1069 
 492   0.0000       4.024076       109.5007 
 493   0.0000       4.064929       110.6123 
 494   0.0000       4.085406       111.1696 
 495   0.0000       4.104637       111.6929 
 496   0.0000       4.141702       112.7014 
 497   0.0000       4.155438       113.0752 
 498   0.0000       4.174341       113.5896 
 499   0.0000       4.185344       113.8890 
 500   0.0000       4.189541       114.0032 
 501   0.0000       4.194814       114.1467 
 502   0.0000       4.205983       114.4506 
 503   0.0000       4.215482       114.7091 
 504   0.0000       4.233832       115.2084 
 505   0.0000       4.245606       115.5288 
 506   0.0000       4.256701       115.8307 
 507   0.0000       4.269417       116.1767 
 508   0.0000       4.297475       116.9402 
 509   0.0000       4.298750       116.9749 
 510   0.0000       4.306848       117.1953 
 511   0.0000       4.319482       117.5391 
 512   0.0000       4.324615       117.6788 
 513   0.0000       4.361548       118.6838 
 514   0.0000       4.373455       119.0078 
 515   0.0000       4.389946       119.4565 
 516   0.0000       4.406042       119.8945 
 517   0.0000       4.425856       120.4337 
 518   0.0000       4.430609       120.5630 
 519   0.0000       4.444920       120.9524 
 520   0.0000       4.460519       121.3769 
[...]
     24       0.000161  -0.000082   0.070629
     25       0.000076  -0.000015   0.053635
     26       0.000022   0.000004  -0.012066
     27      -0.000174   0.000038  -0.002684
     28       0.000019  -0.000055  -0.000082
     29      -0.000009  -0.000134  -0.001770
     30       0.000270   0.000268   0.000022
     31       0.000781  -0.000094   0.000160
     32       0.001251   0.000179   0.000088
     33      -0.021239   0.002868   0.000428
     34       0.008340  -0.001138  -0.000143
     35      -0.012293   0.001639   0.000314
     36      -0.017080   0.003066  -0.000017
     37      -0.038097   0.004023   0.000016
     38      -0.064160   0.008107   0.000020
     39       0.022462  -0.012340  -0.000006
     40      -0.025538   0.017704   0.000009
     41      -0.007175   0.008374  -0.000009
     42      -0.013442  -0.067712  -0.000049
     43       0.005439   0.021560   0.000030
     44      -0.007540  -0.045009  -0.000006
     45       0.000373   0.001806   0.000055
     46      -0.000331  -0.002754  -0.000076
     47      -0.000003  -0.001413  -0.000062
     48      -0.000097  -0.000317   0.000011
     49       0.000012   0.000272   0.000002
     50      -0.000087  -0.000004   0.000008
     51      -0.000319  -0.001273  -0.000015
     52       0.000795   0.002284   0.000003
     53       0.000649   0.001519  -0.000022
     54      -0.000035   0.000015   0.000249
     55       0.000121  -0.000051  -0.002310
     56      -0.000024   0.000048   0.002285
     57       0.000033  -0.000027   0.000360
     58      -0.000024   0.000017  -0.000041
     59       0.000036  -0.000034   0.000218
     60       0.000602  -0.000213   0.002031
     61      -0.000580   0.000133  -0.000539
     62      -0.001839   0.001089   0.010042
     63       0.222992  -0.029195  -0.004607
     64      -0.071095   0.009490   0.001306
     65       0.148942  -0.019286  -0.003587
     66       0.187800  -0.022782  -0.000072
     67       0.428909  -0.048820  -0.000288
     68       0.717403  -0.083113  -0.000381
     69      -0.225573   0.142047   0.000014
     70       0.283743  -0.182244  -0.000037
     71       0.105081  -0.070554  -0.000037
     72       0.158384   0.772460   0.000677
     73      -0.051651  -0.244938  -0.000318
     74       0.103798   0.514471   0.000408
     75       0.004638   0.016471   0.000139
     76       0.000786   0.002082  -0.000002
     77      -0.003433  -0.012512  -0.000043
     78       0.000567   0.002410   0.000007
     79      -0.006613  -0.016966   0.000094
     80      -0.007089  -0.017222   0.000117
     81      -0.000793  -0.002554   0.000009
     82      -0.005019  -0.018346  -0.000149
     83       0.001762   0.005692   0.000056
     84      -0.000013   0.000004  -0.001044
     85      -0.000031   0.000012  -0.000865
     86       0.000004  -0.000006   0.000341
     87      -0.000004  -0.000000   0.000017
     88      -0.000114   0.000055   0.000138
     89       0.000017  -0.000001  -0.000045
     90      -0.001641   0.000873  -0.797540
     91      -0.000977   0.000655  -0.585323
     92       0.000383  -0.000192   0.114500


-----------
IR SPECTRUM
-----------

 Mode   freq       eps      Int      T**2         TX        TY        TZ
       cm**-1   L/(mol*cm) km/mol    a.u.
----------------------------------------------------------------------------
  6:     19.30   0.000340    1.72  0.005493  ( 0.067181  0.012532 -0.028681)
  7:     31.57   0.000194    0.98  0.001918  (-0.027321 -0.005306  0.033808)
  8:     52.20   0.000198    1.00  0.001185  ( 0.002598 -0.034223 -0.002563)
  9:     71.85   0.000427    2.16  0.001853  (-0.018318  0.038944  0.000563)
 10:    100.99   0.000514    2.60  0.001590  ( 0.024605  0.029066 -0.011811)
 11:    102.19   0.000675    3.41  0.002061  (-0.022300 -0.017378  0.035523)
 12:    112.01   0.000213    1.08  0.000595  ( 0.014655 -0.003652 -0.019148)
 13:    145.75   0.000079    0.40  0.000170  ( 0.008377  0.008839 -0.004640)
 14:    160.50   0.000803    4.06  0.001562  (-0.018657  0.006018  0.034321)
 15:    191.78   0.000039    0.20  0.000064  (-0.001578 -0.006912 -0.003720)
 16:    213.88   0.002442   12.34  0.003564  (-0.042367 -0.041624 -0.006001)
 17:    252.88   0.002304   11.65  0.002844  (-0.013610 -0.025528  0.044798)
 18:    256.00   0.000745    3.76  0.000908  ( 0.024761  0.012581  0.011682)
 19:    288.00   0.000295    1.49  0.000320  (-0.001402  0.012965 -0.012233)
 20:    315.63   0.001252    6.33  0.001238  (-0.026675 -0.021508 -0.007989)
 21:    344.90   0.002630   13.29  0.002380  ( 0.043368 -0.006677  0.021320)
 22:    354.80   0.002171   10.97  0.001910  (-0.007851 -0.018639 -0.038739)
 23:    394.41   0.002248   11.36  0.001779  (-0.009172  0.029633  0.028573)
 24:    470.24   0.002015   10.18  0.001337  (-0.020482 -0.024764  0.017453)
 25:    499.80   0.001836    9.28  0.001146  ( 0.027099 -0.012762 -0.015783)
 26:    531.31   0.001946    9.83  0.001143  (-0.031131  0.004076  0.012537)
 27:    567.68   0.000478    2.41  0.000263  ( 0.013201 -0.006581 -0.006704)
 28:    584.44   0.000940    4.75  0.000502  (-0.006481 -0.015341 -0.014990)
 29:    611.51   0.000988    4.99  0.000504  ( 0.018025 -0.010749  0.007978)
 30:    656.25   0.001531    7.74  0.000728  (-0.000198 -0.015929 -0.021775)
 31:    687.62   0.003088   15.61  0.001401  (-0.028218 -0.007720  0.023358)
 32:    711.46   0.003295   16.65  0.001445  (-0.018333 -0.032545 -0.007056)
 33:    748.07   0.005470   27.65  0.002282  (-0.034046  0.033180 -0.004692)
 34:    758.54   0.018617   94.08  0.007659  ( 0.042773  0.070170 -0.030095)
 35:    769.38   0.020269  102.43  0.008221  ( 0.029246 -0.014698 -0.084556)
 36:    774.16   0.021993  111.14  0.008865  (-0.060034 -0.069796 -0.019737)
 37:    784.53   0.027248  137.70  0.010839  ( 0.094807  0.014380  0.040539)
 38:    818.72   0.002722   13.76  0.001038  ( 0.018511 -0.025275 -0.007488)
 39:    848.61   0.007933   40.09  0.002917  (-0.045964 -0.028337  0.001293)
 40:    876.69   0.001424    7.20  0.000507  ( 0.013693  0.014041 -0.011053)
 41:    897.42   0.005358   27.08  0.001863  ( 0.023204  0.036120  0.004502)
 42:    953.53   0.000598    3.02  0.000196  (-0.008854  0.006925  0.008321)
 43:    967.88   0.001204    6.08  0.000388  ( 0.005914 -0.018653  0.002275)
 44:    982.26   0.003084   15.59  0.000980  (-0.030950  0.004502 -0.001334)
 45:    991.35   0.000168    0.85  0.000053  (-0.006931 -0.000010 -0.002231)
 46:   1021.92   0.004839   24.45  0.001478  (-0.009289  0.036576 -0.007308)
 47:   1049.52   0.004434   22.41  0.001318  (-0.008425  0.001882  0.035268)
 48:   1070.81   0.011816   59.71  0.003444  (-0.048668  0.016028 -0.028602)
 49:   1084.38   0.009005   45.51  0.002591  (-0.019587 -0.022121 -0.041454)
 50:   1098.26   0.031388  158.62  0.008919  (-0.051130 -0.016670 -0.077631)
 51:   1136.62   0.008921   45.08  0.002449  ( 0.034046 -0.005520  0.035493)
 52:   1170.79   0.000270    1.36  0.000072  ( 0.005674  0.006295 -0.000129)
 53:   1171.17   0.000176    0.89  0.000047  ( 0.001811  0.003871 -0.005355)
 54:   1174.98   0.002005   10.13  0.000532  ( 0.016829 -0.009403  0.012682)
 55:   1195.88   0.000791    4.00  0.000206  (-0.000820 -0.014333  0.000565)
 56:   1205.18   0.003759   19.00  0.000973  ( 0.009309  0.009090  0.028355)
 57:   1213.21   0.003752   18.96  0.000965  ( 0.025051  0.009275  0.015855)
 58:   1229.08   0.002492   12.59  0.000633  (-0.002529  0.013595 -0.021011)
 59:   1242.79   0.056964  287.88  0.014304  (-0.073599 -0.026817 -0.090376)
 60:   1258.93   0.021897  110.66  0.005428  ( 0.009715  0.021043  0.069934)
 61:   1291.65   0.079749  403.02  0.019267  (-0.075005 -0.022153 -0.114677)
 62:   1305.14   0.006127   30.96  0.001465  ( 0.013454  0.009024  0.034677)
 63:   1314.24   0.032547  164.48  0.007728  (-0.010563  0.065782  0.057352)
 64:   1329.18   0.020522  103.71  0.004818  ( 0.052401 -0.024205  0.038554)
 65:   1369.02   0.015868   80.19  0.003617  ( 0.035134 -0.002669  0.048738)
 66:   1385.62   0.007880   39.82  0.001775  ( 0.009054  0.018282  0.036857)
 67:   1391.49   0.024710  124.88  0.005542  ( 0.044383  0.007037  0.059349)
 68:   1465.52   0.005497   27.78  0.001170  ( 0.007640  0.015928  0.029297)
 69:   1465.85   0.003475   17.56  0.000740  ( 0.013999  0.018080 -0.014725)
 70:   1469.38   0.009776   49.40  0.002076  (-0.006702 -0.024193 -0.038027)
 71:   1472.70   0.003315   16.75  0.000702  ( 0.022171 -0.007012  0.012715)
 72:   1473.92   0.003013   15.23  0.000638  ( 0.013239  0.014535 -0.015858)
 73:   1483.40   0.005240   26.48  0.001102  ( 0.006595  0.018732  0.026607)
 74:   1497.97   0.013449   67.96  0.002802  ( 0.021391  0.016388  0.045558)
 75:   1535.84   0.037220  188.09  0.007563  (-0.026168 -0.037154 -0.074144)
 76:   1648.85   0.009094   45.95  0.001721  ( 0.028343 -0.010528  0.028406)
 77:   1663.14   0.017147   86.65  0.003217  (-0.012933 -0.019987 -0.051484)
 78:   1740.54   0.163778  827.67  0.029364  ( 0.083028 -0.099562  0.112060)
 79:   1803.45   0.101962  515.27  0.017643  ( 0.096714 -0.081171  0.041240)
 80:   3037.63   0.012508   63.21  0.001285  ( 0.027426 -0.006298  0.022206)
 81:   3074.90   0.005363   27.10  0.000544  ( 0.001380 -0.013660 -0.018862)
 82:   3104.90   0.000242    1.22  0.000024  (-0.003842  0.002629  0.001638)
 83:   3109.10   0.007429   37.54  0.000746  ( 0.014879  0.017323 -0.014973)
 84:   3141.63   0.000435    2.20  0.000043  (-0.003228 -0.000303 -0.005719)
 85:   3160.00   0.003373   17.04  0.000333  (-0.011525 -0.012421  0.006778)
 86:   3166.55   0.003860   19.51  0.000380  (-0.001084  0.013107  0.014403)
 87:   3188.48   0.000278    1.41  0.000027  ( 0.003902 -0.001780  0.002970)
 88:   3193.65   0.001868    9.44  0.000182  (-0.009808  0.004401 -0.008180)
 89:   3196.41   0.001573    7.95  0.000154  ( 0.009418 -0.008050  0.000252)
 90:   3214.03   0.003023   15.28  0.000294  (-0.001157 -0.010800 -0.013250)
 91:   3230.84   0.000393    1.99  0.000038  (-0.004784  0.002152 -0.003237)
 92:   3279.12   0.005473   27.66  0.000521  (-0.008870 -0.017934  0.010978)

* The epsilon (eps) is given for a Dirac delta lineshape.
** The dipole moment derivative (T) already includes vibrational overlap.

The first frequency considered to be a vibration is 6
The total number of vibrations considered is 87


--------------------------
THERMOCHEMISTRY AT 298.15K
--------------------------

Temperature         ... 298.15 K
Pressure            ... 1.00 atm
Total Mass          ... 251.24 AMU

Throughout the following assumptions are being made:
  (1) The electronic state is orbitally nondegenerate
  (2) There are no thermally accessible electronically excited states
  (3) Hindered rotations indicated by low frequency modes are not
      treated as such but are treated as vibrations and this may
      cause some error
  (4) All equations used are the standard statistical mechanics
      equations for an ideal gas
  (5) All vibrations are strictly harmonic

freq.      19.30  E(vib)   ...       0.57 
freq.      31.57  E(vib)   ...       0.55 
freq.      52.20  E(vib)   ...       0.52 
freq.      71.85  E(vib)   ...       0.50 
freq.     100.99  E(vib)   ...       0.46 
freq.     102.19  E(vib)   ...       0.46 
freq.     112.01  E(vib)   ...       0.45 
freq.     145.75  E(vib)   ...       0.41 
freq.     160.50  E(vib)   ...       0.39 
freq.     191.78  E(vib)   ...       0.36 
freq.     213.88  E(vib)   ...       0.34 
freq.     252.88  E(vib)   ...       0.30 
freq.     256.00  E(vib)   ...       0.30 
freq.     288.00  E(vib)   ...       0.27 
freq.     315.63  E(vib)   ...       0.25 
freq.     344.90  E(vib)   ...       0.23 
freq.     354.80  E(vib)   ...       0.22 
freq.     394.41  E(vib)   ...       0.20 
freq.     470.24  E(vib)   ...       0.16 
freq.     499.80  E(vib)   ...       0.14 
freq.     531.31  E(vib)   ...       0.13 
freq.     567.68  E(vib)   ...       0.11 
freq.     584.44  E(vib)   ...       0.11 
freq.     611.51  E(vib)   ...       0.10 
freq.     656.25  E(vib)   ...       0.08 
freq.     687.62  E(vib)   ...       0.07 
freq.     711.46  E(vib)   ...       0.07 
freq.     748.07  E(vib)   ...       0.06 
freq.     758.54  E(vib)   ...       0.06 
freq.     769.38  E(vib)   ...       0.06 
freq.     774.16  E(vib)   ...       0.05 
freq.     784.53  E(vib)   ...       0.05 
freq.     818.72  E(vib)   ...       0.05 
freq.     848.61  E(vib)   ...       0.04 
freq.     876.69  E(vib)   ...       0.04 
freq.     897.42  E(vib)   ...       0.03 
freq.     953.53  E(vib)   ...       0.03 
freq.     967.88  E(vib)   ...       0.03 
freq.     982.26  E(vib)   ...       0.02 
freq.     991.35  E(vib)   ...       0.02 
freq.    1021.92  E(vib)   ...       0.02 
freq.    1049.52  E(vib)   ...       0.02 
freq.    1070.81  E(vib)   ...       0.02 
freq.    1084.38  E(vib)   ...       0.02 
freq.    1098.26  E(vib)   ...       0.02 
freq.    1136.62  E(vib)   ...       0.01 
freq.    1170.79  E(vib)   ...       0.01 
freq.    1171.17  E(vib)   ...       0.01 
freq.    1174.98  E(vib)   ...       0.01 
freq.    1195.88  E(vib)   ...       0.01 
freq.    1205.18  E(vib)   ...       0.01 
freq.    1213.21  E(vib)   ...       0.01 
freq.    1229.08  E(vib)   ...       0.01 
freq.    1242.79  E(vib)   ...       0.01 
freq.    1258.93  E(vib)   ...       0.01 
freq.    1291.65  E(vib)   ...       0.01 
freq.    1305.14  E(vib)   ...       0.01 
freq.    1314.24  E(vib)   ...       0.01 
freq.    1329.18  E(vib)   ...       0.01 
freq.    1369.02  E(vib)   ...       0.01 
freq.    1385.62  E(vib)   ...       0.00 
freq.    1391.49  E(vib)   ...       0.00 
freq.    1465.52  E(vib)   ...       0.00 
freq.    1465.85  E(vib)   ...       0.00 
freq.    1469.38  E(vib)   ...       0.00 
freq.    1472.70  E(vib)   ...       0.00 
freq.    1473.92  E(vib)   ...       0.00 
freq.    1483.40  E(vib)   ...       0.00 
freq.    1497.97  E(vib)   ...       0.00 
freq.    1535.84  E(vib)   ...       0.00 
freq.    1648.85  E(vib)   ...       0.00 
freq.    1663.14  E(vib)   ...       0.00 
freq.    1740.54  E(vib)   ...       0.00 
freq.    1803.45  E(vib)   ...       0.00 
freq.    3037.63  E(vib)   ...       0.00 
freq.    3074.90  E(vib)   ...       0.00 
freq.    3104.90  E(vib)   ...       0.00 
freq.    3109.10  E(vib)   ...       0.00 
freq.    3141.63  E(vib)   ...       0.00 
freq.    3160.00  E(vib)   ...       0.00 
freq.    3166.55  E(vib)   ...       0.00 
freq.    3188.48  E(vib)   ...       0.00 
freq.    3193.65  E(vib)   ...       0.00 
freq.    3196.41  E(vib)   ...       0.00 
freq.    3214.03  E(vib)   ...       0.00 
freq.    3230.84  E(vib)   ...       0.00 
freq.    3279.12  E(vib)   ...       0.00 

------------
INNER ENERGY
------------

The inner energy is: U= E(el) + E(ZPE) + E(vib) + E(rot) + E(trans)
    E(el)   - is the total energy from the electronic structure calculation
              = E(kin-el) + E(nuc-el) + E(el-el) + E(nuc-nuc)
    E(ZPE)  - the the zero temperature vibrational energy from the frequency calculation
    E(vib)  - the the finite temperature correction to E(ZPE) due to population
              of excited vibrational states
    E(rot)  - is the rotational thermal energy
    E(trans)- is the translational thermal energy

Summary of contributions to the inner energy U:
Electronic energy                ...   -895.25069709 Eh
Zero point energy                ...      0.24246025 Eh     152.15 kcal/mol
Thermal vibrational correction   ...      0.01361558 Eh       8.54 kcal/mol
Thermal rotational correction    ...      0.00141627 Eh       0.89 kcal/mol
Thermal translational correction ...      0.00141627 Eh       0.89 kcal/mol
-----------------------------------------------------------------------
Total thermal energy                   -894.99178871 Eh


Summary of corrections to the electronic energy:
(perhaps to be used in another calculation)
Total thermal correction                  0.01644812 Eh      10.32 kcal/mol
Non-thermal (ZPE) correction              0.24246025 Eh     152.15 kcal/mol
-----------------------------------------------------------------------
Total correction                          0.25890838 Eh     162.47 kcal/mol


--------
ENTHALPY
--------

The enthalpy is H = U + kB*T
                kB is Boltzmann's constant
Total free energy                 ...   -894.99178871 Eh 
Thermal Enthalpy correction       ...      0.00094421 Eh       0.59 kcal/mol
-----------------------------------------------------------------------
Total Enthalpy                    ...   -894.99084450 Eh


Note: Only C1 symmetry has been detected, increase convergence thresholds 
      if your molecule has a higher symmetry. Symmetry factor of 1.0 is   
      used for the rotational entropy correction. 
 

Note: Rotational entropy computed according to Herzberg 
Infrared and Raman Spectra, Chapter V,1, Van Nostrand Reinhold, 1945 
Point Group:  C1, Symmetry Number:   1  
Rotational constants in cm-1:     0.019055     0.012120     0.007816 

Vibrational entropy computed according to the QRRHO of S. Grimme
Chem.Eur.J. 2012 18 9955


-------
ENTROPY
-------

The entropy contributions are T*S = T*(S(el)+S(vib)+S(rot)+S(trans))
     S(el)   - electronic entropy
     S(vib)  - vibrational entropy
     S(rot)  - rotational entropy
     S(trans)- translational entropy
The entropies will be listed as multiplied by the temperature to get
units of energy

Electronic entropy                ...      0.00000000 Eh      0.00 kcal/mol
Vibrational entropy               ...      0.02446480 Eh     15.35 kcal/mol
Rotational entropy                ...      0.01575416 Eh      9.89 kcal/mol
Translational entropy             ...      0.02017595 Eh     12.66 kcal/mol
-----------------------------------------------------------------------
Final entropy term                ...      0.06039491 Eh     37.90 kcal/mol

In case the symmetry of your molecule has not been determined correctly
or in case you have a reason to use a different symmetry number we print 
out the resulting rotational entropy values for sn=1,12 :
 --------------------------------------------------------
|  sn= 1 | S(rot)=       0.01575416 Eh      9.89 kcal/mol|
|  sn= 2 | S(rot)=       0.01509971 Eh      9.48 kcal/mol|
|  sn= 3 | S(rot)=       0.01471687 Eh      9.23 kcal/mol|
|  sn= 4 | S(rot)=       0.01444525 Eh      9.06 kcal/mol|
|  sn= 5 | S(rot)=       0.01423456 Eh      8.93 kcal/mol|
|  sn= 6 | S(rot)=       0.01406242 Eh      8.82 kcal/mol|
|  sn= 7 | S(rot)=       0.01391687 Eh      8.73 kcal/mol|
|  sn= 8 | S(rot)=       0.01379079 Eh      8.65 kcal/mol|
|  sn= 9 | S(rot)=       0.01367958 Eh      8.58 kcal/mol|
|  sn=10 | S(rot)=       0.01358010 Eh      8.52 kcal/mol|
|  sn=11 | S(rot)=       0.01349011 Eh      8.47 kcal/mol|
|  sn=12 | S(rot)=       0.01340796 Eh      8.41 kcal/mol|
 --------------------------------------------------------


-------------------
GIBBS FREE ENERGY
-------------------

The Gibbs free energy is G = H - T*S

Total enthalpy                    ...   -894.99084450 Eh 
Total entropy correction          ...     -0.06039491 Eh    -37.90 kcal/mol
-----------------------------------------------------------------------
Final Gibbs free energy         ...   -895.05123942 Eh

For completeness - the Gibbs free energy minus the electronic energy
G-E(el)                           ...      0.19945767 Eh    125.16 kcal/mol


Timings for individual modules:

Sum of individual times         ...     1688.527 sec (=  28.142 min)
GTO integral calculation        ...       18.305 sec (=   0.305 min)   1.1 %
SCF iterations                  ...      528.594 sec (=   8.810 min)  31.3 %
SCF Gradient evaluation         ...      144.289 sec (=   2.405 min)   8.5 %
Geometry relaxation             ...        0.999 sec (=   0.017 min)   0.1 %
Analytical frequency calculation...      996.340 sec (=  16.606 min)  59.0 %
                             ****ORCA TERMINATED NORMALLY****
TOTAL RUN TIME: 0 days 0 hours 28 minutes 34 seconds 400 msec
