
                                 *****************
                                 * O   R   C   A *
                                 *****************

                                            #,                                       
                                            ###                                      
                                            ####                                     
                                            #####                                    
                                            ######                                   
                                           ########,                                 
                                     ,,################,,,,,                         
                               ,,#################################,,                 
                          ,,##########################################,,             
                       ,#########################################, ''#####,          
                    ,#############################################,,   '####,        
                  ,##################################################,,,,####,       
                ,###########''''           ''''###############################       
              ,#####''   ,,,,##########,,,,          '''####'''          '####       
            ,##' ,,,,###########################,,,                        '##       
           ' ,,###''''                  '''############,,,                           
         ,,##''                                '''############,,,,        ,,,,,,###''
      ,#''                                            '''#######################'''  
     '                                                          ''''####''''         
             ,#######,   #######,   ,#######,      ##                                
            ,#'     '#,  ##    ##  ,#'     '#,    #''#        ######   ,####,        
            ##       ##  ##   ,#'  ##            #'  '#       #        #'  '#        
            ##       ##  #######   ##           ,######,      #####,   #    #        
            '#,     ,#'  ##    ##  '#,     ,#' ,#      #,         ##   #,  ,#        
             '#######'   ##     ##  '#######'  #'      '#     #####' # '####'        



                  #######################################################
                  #                        -***-                        #
                  #          Department of theory and spectroscopy      #
                  #    Directorship and core code : Frank Neese         #
                  #        Max Planck Institute fuer Kohlenforschung    #
                  #                Kaiser Wilhelm Platz 1               #
                  #                 D-45470 Muelheim/Ruhr               #
                  #                      Germany                        #
                  #                                                     #
                  #                  All rights reserved                #
                  #                        -***-                        #
                  #######################################################


                         Program Version 5.0.4 -  RELEASE  -


 With contributions from (in alphabetic order):
   Daniel Aravena         : Magnetic Suceptibility
   Michael Atanasov       : Ab Initio Ligand Field Theory (pilot matlab implementation)
   Alexander A. Auer      : GIAO ZORA, VPT2 properties, NMR spectrum
   Ute Becker             : Parallelization
   Giovanni Bistoni       : ED, misc. LED, open-shell LED, HFLD
   Martin Brehm           : Molecular dynamics
   Dmytro Bykov           : SCF Hessian
   Vijay G. Chilkuri      : MRCI spin determinant printing, contributions to CSF-ICE
   Dipayan Datta          : RHF DLPNO-CCSD density
   Achintya Kumar Dutta   : EOM-CC, STEOM-CC
   Dmitry Ganyushin       : Spin-Orbit,Spin-Spin,Magnetic field MRCI
   Miquel Garcia          : C-PCM and meta-GGA Hessian, CC/C-PCM, Gaussian charge scheme
   Yang Guo               : DLPNO-NEVPT2, F12-NEVPT2, CIM, IAO-localization
   Andreas Hansen         : Spin unrestricted coupled pair/coupled cluster methods
   Benjamin Helmich-Paris : MC-RPA, TRAH-SCF, COSX integrals
   Lee Huntington         : MR-EOM, pCC
   Robert Izsak           : Overlap fitted RIJCOSX, COSX-SCS-MP3, EOM
   Marcus Kettner         : VPT2
   Christian Kollmar      : KDIIS, OOCD, Brueckner-CCSD(T), CCSD density, CASPT2, CASPT2-K
   Simone Kossmann        : Meta GGA functionals, TD-DFT gradient, OOMP2, MP2 Hessian
   Martin Krupicka        : Initial AUTO-CI
   Lucas Lang             : DCDCAS
   Marvin Lechner         : AUTO-CI (C++ implementation), FIC-MRCC
   Dagmar Lenk            : GEPOL surface, SMD
   Dimitrios Liakos       : Extrapolation schemes; Compound Job, initial MDCI parallelization
   Dimitrios Manganas     : Further ROCIS development; embedding schemes
   Dimitrios Pantazis     : SARC Basis sets
   Anastasios Papadopoulos: AUTO-CI, single reference methods and gradients
   Taras Petrenko         : DFT Hessian,TD-DFT gradient, ASA, ECA, R-Raman, ABS, FL, XAS/XES, NRVS
   Peter Pinski           : DLPNO-MP2, DLPNO-MP2 Gradient
   Christoph Reimann      : Effective Core Potentials
   Marius Retegan         : Local ZFS, SOC
   Christoph Riplinger    : Optimizer, TS searches, QM/MM, DLPNO-CCSD(T), (RO)-DLPNO pert. Triples
   Tobias Risthaus        : Range-separated hybrids, TD-DFT gradient, RPA, STAB
   Michael Roemelt        : Original ROCIS implementation
   Masaaki Saitow         : Open-shell DLPNO-CCSD energy and density
   Barbara Sandhoefer     : DKH picture change effects
   Avijit Sen             : IP-ROCIS
   Kantharuban Sivalingam : CASSCF convergence, NEVPT2, FIC-MRCI
   Bernardo de Souza      : ESD, SOC TD-DFT
   Georgi Stoychev        : AutoAux, RI-MP2 NMR, DLPNO-MP2 response
   Willem Van den Heuvel  : Paramagnetic NMR
   Boris Wezisla          : Elementary symmetry handling
   Frank Wennmohs         : Technical directorship


 We gratefully acknowledge several colleagues who have allowed us to
 interface, adapt or use parts of their codes:
   Stefan Grimme, W. Hujo, H. Kruse, P. Pracht,  : VdW corrections, initial TS optimization,
                  C. Bannwarth, S. Ehlert          DFT functionals, gCP, sTDA/sTD-DF
   Ed Valeev, F. Pavosevic, A. Kumar             : LibInt (2-el integral package), F12 methods
   Garnet Chan, S. Sharma, J. Yang, R. Olivares  : DMRG
   Ulf Ekstrom                                   : XCFun DFT Library
   Mihaly Kallay                                 : mrcc  (arbitrary order and MRCC methods)
   Jiri Pittner, Ondrej Demel                    : Mk-CCSD
   Frank Weinhold                                : gennbo (NPA and NBO analysis)
   Christopher J. Cramer and Donald G. Truhlar   : smd solvation model
   Lars Goerigk                                  : TD-DFT with DH, B97 family of functionals
   V. Asgeirsson, H. Jonsson                     : NEB implementation
   FAccTs GmbH                                   : IRC, NEB, NEB-TS, DLPNO-Multilevel, CI-OPT
                                                   MM, QMMM, 2- and 3-layer-ONIOM, Crystal-QMMM,
                                                   LR-CPCM, SF, NACMEs, symmetry and pop. for TD-DFT,
                                                   nearIR, NL-DFT gradient (VV10), updates on ESD,
                                                   ML-optimized integration grids
   S Lehtola, MJT Oliveira, MAL Marques          : LibXC Library
   Liviu Ungur et al                             : ANISO software


 Your calculation uses the libint2 library for the computation of 2-el integrals
 For citations please refer to: http://libint.valeyev.net

 Your ORCA version has been built with support for libXC version: 5.1.0
 For citations please refer to: https://tddft.org/programs/libxc/

 This ORCA versions uses:
   CBLAS   interface :  Fast vector & matrix operations
   LAPACKE interface :  Fast linear algebra routines
   SCALAPACK package :  Parallel linear algebra routines
   Shared memory     :  Shared parallel matrices
   BLAS/LAPACK       :  OpenBLAS 0.3.15  USE64BITINT DYNAMIC_ARCH NO_AFFINITY Haswell SINGLE_THREADED
        Core in use  :  Haswell
   Copyright (c) 2011-2014, The OpenBLAS Project


Your calculation utilizes the atom-pairwise dispersion correction
with the Becke-Johnson damping scheme (D3BJ)
Cite in your paper:
S.Grimme, S.Ehrlich, L.Goerigk, J Comput Chem, (2011), 32, 1456–1465 
S.Grimme, J.Antony, S.Ehrlich and H.Krieg, J.Chem.Phys., 132, (2010), 154104 
   

================================================================================

----- Orbital basis set information -----
Your calculation utilizes the basis: def2-TZVP
   F. Weigend and R. Ahlrichs, Phys. Chem. Chem. Phys. 7, 3297 (2005).

----- AuxJ basis set information -----
Your calculation utilizes the auxiliary basis: def2/J
   F. Weigend, Phys. Chem. Chem. Phys. 8, 1057 (2006).

================================================================================
                                        WARNINGS
                       Please study these warnings very carefully!
================================================================================


WARNING: Geometry Optimization
  ===> : Switching off AutoStart
         For restart on a previous wavefunction, please use MOREAD

INFO   : the flag for use of the SHARK integral package has been found!

================================================================================
                                       INPUT FILE
================================================================================
NAME = 4_Me_free/4_Me_free.inp
|  1> %pal nprocs 24 end
|  2> %maxcore 3500
|  3> ! PBE0 D3BJ def2-TZVP TightSCF OPT FREQ TightOpt
|  4> ! CPCM(dmso)
|  5> %scf
|  6> MaxIter 800
|  7> end
|  8> %geom
|  9> MaxIter 800
| 10> MaxStep 0.2
| 11> end
| 12> *xyz 0 1
| 13> C       -1.505215000      0.847006000     -0.002200000
| 14> C       -1.919067000      1.741285000     -1.155594000
| 15> O       -3.035724000      2.146343000     -1.351081000
| 16> O       -0.872524000      1.995741000     -1.926177000
| 17> C       -1.120860000      2.775483000     -3.100995000
| 18> H       -0.585285000      1.227744000      0.450843000
| 19> H       -1.837495000      2.265615000     -3.745043000
| 20> H       -0.159887000      2.868512000     -3.599677000
| 21> C       -2.702541000     -1.142963000     -0.083190000
| 22> C       -1.357855000     -0.623849000     -0.460373000
| 23> C       -0.224489000     -1.363026000      0.208305000
| 24> C       -0.358768000     -1.893206000      1.482186000
| 25> C        0.692114000     -2.552386000      2.106534000
| 26> C        1.896496000     -2.687119000      1.437166000
| 27> C        2.057669000     -2.167023000      0.159981000
| 28> C        1.003603000     -1.499947000     -0.455157000
| 29> O        1.082180000     -0.950980000     -1.686613000
| 30> C        2.285967000     -1.107209000     -2.412973000
| 31> N       -3.308691000     -0.326239000      0.714400000
| 32> O       -4.389618000     -0.361964000      1.301131000
| 33> H       -1.216286000     -0.669046000     -1.541345000
| 34> H       -1.308568000     -1.791038000      1.997547000
| 35> H        0.565577000     -2.958059000      3.103013000
| 36> H        2.728604000     -3.199463000      1.906865000
| 37> H        3.007796000     -2.274945000     -0.345352000
| 38> H        3.123583000     -0.632490000     -1.894728000
| 39> H        2.125390000     -0.614120000     -3.369552000
| 40> H        2.511589000     -2.164508000     -2.579094000
| 41> O       -2.519962000      0.833284000      0.982175000
| 42> H       -1.505399000      3.757746000     -2.826871000
| 43> C       -3.296543000     -2.428863000     -0.492595000
| 44> H       -3.471523000     -2.439308000     -1.572388000
| 45> H       -2.608898000     -3.247696000     -0.264354000
| 46> H       -4.240084000     -2.600161000      0.023340000
| 47> *
| 48> 
| 49>                          ****END OF INPUT****
================================================================================

                       *****************************
                       * Geometry Optimization Run *
                       *****************************

Geometry optimization settings:
Update method            Update   .... BFGS
Choice of coordinates    CoordSys .... Z-matrix Internals
Initial Hessian          InHess   .... Almoef's Model

Convergence Tolerances:
Energy Change            TolE     ....  1.0000e-06 Eh
Max. Gradient            TolMAXG  ....  1.0000e-04 Eh/bohr
RMS Gradient             TolRMSG  ....  3.0000e-05 Eh/bohr
Max. Displacement        TolMAXD  ....  1.0000e-03 bohr
RMS Displacement         TolRMSD  ....  6.0000e-04 bohr
Strict Convergence                ....  False
------------------------------------------------------------------------------
                        ORCA OPTIMIZATION COORDINATE SETUP
------------------------------------------------------------------------------

The optimization will be done in new redundant internal coordinates
Making redundant internal coordinates   ...  (new redundants) done
Evaluating the initial hessian          ...  (Almloef) done
Evaluating the coordinates              ...  done
Calculating the B-matrix                .... done
Calculating the G-matrix                .... done
Diagonalizing the G-matrix              .... done
Small eigenvalue found = 4.475e-03
Small eigenvalue found = 1.099e-02
Small eigenvalue found = 1.687e-02
Small eigenvalue found = 2.187e-02
Small eigenvalue found = 2.559e-02
Small eigenvalue found = 2.996e-02
The first mode is                       ....   75
The number of degrees of freedom        ....   96

    -----------------------------------------------------------------
                    Redundant Internal Coordinates


    -----------------------------------------------------------------
         Definition                    Initial Value    Approx d2E/dq
    -----------------------------------------------------------------
      1. B(C   1,C   0)                  1.5170         0.391831   
      2. B(O   2,C   1)                  1.2038         1.108908   
      3. B(O   3,C   1)                  1.3243         0.712326   
      4. B(C   4,O   3)                  1.4317         0.480053   
      5. B(H   5,C   0)                  1.0938         0.355059   
      6. B(H   6,C   4)                  1.0901         0.359961   
      7. B(H   7,C   4)                  1.0866         0.364560   
      8. B(C   9,C   8)                  1.4899         0.432800   
      9. B(C   9,C   0)                  1.5476         0.350191   
     10. B(C  10,C   9)                  1.5093         0.403069   
     11. B(C  11,C  10)                  1.3863         0.633291   
     12. B(C  12,C  11)                  1.3888         0.627626   
     13. B(C  13,C  12)                  1.3845         0.637632   
     14. B(C  14,C  13)                  1.3884         0.628460   
     15. B(C  15,C  10)                  1.4025         0.596651   
     16. B(C  15,C  14)                  1.3908         0.622868   
     17. B(O  16,C  15)                  1.3506         0.646834   
     18. B(C  17,O  16)                  1.4146         0.511233   
     19. B(N  18,C   8)                  1.2925         0.800571   
     20. B(O  19,N  18)                  1.2304         0.900767   
     21. B(H  20,C   9)                  1.0911         0.358596   
     22. B(H  21,C  11)                  1.0854         0.366198   
     23. B(H  22,C  12)                  1.0833         0.369065   
     24. B(H  23,C  13)                  1.0842         0.367838   
     25. B(H  24,C  14)                  1.0815         0.371454   
     26. B(H  25,C  17)                  1.0934         0.355622   
     27. B(H  26,C  17)                  1.0881         0.362620   
     28. B(H  27,C  17)                  1.0938         0.355117   
     29. B(O  28,N  18)                  1.4277         0.436400   
     30. B(O  28,C   0)                  1.4138         0.512706   
     31. B(H  29,C   4)                  1.0899         0.360249   
     32. B(C  30,C   8)                  1.4744         0.458154   
     33. B(H  31,C  30)                  1.0939         0.354940   
     34. B(H  32,C  30)                  1.0934         0.355682   
     35. B(H  33,C  30)                  1.0889         0.361498   
     36. A(C   1,C   0,O  28)          109.8332         0.384480   
     37. A(C   9,C   0,O  28)          105.3815         0.377061   
     38. A(C   1,C   0,C   9)          111.1710         0.362302   
     39. A(C   1,C   0,H   5)          109.8248         0.326116   
     40. A(H   5,C   0,C   9)          111.9227         0.320162   
     41. A(H   5,C   0,O  28)          108.5800         0.338920   
     42. A(C   0,C   1,O   2)          125.0904         0.440850   
     43. A(O   2,C   1,O   3)          125.0219         0.488505   
     44. A(C   0,C   1,O   3)          109.8820         0.407311   
     45. A(C   1,O   3,C   4)          116.4255         0.419540   
     46. A(H   7,C   4,H  29)          110.5048         0.291421   
     47. A(O   3,C   4,H   6)          110.1264         0.335991   
     48. A(O   3,C   4,H   7)          105.6524         0.336702   
     49. A(O   3,C   4,H  29)          110.2214         0.336036   
     50. A(H   6,C   4,H   7)          110.5042         0.291385   
     51. A(H   6,C   4,H  29)          109.7666         0.290841   
     52. A(C   9,C   8,N  18)          111.0577         0.423277   
     53. A(N  18,C   8,C  30)          122.2419         0.427612   
     54. A(C   9,C   8,C  30)          126.6665         0.386053   
     55. A(C  10,C   9,H  20)          108.7351         0.328174   
     56. A(C   8,C   9,H  20)          110.6989         0.332058   
     57. A(C   0,C   9,H  20)          110.1829         0.320681   
     58. A(C   0,C   9,C  10)          113.9411         0.364057   
     59. A(C   8,C   9,C  10)          113.2609         0.377564   
     60. A(C   0,C   9,C   8)           99.8025         0.368524   
     61. A(C   9,C  10,C  11)          121.4438         0.403528   
     62. A(C  11,C  10,C  15)          118.8259         0.432727   
     63. A(C   9,C  10,C  15)          119.7192         0.399314   
     64. A(C  12,C  11,H  21)          119.5623         0.354648   
     65. A(C  10,C  11,C  12)          121.4218         0.436687   
     66. A(C  10,C  11,H  21)          119.0156         0.355189   
     67. A(C  13,C  12,H  22)          120.6574         0.356072   
     68. A(C  11,C  12,H  22)          120.1917         0.355117   
     69. A(C  11,C  12,C  13)          119.1505         0.437225   
     70. A(C  14,C  13,H  23)          119.1066         0.354997   
     71. A(C  12,C  13,H  23)          120.2770         0.355870   
     72. A(C  12,C  13,C  14)          120.6161         0.437330   
     73. A(C  13,C  14,C  15)          119.9032         0.435488   
     74. A(C  15,C  14,H  24)          120.4632         0.355047   
     75. A(C  13,C  14,H  24)          119.6303         0.355586   
     76. A(C  14,C  15,O  16)          123.6509         0.434886   
     77. A(C  10,C  15,O  16)          116.2690         0.431535   
     78. A(C  10,C  15,C  14)          120.0796         0.431438   
     79. A(C  15,O  16,C  17)          118.2167         0.417042   
     80. A(H  26,C  17,H  27)          109.5706         0.290522   
     81. A(H  25,C  17,H  27)          109.4902         0.289635   
     82. A(O  16,C  17,H  27)          111.1170         0.338767   
     83. A(H  25,C  17,H  26)          109.4501         0.290587   
     84. A(O  16,C  17,H  26)          106.0083         0.339952   
     85. A(O  16,C  17,H  25)          111.1355         0.338847   
     86. A(C   8,N  18,O  19)          133.4642         0.477067   
     87. A(O  19,N  18,O  28)          114.8014         0.424431   
     88. A(C   8,N  18,O  28)          111.7066         0.418361   
     89. A(C   0,O  28,N  18)          105.8910         0.386762   
     90. A(H  32,C  30,H  33)          109.1617         0.290453   
     91. A(H  31,C  30,H  33)          109.1215         0.290358   
     92. A(C   8,C  30,H  33)          110.7754         0.335660   
     93. A(H  31,C  30,H  32)          107.4278         0.289620   
     94. A(C   8,C  30,H  32)          109.9872         0.334756   
     95. A(C   8,C  30,H  31)          110.2946         0.334640   
     96. D(O   2,C   1,C   0,H   5)   -134.0591         0.011417   
     97. D(O   2,C   1,C   0,O  28)    -14.7128         0.011417   
     98. D(O   3,C   1,C   0,C   9)    -77.6391         0.011417   
     99. D(O   3,C   1,C   0,H   5)     46.7787         0.011417   
    100. D(O   3,C   1,C   0,O  28)    166.1250         0.011417   
    101. D(O   2,C   1,C   0,C   9)    101.5230         0.011417   
    102. D(C   4,O   3,C   1,O   2)     -2.2774         0.038128   
    103. D(C   4,O   3,C   1,C   0)    176.8855         0.038128   
    104. D(H   7,C   4,O   3,C   1)   -179.4795         0.018180   
    105. D(H   6,C   4,O   3,C   1)    -60.1320         0.018180   
    106. D(H  29,C   4,O   3,C   1)     61.1220         0.018180   
    107. D(C  10,C   9,C   0,C   1)    143.3575         0.009880   
    108. D(H  20,C   9,C   8,N  18)   -130.8805         0.013830   
    109. D(C   8,C   9,C   0,O  28)     23.3093         0.009880   
    110. D(C  10,C   9,C   8,C  30)    -71.2060         0.013830   
    111. D(C   8,C   9,C   0,C   1)    -95.6311         0.009880   
    112. D(C   0,C   9,C   8,C  30)    167.2930         0.013830   
    113. D(C   0,C   9,C   8,N  18)    -14.8039         0.013830   
    114. D(H  20,C   9,C   0,O  28)    139.7756         0.009880   
    115. D(H  20,C   9,C   0,C   1)     20.8352         0.009880   
    116. D(C  10,C   9,C   0,O  28)    -97.7021         0.009880   
    117. D(C  10,C   9,C   8,N  18)    106.6971         0.013830   
    118. D(C  10,C   9,C   0,H   5)     20.1338         0.009880   
    119. D(H  20,C   9,C   0,H   5)   -102.3886         0.009880   
    120. D(H  20,C   9,C   8,C  30)     51.2164         0.013830   
    121. D(C   8,C   9,C   0,H   5)    141.1452         0.009880   
    122. D(C  15,C  10,C   9,C   0)    -98.3326         0.012049   
    123. D(C  11,C  10,C   9,H  20)   -156.2460         0.012049   
    124. D(C  11,C  10,C   9,C   8)    -32.7384         0.012049   
    125. D(C  15,C  10,C   9,C   8)    148.4876         0.012049   
    126. D(C  11,C  10,C   9,C   0)     80.4414         0.012049   
    127. D(C  15,C  10,C   9,H  20)     24.9799         0.012049   
    128. D(H  21,C  11,C  10,C  15)   -179.8584         0.027826   
    129. D(H  21,C  11,C  10,C   9)      1.3569         0.027826   
    130. D(C  12,C  11,C  10,C  15)     -0.0448         0.027826   
    131. D(C  12,C  11,C  10,C   9)   -178.8295         0.027826   
    132. D(H  22,C  12,C  11,H  21)     -0.2597         0.027299   
    133. D(H  22,C  12,C  11,C  10)    179.9276         0.027299   
    134. D(C  13,C  12,C  11,H  21)    179.4901         0.027299   
    135. D(C  13,C  12,C  11,C  10)     -0.3226         0.027299   
    136. D(H  23,C  13,C  12,H  22)     -0.1744         0.028234   
    137. D(H  23,C  13,C  12,C  11)   -179.9230         0.028234   
    138. D(C  14,C  13,C  12,H  22)    179.9908         0.028234   
    139. D(C  14,C  13,C  12,C  11)      0.2422         0.028234   
    140. D(H  24,C  14,C  13,H  23)     -0.2933         0.027376   
    141. D(H  24,C  14,C  13,C  12)    179.5434         0.027376   
    142. D(C  15,C  14,C  13,H  23)   -179.6320         0.027376   
    143. D(C  15,C  14,C  13,C  12)      0.2047         0.027376   
    144. D(O  16,C  15,C  14,H  24)     -0.1786         0.026861   
    145. D(C  10,C  15,C  14,H  24)   -179.9098         0.026861   
    146. D(C  10,C  15,C  14,C  13)     -0.5767         0.026861   
    147. D(O  16,C  15,C  10,C  11)   -179.2553         0.024527   
    148. D(O  16,C  15,C  10,C   9)     -0.4492         0.024527   
    149. D(O  16,C  15,C  14,C  13)    179.1545         0.026861   
    150. D(C  14,C  15,C  10,C  11)      0.4952         0.024527   
    151. D(C  14,C  15,C  10,C   9)    179.3013         0.024527   
    152. D(C  17,O  16,C  15,C  14)      2.5392         0.030897   
    153. D(C  17,O  16,C  15,C  10)   -177.7202         0.030897   
    154. D(H  27,C  17,O  16,C  15)     59.8574         0.020694   
    155. D(H  26,C  17,O  16,C  15)    178.8287         0.020694   
    156. D(H  25,C  17,O  16,C  15)    -62.3347         0.020694   
    157. D(O  19,N  18,C   8,C  30)      0.8188         0.054651   
    158. D(O  19,N  18,C   8,C   9)   -177.1927         0.054651   
    159. D(O  28,N  18,C   8,C  30)    178.7474         0.054651   
    160. D(O  28,N  18,C   8,C   9)      0.7360         0.054651   
    161. D(C   0,O  28,N  18,O  19)   -166.2255         0.015826   
    162. D(C   0,O  28,N  18,C   8)     15.4305         0.015826   
    163. D(N  18,O  28,C   0,C   9)    -23.9568         0.020818   
    164. D(N  18,O  28,C   0,H   5)   -144.0224         0.020818   
    165. D(N  18,O  28,C   0,C   1)     95.8720         0.020818   
    166. D(H  33,C  30,C   8,N  18)     -4.3293         0.015476   
    167. D(H  33,C  30,C   8,C   9)    173.3570         0.015476   
    168. D(H  32,C  30,C   8,N  18)   -125.0961         0.015476   
    169. D(H  32,C  30,C   8,C   9)     52.5902         0.015476   
    170. D(H  31,C  30,C   8,N  18)    116.5903         0.015476   
    171. D(H  31,C  30,C   8,C   9)    -65.7234         0.015476   
    -----------------------------------------------------------------

Number of atoms                         .... 34
Number of degrees of freedom            .... 171

         *************************************************************
         *                GEOMETRY OPTIMIZATION CYCLE   1            *
         *************************************************************
---------------------------------
CARTESIAN COORDINATES (ANGSTROEM)
---------------------------------
  C     -1.505215    0.847006   -0.002200
  C     -1.919067    1.741285   -1.155594
  O     -3.035724    2.146343   -1.351081
  O     -0.872524    1.995741   -1.926177
  C     -1.120860    2.775483   -3.100995
  H     -0.585285    1.227744    0.450843
  H     -1.837495    2.265615   -3.745043
  H     -0.159887    2.868512   -3.599677
  C     -2.702541   -1.142963   -0.083190
  C     -1.357855   -0.623849   -0.460373
  C     -0.224489   -1.363026    0.208305
  C     -0.358768   -1.893206    1.482186
  C      0.692114   -2.552386    2.106534
  C      1.896496   -2.687119    1.437166
  C      2.057669   -2.167023    0.159981
  C      1.003603   -1.499947   -0.455157
  O      1.082180   -0.950980   -1.686613
  C      2.285967   -1.107209   -2.412973
  N     -3.308691   -0.326239    0.714400
  O     -4.389618   -0.361964    1.301131
  H     -1.216286   -0.669046   -1.541345
  H     -1.308568   -1.791038    1.997547
  H      0.565577   -2.958059    3.103013
  H      2.728604   -3.199463    1.906865
  H      3.007796   -2.274945   -0.345352
  H      3.123583   -0.632490   -1.894728
  H      2.125390   -0.614120   -3.369552
  H      2.511589   -2.164508   -2.579094
  O     -2.519962    0.833284    0.982175
  H     -1.505399    3.757746   -2.826871
  C     -3.296543   -2.428863   -0.492595
  H     -3.471523   -2.439308   -1.572388
  H     -2.608898   -3.247696   -0.264354
  H     -4.240084   -2.600161    0.023340

----------------------------
CARTESIAN COORDINATES (A.U.)
----------------------------
  NO LB      ZA    FRAG     MASS         X           Y           Z
   0 C     6.0000    0    12.011   -2.844444    1.600609   -0.004157
   1 C     6.0000    0    12.011   -3.626511    3.290552   -2.183756
   2 O     8.0000    0    15.999   -5.736687    4.056000   -2.553173
   3 O     8.0000    0    15.999   -1.648831    3.771404   -3.639947
   4 C     6.0000    0    12.011   -2.118118    5.244903   -5.860031
   5 H     1.0000    0     1.008   -1.106028    2.320100    0.851970
   6 H     1.0000    0     1.008   -3.472362    4.281392   -7.077106
   7 H     1.0000    0     1.008   -0.302143    5.420702   -6.802404
   8 C     6.0000    0    12.011   -5.107062   -2.159887   -0.157206
   9 C     6.0000    0    12.011   -2.565974   -1.178904   -0.869979
  10 C     6.0000    0    12.011   -0.424223   -2.575746    0.393639
  11 C     6.0000    0    12.011   -0.677973   -3.577641    2.800926
  12 C     6.0000    0    12.011    1.307906   -4.823311    3.980772
  13 C     6.0000    0    12.011    3.583858   -5.077919    2.715850
  14 C     6.0000    0    12.011    3.888431   -4.095080    0.302320
  15 C     6.0000    0    12.011    1.896535   -2.834489   -0.860122
  16 O     8.0000    0    15.999    2.045024   -1.797092   -3.187237
  17 C     6.0000    0    12.011    4.319852   -2.092322   -4.559858
  18 N     7.0000    0    14.007   -6.252520   -0.616502    1.350020
  19 O     8.0000    0    15.999   -8.295176   -0.684013    2.458781
  20 H     1.0000    0     1.008   -2.298447   -1.264314   -2.912720
  21 H     1.0000    0     1.008   -2.472835   -3.384571    3.774817
  22 H     1.0000    0     1.008    1.068786   -5.589921    5.863845
  23 H     1.0000    0     1.008    5.156314   -6.046109    3.603453
  24 H     1.0000    0     1.008    5.683911   -4.299023   -0.652621
  25 H     1.0000    0     1.008    5.902716   -1.195233   -3.580517
  26 H     1.0000    0     1.008    4.016405   -1.160519   -6.367530
  27 H     1.0000    0     1.008    4.746215   -4.090327   -4.873781
  28 O     8.0000    0    15.999   -4.762038    1.574679    1.856042
  29 H     1.0000    0     1.008   -2.844792    7.101111   -5.342012
  30 C     6.0000    0    12.011   -6.229563   -4.589886   -0.930870
  31 H     1.0000    0     1.008   -6.560228   -4.609624   -2.971383
  32 H     1.0000    0     1.008   -4.930103   -6.137256   -0.499557
  33 H     1.0000    0     1.008   -8.012598   -4.913592    0.044106

--------------------------------
INTERNAL COORDINATES (ANGSTROEM)
--------------------------------
 C      0   0   0     0.000000000000     0.00000000     0.00000000
 C      1   0   0     1.517012236925     0.00000000     0.00000000
 O      2   1   0     1.203831386109   125.09037710     0.00000000
 O      2   1   3     1.324310487263   109.88197441   180.83783044
 C      4   2   1     1.431735201978   116.42546267   176.88551185
 H      1   2   3     1.093837551647   109.82481433   225.94090741
 H      5   4   2     1.090105007306   110.12642567   299.86802945
 H      5   4   2     1.086649547321   105.65243051   180.52045895
 C      1   2   3     2.323817021914   109.73988850    59.60960259
 C      9   1   2     1.489941877753    41.01438104    99.61748039
 C     10   9   1     1.509314876018   113.26091749   121.50101521
 C     11  10   9     1.386324090681   121.44381617   327.26164499
 C     12  11  10     1.388769842497   121.42181616   181.17049992
 C     13  12  11     1.384464698949   119.15047631   359.67740842
 C     14  13  12     1.388408480733   120.61613324     0.24222179
 C     15  14  13     1.390841572997   119.90320871     0.20466744
 O     16  15  14     1.350563953300   123.65094412   179.15450757
 C     17  16  15     1.414605772436   118.21668203     2.53915168
 N      9   1   2     1.292519138263    71.27770501   265.03515221
 O     19   9   1     1.230419733796   133.46418429   172.60951056
 H     10   9   1     1.091139319864   110.69892958   243.92338858
 H     12  11  10     1.085428625265   119.01564052     1.35685659
 H     13  12  11     1.083306324517   120.19166193   179.92761034
 H     14  13  12     1.084212732171   120.27704577   180.07695273
 H     15  14  13     1.081549774676   119.63025711   179.54337195
 H     18  17  16     1.093405950433   111.13546335   297.66531453
 H     18  17  16     1.088101612025   106.00831800   178.82867287
 H     18  17  16     1.093792781529   111.11696390    59.85737223
 O      1   2   3     1.413822445683   109.83316898   345.28721041
 H      5   4   2     1.089887522209   110.22140252    61.12197991
 C      9   1   2     1.474445536474   164.59701943    57.98938354
 H     31   9   1     1.093928709411   110.29456683   327.19763369
 H     31   9   1     1.093360453828   109.98717957    85.51123464
 H     31   9   1     1.088945153674   110.77536773   206.27805197

---------------------------
INTERNAL COORDINATES (A.U.)
---------------------------
 C      0   0   0     0.000000000000     0.00000000     0.00000000
 C      1   0   0     2.866737669596     0.00000000     0.00000000
 O      2   1   0     2.274911631166   125.09037710     0.00000000
 O      2   1   3     2.502584137206   109.88197441   180.83783044
 C      4   2   1     2.705587428034   116.42546267   176.88551185
 H      1   2   3     2.067053407612   109.82481433   225.94090741
 H      5   4   2     2.059999921024   110.12642567   299.86802945
 H      5   4   2     2.053470047987   105.65243051   180.52045895
 C      1   2   3     4.391377756762   109.73988850    59.60960259
 C      9   1   2     2.815582104413    41.01438104    99.61748039
 C     10   9   1     2.852191765527   113.26091749   121.50101521
 C     11  10   9     2.619772864244   121.44381617   327.26164499
 C     12  11  10     2.624394665368   121.42181616   181.17049992
 C     13  12  11     2.616259123096   119.15047631   359.67740842
 C     14  13  12     2.623711790598   120.61613324     0.24222179
 C     15  14  13     2.628309668636   119.90320871     0.20466744
 O     16  15  14     2.552195998083   123.65094412   179.15450757
 C     17  16  15     2.673217497369   118.21668203     2.53915168
 N      9   1   2     2.442507194169    71.27770501   265.03515221
 O     19   9   1     2.325156326647   133.46418429   172.60951056
 H     10   9   1     2.061954488497   110.69892958   243.92338858
 H     12  11  10     2.051162839670   119.01564052     1.35685659
 H     13  12  11     2.047152272482   120.19166193   179.92761034
 H     14  13  12     2.048865134713   120.27704577   180.07695273
 H     15  14  13     2.043832874342   119.63025711   179.54337195
 H     18  17  16     2.066237799518   111.13546335   297.66531453
 H     18  17  16     2.056214052605   106.00831800   178.82867287
 H     18  17  16     2.066968804351   111.11696390    59.85737223
 O      1   2   3     2.671737224332   109.83316898   345.28721041
 H      5   4   2     2.059588933752   110.22140252    61.12197991
 C      9   1   2     2.786298263319   164.59701943    57.98938354
 H     31   9   1     2.067225670821   110.29456683   327.19763369
 H     31   9   1     2.066151823395   109.98717957    85.51123464
 H     31   9   1     2.057808115305   110.77536773   206.27805197

---------------------
BASIS SET INFORMATION
---------------------
There are 4 groups of distinct atoms

 Group   1 Type C   : 11s6p2d1f contracted to 5s3p2d1f pattern {62111/411/11/1}
 Group   2 Type O   : 11s6p2d1f contracted to 5s3p2d1f pattern {62111/411/11/1}
 Group   3 Type H   : 5s1p contracted to 3s1p pattern {311/1}
 Group   4 Type N   : 11s6p2d1f contracted to 5s3p2d1f pattern {62111/411/11/1}

Atom   0C    basis set group =>   1
Atom   1C    basis set group =>   1
Atom   2O    basis set group =>   2
Atom   3O    basis set group =>   2
Atom   4C    basis set group =>   1
Atom   5H    basis set group =>   3
Atom   6H    basis set group =>   3
Atom   7H    basis set group =>   3
Atom   8C    basis set group =>   1
Atom   9C    basis set group =>   1
Atom  10C    basis set group =>   1
Atom  11C    basis set group =>   1
Atom  12C    basis set group =>   1
Atom  13C    basis set group =>   1
Atom  14C    basis set group =>   1
Atom  15C    basis set group =>   1
Atom  16O    basis set group =>   2
Atom  17C    basis set group =>   1
Atom  18N    basis set group =>   4
Atom  19O    basis set group =>   2
Atom  20H    basis set group =>   3
Atom  21H    basis set group =>   3
Atom  22H    basis set group =>   3
Atom  23H    basis set group =>   3
Atom  24H    basis set group =>   3
Atom  25H    basis set group =>   3
Atom  26H    basis set group =>   3
Atom  27H    basis set group =>   3
Atom  28O    basis set group =>   2
Atom  29H    basis set group =>   3
Atom  30C    basis set group =>   1
Atom  31H    basis set group =>   3
Atom  32H    basis set group =>   3
Atom  33H    basis set group =>   3
---------------------------------
AUXILIARY/J BASIS SET INFORMATION
---------------------------------
There are 4 groups of distinct atoms

 Group   1 Type C   : 12s5p4d2f1g contracted to 6s4p3d1f1g pattern {711111/2111/211/2/1}
 Group   2 Type O   : 12s5p4d2f1g contracted to 6s4p3d1f1g pattern {711111/2111/211/2/1}
 Group   3 Type H   : 5s2p1d contracted to 3s1p1d pattern {311/2/1}
 Group   4 Type N   : 12s5p4d2f1g contracted to 6s4p3d1f1g pattern {711111/2111/211/2/1}

Atom   0C    basis set group =>   1
Atom   1C    basis set group =>   1
Atom   2O    basis set group =>   2
Atom   3O    basis set group =>   2
Atom   4C    basis set group =>   1
Atom   5H    basis set group =>   3
Atom   6H    basis set group =>   3
Atom   7H    basis set group =>   3
Atom   8C    basis set group =>   1
Atom   9C    basis set group =>   1
Atom  10C    basis set group =>   1
Atom  11C    basis set group =>   1
Atom  12C    basis set group =>   1
Atom  13C    basis set group =>   1
Atom  14C    basis set group =>   1
Atom  15C    basis set group =>   1
Atom  16O    basis set group =>   2
Atom  17C    basis set group =>   1
Atom  18N    basis set group =>   4
Atom  19O    basis set group =>   2
Atom  20H    basis set group =>   3
Atom  21H    basis set group =>   3
Atom  22H    basis set group =>   3
Atom  23H    basis set group =>   3
Atom  24H    basis set group =>   3
Atom  25H    basis set group =>   3
Atom  26H    basis set group =>   3
Atom  27H    basis set group =>   3
Atom  28O    basis set group =>   2
Atom  29H    basis set group =>   3
Atom  30C    basis set group =>   1
Atom  31H    basis set group =>   3
Atom  32H    basis set group =>   3
Atom  33H    basis set group =>   3


           ************************************************************
           *        Program running with 24 parallel MPI-processes    *
           *              working on a common directory               *
           ************************************************************
------------------------------------------------------------------------------
                           ORCA GTO INTEGRAL CALCULATION
                           -- RI-GTO INTEGRALS CHOSEN --
------------------------------------------------------------------------------
------------------------------------------------------------------------------
                   ___                                                        
                  /   \      - P O W E R E D   B Y -                         
                 /     \                                                     
                 |  |  |   _    _      __       _____    __    __             
                 |  |  |  | |  | |    /  \     |  _  \  |  |  /  |          
                  \  \/   | |  | |   /    \    | | | |  |  | /  /          
                 / \  \   | |__| |  /  /\  \   | |_| |  |  |/  /          
                |  |  |   |  __  | /  /__\  \  |    /   |      \           
                |  |  |   | |  | | |   __   |  |    \   |  |\   \          
                \     /   | |  | | |  |  |  |  | |\  \  |  | \   \       
                 \___/    |_|  |_| |__|  |__|  |_| \__\ |__|  \__/        
                                                                              
                      - O R C A' S   B I G   F R I E N D -                    
                                      &                                       
                       - I N T E G R A L  F E E D E R -                       
                                                                              
 v1 FN, 2020, v2 2021                                                         
------------------------------------------------------------------------------


Reading SHARK input file 4_Me_free/4_Me_free.SHARKINP.tmp ... ok
----------------------
SHARK INTEGRAL PACKAGE
----------------------

Number of atoms                             ...     34
Number of basis functions                   ...    679
Number of shells                            ...    269
Maximum angular momentum                    ...      3
Integral batch strategy                     ... SHARK/LIBINT Hybrid
RI-J (if used) integral strategy            ... SPLIT-RIJ (Revised 2003 algorithm where possible)
Printlevel                                  ...      1
Contraction scheme used                     ... SEGMENTED contraction
Coulomb Range Separation                    ... NOT USED
Exchange Range Separation                   ... NOT USED
Finite Nucleus Model                        ... NOT USED
Auxiliary Coulomb fitting basis             ... AVAILABLE
   # of basis functions in Aux-J            ...   1096
   # of shells in Aux-J                     ...    360
   Maximum angular momentum in Aux-J        ...      4
Auxiliary J/K fitting basis                 ... NOT available
Auxiliary Correlation fitting basis         ... NOT available
Auxiliary 'external' fitting basis          ... NOT available
Integral threshold                          ...     2.500000e-11
Primitive cut-off                           ...     2.500000e-12
Primitive pair pre-selection threshold      ...     2.500000e-12

Calculating pre-screening integrals         ... done (  0.1 sec) Dimension = 269
Organizing shell pair data                  ... done (  0.3 sec)
Shell pair information
Total number of shell pairs                 ...     36315
Shell pairs after pre-screening             ...     27477
Total number of primitive shell pairs       ...    111148
Primitive shell pairs kept                  ...     56632
          la=0 lb=0:   7178 shell pairs
          la=1 lb=0:   7853 shell pairs
          la=1 lb=1:   2185 shell pairs
          la=2 lb=0:   3925 shell pairs
          la=2 lb=1:   2197 shell pairs
          la=2 lb=2:    579 shell pairs
          la=3 lb=0:   1860 shell pairs
          la=3 lb=1:   1045 shell pairs
          la=3 lb=2:    521 shell pairs
          la=3 lb=3:    134 shell pairs

Calculating one electron integrals          ... done (  0.0 sec)
Calculating RI/J V-Matrix + Cholesky decomp.... done (  0.2 sec)
Calculating Nuclear repulsion               ... done (  0.0 sec) ENN=   1515.555102080879 Eh

SHARK setup successfully completed in   1.2 seconds

Maximum memory used throughout the entire GTOINT-calculation: 42.7 MB


           ************************************************************
           *        Program running with 24 parallel MPI-processes    *
           *              working on a common directory               *
           ************************************************************
-------------------------------------------------------------------------------
                                 ORCA SCF
-------------------------------------------------------------------------------

------------
SCF SETTINGS
------------
Hamiltonian:
 Density Functional     Method          .... DFT(GTOs)
 Exchange Functional    Exchange        .... PBE
   PBE kappa parameter   XKappa         ....  0.804000
   PBE mue parameter    XMuePBE         ....  0.219520
 Correlation Functional Correlation     .... PBE
   PBE beta parameter  CBetaPBE         ....  0.066725
 LDA part of GGA corr.  LDAOpt          .... PW91-LDA
 Gradients option       PostSCFGGA      .... off
 Hybrid DFT is turned on
   Fraction HF Exchange ScalHFX         ....  0.250000
   Scaling of DF-GGA-X  ScalDFX         ....  0.750000
   Scaling of DF-GGA-C  ScalDFC         ....  1.000000
   Scaling of DF-LDA-C  ScalLDAC        ....  1.000000
   Perturbative correction              ....  0.000000
   Density functional embedding theory  .... OFF
   NL short-range parameter             ....  6.900000
 RI-approximation to the Coulomb term is turned on
   Number of AuxJ basis functions       .... 1096
   RIJ-COSX (HFX calculated with COS-X)).... on


General Settings:
 Integral files         IntName         .... 4_Me_free/4_Me_free
 Hartree-Fock type      HFTyp           .... RHF
 Total Charge           Charge          ....    0
 Multiplicity           Mult            ....    1
 Number of Electrons    NEL             ....  140
 Basis Dimension        Dim             ....  679
 Nuclear Repulsion      ENuc            ....   1515.5551020809 Eh

Convergence Acceleration:
 DIIS                   CNVDIIS         .... on
   Start iteration      DIISMaxIt       ....    12
   Startup error        DIISStart       ....  0.200000
   # of expansion vecs  DIISMaxEq       ....     5
   Bias factor          DIISBfac        ....   1.050
   Max. coefficient     DIISMaxC        ....  10.000
 Trust-Rad. Augm. Hess. CNVTRAH         .... auto
   Auto Start mean grad. ratio tolernc. ....  1.125000
   Auto Start start iteration           ....    20
   Auto Start num. interpolation iter.  ....    10
   Max. Number of Micro iterations      ....    16
   Max. Number of Macro iterations      .... Maxiter - #DIIS iter
   Number of Davidson start vectors     ....     2
   Converg. threshold I  (grad. norm)   ....   1.000e-05
   Converg. threshold II (energy diff.) ....   1.000e-08
   Grad. Scal. Fac. for Micro threshold ....   0.100
   Minimum threshold for Micro iter.    ....   0.010
   NR start threshold (gradient norm)   ....   0.001
   Initial trust radius                 ....   0.400
   Minimum AH scaling param. (alpha)    ....   1.000
   Maximum AH scaling param. (alpha)    .... 1000.000
   Orbital update algorithm             .... Taylor
   White noise on init. David. guess    .... on
   Maximum white noise                  ....   0.010
   Quad. conv. algorithm                .... NR
 SOSCF                  CNVSOSCF        .... on
   Start iteration      SOSCFMaxIt      ....   150
   Startup grad/error   SOSCFStart      ....  0.003300
 Level Shifting         CNVShift        .... on
   Level shift para.    LevelShift      ....    0.2500
   Turn off err/grad.   ShiftErr        ....    0.0010
 Zerner damping         CNVZerner       .... off
 Static damping         CNVDamp         .... on
   Fraction old density DampFac         ....    0.7000
   Max. Damping (<1)    DampMax         ....    0.9800
   Min. Damping (>=0)   DampMin         ....    0.0000
   Turn off err/grad.   DampErr         ....    0.1000
 Fernandez-Rico         CNVRico         .... off

SCF Procedure:
 Maximum # iterations   MaxIter         ....   800
 SCF integral mode      SCFMode         .... Direct
   Integral package                     .... SHARK and LIBINT hybrid scheme
 Reset frequency        DirectResetFreq ....    20
 Integral Threshold     Thresh          ....  2.500e-11 Eh
 Primitive CutOff       TCut            ....  2.500e-12 Eh

Convergence Tolerance:
 Convergence Check Mode ConvCheckMode   .... Total+1el-Energy
 Convergence forced     ConvForced      .... 0
 Energy Change          TolE            ....  1.000e-08 Eh
 1-El. energy change                    ....  1.000e-05 Eh
 Orbital Gradient       TolG            ....  1.000e-05
 Orbital Rotation angle TolX            ....  1.000e-05
 DIIS Error             TolErr          ....  5.000e-07


Diagonalization of the overlap matrix:
Smallest eigenvalue                        ... 6.448e-06
Time for diagonalization                   ...    0.139 sec
Threshold for overlap eigenvalues          ... 1.000e-08
Number of eigenvalues below threshold      ... 0
Time for construction of square roots      ...    0.084 sec
Total time needed                          ...    0.227 sec

Time for model grid setup =    0.261 sec

------------------------------
INITIAL GUESS: MODEL POTENTIAL
------------------------------
Loading Hartree-Fock densities                     ... done
Calculating cut-offs                               ... done
Initializing the effective Hamiltonian             ... done
Setting up the integral package (SHARK)            ... done
Starting the Coulomb interaction                   ... done (   0.3 sec)
Reading the grid                                   ... done
Mapping shells                                     ... done
Starting the XC term evaluation                    ... done (   0.1 sec)
  promolecular density results
     # of electrons  =    139.991104558
     EX              =   -118.312570706
     EC              =     -4.736411300
     EX+EC           =   -123.048982005
Transforming the Hamiltonian                       ... done (   0.1 sec)
Diagonalizing the Hamiltonian                      ... done (   0.1 sec)
Back transforming the eigenvectors                 ... done (   0.0 sec)
Now organizing SCF variables                       ... done
                      ------------------
                      INITIAL GUESS DONE (   1.0 sec)
                      ------------------
-------------------
DFT GRID GENERATION
-------------------

General Integration Accuracy     IntAcc      ... 4.388
Radial Grid Type                 RadialGrid  ... OptM3 with GC (2021)
Angular Grid (max. ang.)         AngularGrid ... 4 (Lebedev-302)
Angular grid pruning method      GridPruning ... 4 (adaptive)
Weight generation scheme         WeightScheme... Becke
Basis function cutoff            BFCut       ... 1.0000e-11
Integration weight cutoff        WCut        ... 1.0000e-14
Angular grids for H and He will be reduced by one unit
Partially contracted basis set               ... off
Rotationally invariant grid construction     ... off

Total number of grid points                  ...   161704
Total number of batches                      ...     2546
Average number of points per batch           ...       63
Average number of grid points per atom       ...     4756
Time for grid setup =    1.034 sec

--------------------
COSX GRID GENERATION
--------------------

GRIDX 1
-------
General Integration Accuracy     IntAcc      ... 3.816
Radial Grid Type                 RadialGrid  ... OptM3 with GC (2021)
Angular Grid (max. ang.)         AngularGrid ... 1 (Lebedev-50)
Angular grid pruning method      GridPruning ... 4 (adaptive)
Weight generation scheme         WeightScheme... Becke
Basis function cutoff            BFCut       ... 1.0000e-11
Integration weight cutoff        WCut        ... 1.0000e-14
Angular grids for H and He will be reduced by one unit
Partially contracted basis set               ... on
Rotationally invariant grid construction     ... off

Total number of grid points                  ...    20561
Total number of batches                      ...      337
Average number of points per batch           ...       61
Average number of grid points per atom       ...      605
UseSFitting                                  ... on

GRIDX 2
-------
General Integration Accuracy     IntAcc      ... 4.020
Radial Grid Type                 RadialGrid  ... OptM3 with GC (2021)
Angular Grid (max. ang.)         AngularGrid ... 2 (Lebedev-110)
Angular grid pruning method      GridPruning ... 4 (adaptive)
Weight generation scheme         WeightScheme... Becke
Basis function cutoff            BFCut       ... 1.0000e-11
Integration weight cutoff        WCut        ... 1.0000e-14
Angular grids for H and He will be reduced by one unit
Partially contracted basis set               ... on
Rotationally invariant grid construction     ... off

Total number of grid points                  ...    44627
Total number of batches                      ...      713
Average number of points per batch           ...       62
Average number of grid points per atom       ...     1313
UseSFitting                                  ... on

GRIDX 3
-------
General Integration Accuracy     IntAcc      ... 4.338
Radial Grid Type                 RadialGrid  ... OptM3 with GC (2021)
Angular Grid (max. ang.)         AngularGrid ... 3 (Lebedev-194)
Angular grid pruning method      GridPruning ... 4 (adaptive)
Weight generation scheme         WeightScheme... Becke
Basis function cutoff            BFCut       ... 1.0000e-11
Integration weight cutoff        WCut        ... 1.0000e-14
Angular grids for H and He will be reduced by one unit
Partially contracted basis set               ... on
Rotationally invariant grid construction     ... off

Total number of grid points                  ...    97580
Total number of batches                      ...     1542
Average number of points per batch           ...       63
Average number of grid points per atom       ...     2870
UseSFitting                                  ... on

Time for X-Grid setup             =    1.667 sec


--------------------
CPCM SOLVATION MODEL
--------------------
CPCM parameters:
  Epsilon                                         ...      47.2000
  Refrac                                          ...       1.4790
  Rsolv                                           ...       1.3000
  Surface type                                    ... GAUSSIAN VDW
  Epsilon function type                           ...         CPCM
Radii:
 Radius for C  used is    3.8550 Bohr (=   2.0400 Ang.)
 Radius for O  used is    3.4469 Bohr (=   1.8240 Ang.)
 Radius for H  used is    2.4944 Bohr (=   1.3200 Ang.)
 Radius for N  used is    3.5149 Bohr (=   1.8600 Ang.)
Calculating surface                               ...        done! (  0.0s)
GEPOL surface points                              ...         1801
GEPOL Volume                                      ...    2052.6200
GEPOL Surface-area                                ...    1080.4501
Calculating surface distance matrix               ...        done! (  0.0s)
Performing Cholesky decomposition & store         ...        done! (  0.2s)
Overall time for CPCM initialization              ...                 0.3s
--------------
SCF ITERATIONS
--------------
ITER       Energy         Delta-E        Max-DP      RMS-DP      [F,P]     Damp
               ***  Starting incremental Fock matrix formation  ***
  0   -934.0782946958   0.000000000000 0.15061212  0.00083053  0.2706681 0.7000
  1   -934.2740967761  -0.195802080313 0.14811548  0.00074176  0.1092812 0.7000
                               ***Turning on DIIS***
  2   -934.3521413212  -0.078044545067 0.25173451  0.00138623  0.0369313 0.0000
  3   -934.4817400883  -0.129598767113 0.08196421  0.00047075  0.0531632 0.0000
  4   -934.5048203009  -0.023080212617 0.01239790  0.00015425  0.0156008 0.0000
  5   -934.5063676231  -0.001547322116 0.01008869  0.00006318  0.0059521 0.0000
                      *** Initiating the SOSCF procedure ***
                           *** Shutting down DIIS ***
                      *** Re-Reading the Fockian *** 
                      *** Removing any level shift *** 
ITER      Energy       Delta-E        Grad      Rot      Max-DP    RMS-DP
  6   -934.50648616  -0.0001185395  0.000182  0.000182  0.001199  0.000019
               *** Restarting incremental Fock matrix formation ***
  7   -934.50648313   0.0000030354  0.000281  0.001201  0.001239  0.000020
  8   -934.50648151   0.0000016126  0.000414  0.000566  0.001445  0.000008
  9   -934.50648519  -0.0000036782  0.000050  0.000123  0.000432  0.000003
 10   -934.50648506   0.0000001336  0.000045  0.000064  0.000421  0.000002
 11   -934.50648531  -0.0000002494  0.000004  0.000012  0.000210  0.000002
 12   -934.50648532  -0.0000000144  0.000004  0.000007  0.000102  0.000001
                  ***Gradient check signals convergence***
              ***Rediagonalizing the Fockian in SOSCF/NRSCF***

               *****************************************************
               *                     SUCCESS                       *
               *           SCF CONVERGED AFTER  13 CYCLES          *
               *****************************************************

Old exchange energy                            =    -30.134998417 Eh
New exchange energy                            =    -30.134981152 Eh
Exchange energy change after final integration =      0.000017266 Eh
Total energy after final integration           =   -934.506468054 Eh
Final COS-X integration done in                =     9.363 sec

----------------
TOTAL SCF ENERGY
----------------

Total Energy       :         -934.50646805 Eh          -25429.21379 eV

Components:
Nuclear Repulsion  :         1515.55510208 Eh           41240.35095 eV
Electronic Energy  :        -2450.06157013 Eh          -66669.56474 eV
One Electron Energy:        -4285.90740842 Eh         -116625.46971 eV
Two Electron Energy:         1835.84583828 Eh           49955.90497 eV
Max COSX asymmetry :            0.00000222 Eh               0.00006 eV
CPCM Dielectric    :           -0.03115347 Eh              -0.84773 eV

Virial components:
Potential Energy   :        -1864.96357745 Eh          -50748.23893 eV
Kinetic Energy     :          930.45710940 Eh           25319.02514 eV
Virial Ratio       :            2.00435201


DFT components:
N(Alpha)           :       70.000118090311 electrons
N(Beta)            :       70.000118090311 electrons
N(Total)           :      140.000236180621 electrons
E(X)               :      -90.263530573157 Eh       
E(C)               :       -4.736133709226 Eh       
E(XC)              :      -94.999664282383 Eh       
DFET-embed. en.    :        0.000000000000 Eh       
CPCM Solvation Model Properties:
Surface-charge          :           -0.02752792
Charge-correction       :           -0.00024297 Eh              -0.00661 eV
Free-energy (cav+disp)  :  This term is not implemented in the current solvation scheme

---------------
SCF CONVERGENCE
---------------

  Last Energy change         ...    3.1237e-09  Tolerance :   1.0000e-08
  Last MAX-Density change    ...    2.3315e-15  Tolerance :   1.0000e-07
  Last RMS-Density change    ...    1.4933e-17  Tolerance :   5.0000e-09
  Last Orbital Gradient      ...    8.8892e-07  Tolerance :   1.0000e-05
  Last Orbital Rotation      ...    2.0979e-06  Tolerance :   1.0000e-05

             **** THE GBW FILE WAS UPDATED (4_Me_free/4_Me_free.gbw) ****
             **** DENSITY 4_Me_free/4_Me_free.scfp WAS UPDATED ****
             **** ENERGY FILE WAS UPDATED (4_Me_free/4_Me_free.en.tmp) ****
             **** THE GBW FILE WAS UPDATED (4_Me_free/4_Me_free.gbw) ****
             **** DENSITY 4_Me_free/4_Me_free.scfp WAS UPDATED ****
----------------
ORBITAL ENERGIES
----------------

  NO   OCC          E(Eh)            E(eV) 
   0   2.0000     -19.277876      -524.5777 
   1   2.0000     -19.268955      -524.3349 
   2   2.0000     -19.247028      -523.7383 
   3   2.0000     -19.211417      -522.7692 
   4   2.0000     -19.210351      -522.7402 
   5   2.0000     -14.577797      -396.6820 
   6   2.0000     -10.363178      -281.9964 
   7   2.0000     -10.310408      -280.5605 
   8   2.0000     -10.293172      -280.0914 
   9   2.0000     -10.285405      -279.8801 
  10   2.0000     -10.272924      -279.5405 
  11   2.0000     -10.267299      -279.3874 
  12   2.0000     -10.266970      -279.3785 
  13   2.0000     -10.242453      -278.7113 
  14   2.0000     -10.232302      -278.4351 
  15   2.0000     -10.230863      -278.3959 
  16   2.0000     -10.230568      -278.3879 
  17   2.0000     -10.227122      -278.2941 
  18   2.0000     -10.222868      -278.1784 
  19   2.0000      -1.223348       -33.2890 
  20   2.0000      -1.158812       -31.5329 
  21   2.0000      -1.109916       -30.2023 
  22   2.0000      -1.093632       -29.7592 
  23   2.0000      -1.065261       -28.9872 
  24   2.0000      -0.920738       -25.0545 
  25   2.0000      -0.890765       -24.2389 
  26   2.0000      -0.840790       -22.8791 
  27   2.0000      -0.793547       -21.5935 
  28   2.0000      -0.780069       -21.2268 
  29   2.0000      -0.761216       -20.7137 
  30   2.0000      -0.749055       -20.3828 
  31   2.0000      -0.721304       -19.6277 
  32   2.0000      -0.697682       -18.9849 
  33   2.0000      -0.631747       -17.1907 
  34   2.0000      -0.630496       -17.1567 
  35   2.0000      -0.613560       -16.6958 
  36   2.0000      -0.583367       -15.8742 
  37   2.0000      -0.575275       -15.6540 
  38   2.0000      -0.555314       -15.1109 
  39   2.0000      -0.542932       -14.7739 
  40   2.0000      -0.531907       -14.4739 
  41   2.0000      -0.517905       -14.0929 
  42   2.0000      -0.515255       -14.0208 
  43   2.0000      -0.509151       -13.8547 
  44   2.0000      -0.501013       -13.6333 
  45   2.0000      -0.490500       -13.3472 
  46   2.0000      -0.477185       -12.9849 
  47   2.0000      -0.474409       -12.9093 
  48   2.0000      -0.459327       -12.4989 
  49   2.0000      -0.451086       -12.2747 
  50   2.0000      -0.447140       -12.1673 
  51   2.0000      -0.436866       -11.8877 
  52   2.0000      -0.431373       -11.7383 
  53   2.0000      -0.421874       -11.4798 
  54   2.0000      -0.415639       -11.3101 
  55   2.0000      -0.408242       -11.1088 
  56   2.0000      -0.402167       -10.9435 
  57   2.0000      -0.385965       -10.5026 
  58   2.0000      -0.384623       -10.4661 
  59   2.0000      -0.380637       -10.3577 
  60   2.0000      -0.369076       -10.0431 
  61   2.0000      -0.347883        -9.4664 
  62   2.0000      -0.344030        -9.3615 
  63   2.0000      -0.342315        -9.3149 
  64   2.0000      -0.335330        -9.1248 
  65   2.0000      -0.315053        -8.5730 
  66   2.0000      -0.307684        -8.3725 
  67   2.0000      -0.272549        -7.4164 
  68   2.0000      -0.245136        -6.6705 
  69   2.0000      -0.242152        -6.5893 
  70   0.0000      -0.024221        -0.6591 
  71   0.0000      -0.011544        -0.3141 
  72   0.0000      -0.002086        -0.0568 
  73   0.0000       0.004794         0.1305 
  74   0.0000       0.042637         1.1602 
  75   0.0000       0.060280         1.6403 
  76   0.0000       0.062961         1.7133 
  77   0.0000       0.065857         1.7921 
  78   0.0000       0.078301         2.1307 
  79   0.0000       0.083882         2.2825 
  80   0.0000       0.087332         2.3764 
  81   0.0000       0.093863         2.5541 
  82   0.0000       0.102357         2.7853 
  83   0.0000       0.107489         2.9249 
  84   0.0000       0.119565         3.2535 
  85   0.0000       0.123207         3.3526 
  86   0.0000       0.126639         3.4460 
  87   0.0000       0.131335         3.5738 
  88   0.0000       0.135604         3.6900 
  89   0.0000       0.138341         3.7645 
  90   0.0000       0.146137         3.9766 
  91   0.0000       0.148565         4.0427 
  92   0.0000       0.152667         4.1543 
  93   0.0000       0.155461         4.2303 
  94   0.0000       0.166488         4.5304 
  95   0.0000       0.171244         4.6598 
  96   0.0000       0.178514         4.8576 
  97   0.0000       0.193675         5.2702 
  98   0.0000       0.195781         5.3275 
  99   0.0000       0.205990         5.6053 
 100   0.0000       0.209124         5.6905 
 101   0.0000       0.216031         5.8785 
 102   0.0000       0.220449         5.9987 
 103   0.0000       0.223771         6.0891 
 104   0.0000       0.228646         6.2218 
 105   0.0000       0.233509         6.3541 
 106   0.0000       0.236684         6.4405 
 107   0.0000       0.239247         6.5103 
 108   0.0000       0.245818         6.6891 
 109   0.0000       0.255174         6.9436 
 110   0.0000       0.263187         7.1617 
 111   0.0000       0.266558         7.2534 
 112   0.0000       0.278962         7.5909 
 113   0.0000       0.284708         7.7473 
 114   0.0000       0.289160         7.8684 
 115   0.0000       0.297021         8.0824 
 116   0.0000       0.297424         8.0933 
 117   0.0000       0.302858         8.2412 
 118   0.0000       0.305666         8.3176 
 119   0.0000       0.311558         8.4779 
 120   0.0000       0.323020         8.7898 
 121   0.0000       0.328821         8.9477 
 122   0.0000       0.330530         8.9942 
 123   0.0000       0.334493         9.1020 
 124   0.0000       0.344714         9.3801 
 125   0.0000       0.352860         9.6018 
 126   0.0000       0.359730         9.7887 
 127   0.0000       0.365583         9.9480 
 128   0.0000       0.372059        10.1242 
 129   0.0000       0.378810        10.3079 
 130   0.0000       0.380850        10.3634 
 131   0.0000       0.391734        10.6596 
 132   0.0000       0.393546        10.7089 
 133   0.0000       0.396317        10.7843 
 134   0.0000       0.402132        10.9426 
 135   0.0000       0.407971        11.1015 
 136   0.0000       0.410004        11.1568 
 137   0.0000       0.412254        11.2180 
 138   0.0000       0.421522        11.4702 
 139   0.0000       0.424283        11.5453 
 140   0.0000       0.426732        11.6120 
 141   0.0000       0.430660        11.7188 
 142   0.0000       0.440119        11.9762 
 143   0.0000       0.445650        12.1267 
 144   0.0000       0.448352        12.2003 
 145   0.0000       0.454068        12.3558 
 146   0.0000       0.459351        12.4996 
 147   0.0000       0.462112        12.5747 
 148   0.0000       0.468370        12.7450 
 149   0.0000       0.471087        12.8189 
 150   0.0000       0.473521        12.8852 
 151   0.0000       0.475219        12.9314 
 152   0.0000       0.481127        13.0921 
 153   0.0000       0.483818        13.1654 
 154   0.0000       0.490132        13.3372 
 155   0.0000       0.496451        13.5091 
 156   0.0000       0.499195        13.5838 
 157   0.0000       0.505014        13.7421 
 158   0.0000       0.513446        13.9716 
 159   0.0000       0.518916        14.1204 
 160   0.0000       0.528351        14.3772 
 161   0.0000       0.529756        14.4154 
 162   0.0000       0.534409        14.5420 
 163   0.0000       0.547724        14.9043 
 164   0.0000       0.554002        15.0752 
 165   0.0000       0.560623        15.2553 
 166   0.0000       0.565036        15.3754 
 167   0.0000       0.567717        15.4484 
 168   0.0000       0.578750        15.7486 
 169   0.0000       0.588538        16.0149 
 170   0.0000       0.592322        16.1179 
 171   0.0000       0.600149        16.3309 
 172   0.0000       0.603454        16.4208 
 173   0.0000       0.617435        16.8013 
 174   0.0000       0.625387        17.0176 
 175   0.0000       0.630561        17.1584 
 176   0.0000       0.640148        17.4193 
 177   0.0000       0.655938        17.8490 
 178   0.0000       0.657120        17.8811 
 179   0.0000       0.660646        17.9771 
 180   0.0000       0.670445        18.2437 
 181   0.0000       0.676648        18.4125 
 182   0.0000       0.681607        18.5475 
 183   0.0000       0.689421        18.7601 
 184   0.0000       0.704518        19.1709 
 185   0.0000       0.712541        19.3892 
 186   0.0000       0.717794        19.5322 
 187   0.0000       0.724077        19.7031 
 188   0.0000       0.733672        19.9642 
 189   0.0000       0.747774        20.3480 
 190   0.0000       0.749798        20.4030 
 191   0.0000       0.757207        20.6047 
 192   0.0000       0.770305        20.9611 
 193   0.0000       0.773053        21.0359 
 194   0.0000       0.782570        21.2948 
 195   0.0000       0.789759        21.4904 
 196   0.0000       0.806763        21.9531 
 197   0.0000       0.812262        22.1028 
 198   0.0000       0.816456        22.2169 
 199   0.0000       0.832780        22.6611 
 200   0.0000       0.837860        22.7993 
 201   0.0000       0.849176        23.1073 
 202   0.0000       0.857739        23.3403 
 203   0.0000       0.861941        23.4546 
 204   0.0000       0.873452        23.7678 
 205   0.0000       0.880026        23.9467 
 206   0.0000       0.883429        24.0393 
 207   0.0000       0.887452        24.1488 
 208   0.0000       0.893973        24.3262 
 209   0.0000       0.903530        24.5863 
 210   0.0000       0.911248        24.7963 
 211   0.0000       0.923910        25.1409 
 212   0.0000       0.939353        25.5611 
 213   0.0000       0.954178        25.9645 
 214   0.0000       0.962665        26.1954 
 215   0.0000       0.964207        26.2374 
 216   0.0000       0.967129        26.3169 
 217   0.0000       0.986524        26.8447 
 218   0.0000       0.993190        27.0261 
 219   0.0000       0.997233        27.1361 
 220   0.0000       1.004925        27.3454 
 221   0.0000       1.010478        27.4965 
 222   0.0000       1.020848        27.7787 
 223   0.0000       1.027197        27.9514 
 224   0.0000       1.048097        28.5202 
 225   0.0000       1.053557        28.6687 
 226   0.0000       1.059881        28.8408 
 227   0.0000       1.069363        29.0989 
 228   0.0000       1.071638        29.1608 
 229   0.0000       1.081305        29.4238 
 230   0.0000       1.092473        29.7277 
 231   0.0000       1.093540        29.7567 
 232   0.0000       1.103940        30.0397 
 233   0.0000       1.110611        30.2213 
 234   0.0000       1.126207        30.6457 
 235   0.0000       1.140046        31.0222 
 236   0.0000       1.148857        31.2620 
 237   0.0000       1.182509        32.1777 
 238   0.0000       1.187794        32.3215 
 239   0.0000       1.195002        32.5176 
 240   0.0000       1.209388        32.9091 
 241   0.0000       1.223097        33.2822 
 242   0.0000       1.227509        33.4022 
 243   0.0000       1.235067        33.6079 
 244   0.0000       1.236669        33.6515 
 245   0.0000       1.251759        34.0621 
 246   0.0000       1.253698        34.1149 
 247   0.0000       1.264365        34.4051 
 248   0.0000       1.273283        34.6478 
 249   0.0000       1.301430        35.4137 
 250   0.0000       1.308489        35.6058 
 251   0.0000       1.320522        35.9332 
 252   0.0000       1.334764        36.3208 
 253   0.0000       1.350173        36.7401 
 254   0.0000       1.356971        36.9250 
 255   0.0000       1.371537        37.3214 
 256   0.0000       1.382884        37.6302 
 257   0.0000       1.388902        37.7939 
 258   0.0000       1.409910        38.3656 
 259   0.0000       1.419076        38.6150 
 260   0.0000       1.433229        39.0001 
 261   0.0000       1.444959        39.3193 
 262   0.0000       1.451229        39.4899 
 263   0.0000       1.453200        39.5436 
 264   0.0000       1.472837        40.0779 
 265   0.0000       1.481115        40.3032 
 266   0.0000       1.482774        40.3483 
 267   0.0000       1.486218        40.4421 
 268   0.0000       1.494047        40.6551 
 269   0.0000       1.506579        40.9961 
 270   0.0000       1.512086        41.1459 
 271   0.0000       1.521456        41.4009 
 272   0.0000       1.528704        41.5981 
 273   0.0000       1.531414        41.6719 
 274   0.0000       1.535321        41.7782 
 275   0.0000       1.539849        41.9014 
 276   0.0000       1.543203        41.9927 
 277   0.0000       1.548508        42.1370 
 278   0.0000       1.555066        42.3155 
 279   0.0000       1.563421        42.5428 
 280   0.0000       1.571126        42.7525 
 281   0.0000       1.574711        42.8501 
 282   0.0000       1.588799        43.2334 
 283   0.0000       1.596339        43.4386 
 284   0.0000       1.603441        43.6318 
 285   0.0000       1.606977        43.7281 
 286   0.0000       1.615230        43.9526 
 287   0.0000       1.626959        44.2718 
 288   0.0000       1.635341        44.4999 
 289   0.0000       1.643579        44.7240 
 290   0.0000       1.657713        45.1087 
 291   0.0000       1.660778        45.1921 
 292   0.0000       1.675627        45.5961 
 293   0.0000       1.692456        46.0541 
 294   0.0000       1.699228        46.2384 
 295   0.0000       1.710622        46.5484 
 296   0.0000       1.720805        46.8255 
 297   0.0000       1.725199        46.9451 
 298   0.0000       1.731431        47.1146 
 299   0.0000       1.734267        47.1918 
 300   0.0000       1.738741        47.3136 
 301   0.0000       1.756323        47.7920 
 302   0.0000       1.764352        48.0105 
 303   0.0000       1.770492        48.1775 
 304   0.0000       1.795599        48.8607 
 305   0.0000       1.809711        49.2447 
 306   0.0000       1.817067        49.4449 
 307   0.0000       1.832495        49.8647 
 308   0.0000       1.851217        50.3742 
 309   0.0000       1.861442        50.6524 
 310   0.0000       1.869839        50.8809 
 311   0.0000       1.884598        51.2825 
 312   0.0000       1.888912        51.3999 
 313   0.0000       1.895142        51.5694 
 314   0.0000       1.909297        51.9546 
 315   0.0000       1.920494        52.2593 
 316   0.0000       1.921665        52.2912 
 317   0.0000       1.942139        52.8483 
 318   0.0000       1.946642        52.9708 
 319   0.0000       1.967127        53.5283 
 320   0.0000       1.975362        53.7523 
 321   0.0000       1.986765        54.0626 
 322   0.0000       1.996040        54.3150 
 323   0.0000       2.012454        54.7617 
 324   0.0000       2.016675        54.8765 
 325   0.0000       2.023839        55.0715 
 326   0.0000       2.026934        55.1557 
 327   0.0000       2.033056        55.3223 
 328   0.0000       2.046364        55.6844 
 329   0.0000       2.058061        56.0027 
 330   0.0000       2.064848        56.1874 
 331   0.0000       2.068871        56.2968 
 332   0.0000       2.081841        56.6498 
 333   0.0000       2.085681        56.7543 
 334   0.0000       2.097758        57.0829 
 335   0.0000       2.110886        57.4401 
 336   0.0000       2.117263        57.6136 
 337   0.0000       2.125078        57.8263 
 338   0.0000       2.133839        58.0647 
 339   0.0000       2.141114        58.2627 
 340   0.0000       2.151444        58.5438 
 341   0.0000       2.165924        58.9378 
 342   0.0000       2.187397        59.5221 
 343   0.0000       2.196124        59.7596 
 344   0.0000       2.202802        59.9413 
 345   0.0000       2.217303        60.3359 
 346   0.0000       2.230292        60.6893 
 347   0.0000       2.241072        60.9827 
 348   0.0000       2.249069        61.2003 
 349   0.0000       2.255134        61.3653 
 350   0.0000       2.264749        61.6269 
 351   0.0000       2.272575        61.8399 
 352   0.0000       2.277970        61.9867 
 353   0.0000       2.282548        62.1113 
 354   0.0000       2.289110        62.2899 
 355   0.0000       2.304486        62.7083 
 356   0.0000       2.315709        63.0137 
 357   0.0000       2.322043        63.1860 
 358   0.0000       2.332495        63.4704 
 359   0.0000       2.338049        63.6215 
 360   0.0000       2.350517        63.9608 
 361   0.0000       2.371556        64.5333 
 362   0.0000       2.383369        64.8548 
 363   0.0000       2.389563        65.0233 
 364   0.0000       2.402062        65.3634 
 365   0.0000       2.411269        65.6140 
 366   0.0000       2.416189        65.7478 
 367   0.0000       2.435170        66.2643 
 368   0.0000       2.440081        66.3980 
 369   0.0000       2.449655        66.6585 
 370   0.0000       2.467327        67.1394 
 371   0.0000       2.468222        67.1637 
 372   0.0000       2.484181        67.5980 
 373   0.0000       2.491995        67.8106 
 374   0.0000       2.514612        68.4261 
 375   0.0000       2.520767        68.5936 
 376   0.0000       2.529399        68.8285 
 377   0.0000       2.542811        69.1934 
 378   0.0000       2.546007        69.2804 
 379   0.0000       2.556211        69.5580 
 380   0.0000       2.559448        69.6461 
 381   0.0000       2.565686        69.8159 
 382   0.0000       2.574256        70.0491 
 383   0.0000       2.581850        70.2557 
 384   0.0000       2.591041        70.5058 
 385   0.0000       2.596107        70.6437 
 386   0.0000       2.616688        71.2037 
 387   0.0000       2.631962        71.6193 
 388   0.0000       2.643829        71.9422 
 389   0.0000       2.650621        72.1271 
 390   0.0000       2.657420        72.3121 
 391   0.0000       2.664392        72.5018 
 392   0.0000       2.676863        72.8412 
 393   0.0000       2.686242        73.0964 
 394   0.0000       2.697921        73.4142 
 395   0.0000       2.703875        73.5762 
 396   0.0000       2.718535        73.9751 
 397   0.0000       2.723781        74.1179 
 398   0.0000       2.728391        74.2433 
 399   0.0000       2.737338        74.4868 
 400   0.0000       2.745637        74.7126 
 401   0.0000       2.754769        74.9611 
 402   0.0000       2.764713        75.2317 
 403   0.0000       2.775506        75.5254 
 404   0.0000       2.780514        75.6616 
 405   0.0000       2.797361        76.1201 
 406   0.0000       2.809507        76.4506 
 407   0.0000       2.811298        76.4993 
 408   0.0000       2.824251        76.8518 
 409   0.0000       2.830284        77.0159 
 410   0.0000       2.843881        77.3859 
 411   0.0000       2.854067        77.6631 
 412   0.0000       2.857320        77.7516 
 413   0.0000       2.865978        77.9872 
 414   0.0000       2.871422        78.1354 
 415   0.0000       2.879246        78.3483 
 416   0.0000       2.883729        78.4703 
 417   0.0000       2.891086        78.6704 
 418   0.0000       2.902255        78.9744 
 419   0.0000       2.909194        79.1632 
 420   0.0000       2.915801        79.3430 
 421   0.0000       2.925718        79.6128 
 422   0.0000       2.950968        80.2999 
 423   0.0000       2.962198        80.6055 
 424   0.0000       2.971484        80.8582 
 425   0.0000       2.983416        81.1829 
 426   0.0000       3.000303        81.6424 
 427   0.0000       3.006451        81.8097 
 428   0.0000       3.017759        82.1174 
 429   0.0000       3.036861        82.6372 
 430   0.0000       3.039083        82.6976 
 431   0.0000       3.044100        82.8342 
 432   0.0000       3.057800        83.2070 
 433   0.0000       3.065203        83.4084 
 434   0.0000       3.071177        83.5710 
 435   0.0000       3.080041        83.8122 
 436   0.0000       3.088778        84.0499 
 437   0.0000       3.102481        84.4228 
 438   0.0000       3.106163        84.5230 
 439   0.0000       3.111441        84.6666 
 440   0.0000       3.120737        84.9196 
 441   0.0000       3.129804        85.1663 
 442   0.0000       3.146966        85.6333 
 443   0.0000       3.156839        85.9020 
 444   0.0000       3.159604        85.9772 
 445   0.0000       3.173649        86.3594 
 446   0.0000       3.178641        86.4952 
 447   0.0000       3.194136        86.9168 
 448   0.0000       3.201584        87.1195 
 449   0.0000       3.207375        87.2771 
 450   0.0000       3.208813        87.3163 
 451   0.0000       3.215874        87.5084 
 452   0.0000       3.223106        87.7052 
 453   0.0000       3.226476        87.7969 
 454   0.0000       3.234825        88.0241 
 455   0.0000       3.241412        88.2033 
 456   0.0000       3.251137        88.4679 
 457   0.0000       3.254465        88.5585 
 458   0.0000       3.266947        88.8982 
 459   0.0000       3.272712        89.0550 
 460   0.0000       3.283617        89.3518 
 461   0.0000       3.288270        89.4784 
 462   0.0000       3.296534        89.7032 
 463   0.0000       3.302184        89.8570 
 464   0.0000       3.320154        90.3460 
 465   0.0000       3.324993        90.4777 
 466   0.0000       3.331398        90.6520 
 467   0.0000       3.333692        90.7144 
 468   0.0000       3.338103        90.8344 
 469   0.0000       3.344530        91.0093 
 470   0.0000       3.345498        91.0356 
[...]
     76       0.124133  -0.000229   0.000088  -0.002758  -0.002504   0.007807
     77       0.122319  -0.000243   0.000087  -0.003131  -0.003038   0.010608
     78       0.144860   0.000452   0.000089  -0.002598  -0.001891   0.005706
     79      -0.454079  -0.001458  -0.000262   0.006585   0.004501  -0.011121
     80       0.804864   0.002601   0.000446  -0.011327  -0.007669   0.018219
     81       0.047479  -0.000378   0.000030  -0.000908  -0.000876   0.003269
     82      -0.221508   0.000562  -0.000111   0.005468   0.005229  -0.018126
     83      -0.055307   0.000178  -0.000037   0.001013   0.000836  -0.002230
     84       0.000003  -0.000024  -0.000003  -0.000005   0.000005  -0.000003
     85      -0.000005  -0.000057  -0.000011  -0.000021   0.000023   0.000010
     86      -0.000004  -0.000010   0.000006  -0.000008   0.000009   0.000007
     87      -0.000200   0.000042   0.101884  -0.000043  -0.000035  -0.000024
     88       0.000492  -0.000098  -0.285960   0.000136   0.000074   0.000050
     89       0.000148  -0.000021  -0.079109   0.000044   0.000003  -0.000001
     90      -0.000487   0.000685   0.000011   0.000132  -0.000008   0.000013
     91       0.000058  -0.000111   0.000003  -0.000022  -0.000002   0.000004
     92       0.000315  -0.000400  -0.000007  -0.000081   0.000040   0.000008
     93      -0.000359   0.000290  -0.000002   0.000045  -0.000057  -0.000022
     94      -0.000000   0.000139  -0.000006   0.000048  -0.000047  -0.000020
     95      -0.001403   0.001494   0.000001   0.000286  -0.000275  -0.000102
     96       0.001217  -0.001858  -0.000004  -0.000350  -0.000017   0.000001
     97      -0.001578   0.003238  -0.000000   0.000724  -0.000091  -0.000008
     98       0.000486  -0.000470  -0.000003  -0.000055  -0.000030  -0.000011
     99       0.004990  -0.006395  -0.000148  -0.001173   0.000094  -0.000175
    100       0.000788  -0.000960  -0.000031  -0.000158  -0.000011  -0.000051
    101      -0.002886   0.003711   0.000078   0.000683  -0.000079   0.000084


-----------
IR SPECTRUM
-----------

 Mode   freq       eps      Int      T**2         TX        TY        TZ
       cm**-1   L/(mol*cm) km/mol    a.u.
----------------------------------------------------------------------------
  6:     18.64   0.000255    1.29  0.004266  ( 0.047170  0.013852  0.042998)
  7:     31.19   0.000405    2.05  0.004050  (-0.023920 -0.012228 -0.057690)
  8:     49.21   0.000232    1.17  0.001470  ( 0.011271 -0.036325 -0.004870)
  9:     69.26   0.000025    0.13  0.000113  ( 0.009170 -0.005151 -0.001435)
 10:     71.54   0.000445    2.25  0.001939  (-0.028793  0.030984 -0.012251)
 11:     86.35   0.000049    0.25  0.000178  (-0.003561 -0.000709 -0.012837)
 12:     98.69   0.001044    5.27  0.003300  ( 0.018157  0.051730  0.017166)
 13:    103.31   0.000883    4.46  0.002667  (-0.017288 -0.002742 -0.048583)
 14:    142.76   0.000282    1.42  0.000616  (-0.002452  0.019415 -0.015276)
 15:    149.84   0.000444    2.24  0.000924  (-0.010911  0.003505 -0.028158)
 16:    171.29   0.000083    0.42  0.000151  ( 0.001290 -0.005925 -0.010696)
 17:    185.17   0.000927    4.68  0.001562  (-0.019245 -0.033097 -0.009816)
 18:    213.88   0.001018    5.15  0.001486  (-0.021184 -0.028731 -0.014545)
 19:    248.74   0.001314    6.64  0.001648  ( 0.015307 -0.013159 -0.035221)
 20:    255.40   0.000562    2.84  0.000687  (-0.022918 -0.005782  0.011311)
 21:    285.50   0.002153   10.88  0.002353  (-0.002350 -0.047996 -0.006610)
 22:    309.80   0.002012   10.17  0.002027  ( 0.015523  0.033786  0.025388)
 23:    316.89   0.001964    9.92  0.001934  ( 0.027797  0.033784 -0.004449)
 24:    349.97   0.003488   17.62  0.003110  (-0.029542 -0.012766  0.045542)
 25:    367.78   0.000860    4.35  0.000730  (-0.012403 -0.023463  0.005069)
 26:    406.59   0.000742    3.75  0.000570  ( 0.009538 -0.013777  0.016996)
 27:    475.88   0.001577    7.97  0.001034  (-0.010932 -0.028852 -0.009063)
 28:    494.60   0.001628    8.23  0.001027  ( 0.029551 -0.005179  0.011279)
 29:    527.24   0.002694   13.62  0.001595  (-0.020652 -0.019230 -0.028256)
 30:    569.73   0.000712    3.60  0.000390  (-0.009857 -0.000261 -0.017103)
 31:    582.43   0.001341    6.78  0.000719  ( 0.016080 -0.012862  0.017163)
 32:    606.23   0.003329   16.82  0.001714  (-0.038874 -0.007294  0.012220)
 33:    635.78   0.007359   37.19  0.003612  (-0.039729 -0.041584  0.017446)
 34:    669.67   0.003176   16.05  0.001480  (-0.000080 -0.031934  0.021453)
 35:    712.85   0.002101   10.62  0.000920  ( 0.017345 -0.015656  0.019333)
 36:    727.15   0.003068   15.51  0.001317  (-0.036007  0.001739 -0.004164)
 37:    765.84   0.003475   17.56  0.001416  (-0.022987  0.005927 -0.029195)
 38:    769.57   0.030332  153.29  0.012300  (-0.028784 -0.097752 -0.043770)
 39:    780.36   0.000149    0.75  0.000060  ( 0.000355  0.007306 -0.002468)
 40:    814.15   0.007415   37.47  0.002842  (-0.001357 -0.037233  0.038133)
 41:    842.99   0.005362   27.10  0.001985  (-0.012141 -0.042381 -0.006426)
 42:    876.16   0.000508    2.57  0.000181  (-0.001850 -0.010685 -0.007964)
 43:    895.42   0.007276   36.77  0.002536  ( 0.020027  0.045311 -0.009029)
 44:    915.85   0.032333  163.40  0.011017  (-0.086175 -0.053138  0.027696)
 45:    957.80   0.005649   28.55  0.001841  ( 0.039978  0.015477  0.001673)
 46:    968.96   0.001187    6.00  0.000382  (-0.016513  0.010012  0.003077)
 47:    993.34   0.000096    0.49  0.000030  ( 0.001543  0.004874 -0.002013)
 48:   1002.02   0.008756   44.25  0.002727  (-0.034597 -0.038813  0.004859)
 49:   1009.40   0.008557   43.24  0.002645  (-0.009548 -0.047896  0.016127)
 50:   1037.09   0.002030   10.26  0.000611  ( 0.000759  0.020441 -0.013867)
 51:   1054.59   0.005366   27.12  0.001588  ( 0.000664  0.027412 -0.028911)
 52:   1071.47   0.012135   61.32  0.003534  (-0.054365  0.008810  0.022386)
 53:   1084.02   0.006937   35.06  0.001997  ( 0.011517  0.015002 -0.040488)
 54:   1114.62   0.017533   88.61  0.004909  ( 0.035363  0.002526 -0.060431)
 55:   1137.37   0.012071   61.00  0.003312  (-0.037147 -0.001718  0.043922)
 56:   1171.27   0.000183    0.92  0.000049  ( 0.000585 -0.005165 -0.004657)
 57:   1171.85   0.000167    0.84  0.000044  (-0.001785 -0.006421 -0.000112)
 58:   1174.72   0.002024   10.23  0.000538  (-0.020212  0.002506  0.011079)
 59:   1193.87   0.001042    5.27  0.000272  ( 0.001234 -0.016437 -0.000865)
 60:   1205.45   0.005062   25.58  0.001310  (-0.016644 -0.016323  0.027692)
 61:   1212.04   0.002324   11.75  0.000598  (-0.019439 -0.010713  0.010285)
 62:   1230.84   0.005189   26.23  0.001316  ( 0.019071  0.028752 -0.011196)
 63:   1235.72   0.036740  185.67  0.009278  (-0.065319 -0.020507  0.067757)
 64:   1273.47   0.040809  206.23  0.010000  ( 0.014489  0.064648 -0.074907)
 65:   1290.14   0.102943  520.23  0.024900  ( 0.102783  0.033019 -0.115090)
 66:   1305.30   0.020115  101.65  0.004809  ( 0.006626 -0.024048  0.064704)
 67:   1321.24   0.022781  115.13  0.005381  (-0.043827 -0.018496  0.055837)
 68:   1341.13   0.021411  108.20  0.004982  (-0.060930  0.018916  0.030198)
 69:   1365.24   0.009700   49.02  0.002217  ( 0.040379 -0.022822 -0.008122)
 70:   1383.02   0.002974   15.03  0.000671  (-0.010307 -0.018823  0.014513)
 71:   1394.30   0.026111  131.96  0.005844  (-0.043216 -0.023139  0.058660)
 72:   1430.93   0.009014   45.55  0.001966  (-0.026545  0.024988  0.025234)
 73:   1450.17   0.004762   24.07  0.001025  (-0.016598  0.021017 -0.017538)
 74:   1460.47   0.003112   15.73  0.000665  (-0.021026  0.002631  0.014693)
 75:   1465.71   0.005190   26.23  0.001105  (-0.006150 -0.009579  0.031233)
 76:   1466.32   0.003590   18.14  0.000764  (-0.002574 -0.025540 -0.010252)
 77:   1469.38   0.009536   48.19  0.002025  (-0.007695 -0.025250  0.036448)
 78:   1473.16   0.002930   14.80  0.000621  ( 0.024767 -0.000778 -0.002566)
 79:   1473.84   0.003021   15.27  0.000640  ( 0.006723  0.019785  0.014251)
 80:   1483.35   0.004909   24.81  0.001033  (-0.002604 -0.015325  0.028128)
 81:   1498.17   0.014055   71.03  0.002928  ( 0.019560  0.014880 -0.048203)
 82:   1536.30   0.038504  194.58  0.007821  (-0.020198 -0.032366  0.079785)
 83:   1649.08   0.007983   40.34  0.001511  ( 0.030932 -0.001680 -0.023475)
 84:   1663.07   0.016182   81.78  0.003037  (-0.009978 -0.017995  0.051119)
 85:   1760.20   0.119736  605.09  0.021228  ( 0.114820 -0.053693 -0.071842)
 86:   1804.42   0.099926  504.98  0.017281  (-0.126798  0.034160  0.006074)
 87:   3038.23   0.012199   61.65  0.001253  (-0.029155  0.001218  0.020038)
 88:   3051.05   0.002319   11.72  0.000237  ( 0.000378  0.013025  0.008206)
 89:   3074.70   0.005389   27.23  0.000547  (-0.001461  0.012726 -0.019567)
 90:   3104.95   0.000468    2.37  0.000047  (-0.006024  0.001344 -0.002991)
 91:   3109.85   0.007266   36.72  0.000729  (-0.008032 -0.023220 -0.011202)
 92:   3111.49   0.001227    6.20  0.000123  ( 0.006168 -0.005360  0.007502)
 93:   3139.18   0.000582    2.94  0.000058  (-0.005918 -0.002405  0.004130)
 94:   3159.92   0.003365   17.01  0.000332  ( 0.003235  0.015606  0.008851)
 95:   3165.39   0.000691    3.49  0.000068  ( 0.007438  0.002669 -0.002378)
 96:   3166.51   0.003783   19.12  0.000373  (-0.003756  0.009356 -0.016469)
 97:   3185.19   0.000606    3.06  0.000059  (-0.007102  0.001279  0.002695)
 98:   3193.22   0.001903    9.62  0.000186  (-0.012779 -0.000509  0.004738)
 99:   3196.21   0.001340    6.77  0.000131  (-0.010456  0.004323 -0.001677)
100:   3214.38   0.002893   14.62  0.000281  (-0.001340  0.008076 -0.014624)
101:   3230.98   0.000396    2.00  0.000038  (-0.005588  0.000963  0.002472)

* The epsilon (eps) is given for a Dirac delta lineshape.
** The dipole moment derivative (T) already includes vibrational overlap.

The first frequency considered to be a vibration is 6
The total number of vibrations considered is 96


--------------------------
THERMOCHEMISTRY AT 298.15K
--------------------------

Temperature         ... 298.15 K
Pressure            ... 1.00 atm
Total Mass          ... 265.26 AMU

Throughout the following assumptions are being made:
  (1) The electronic state is orbitally nondegenerate
  (2) There are no thermally accessible electronically excited states
  (3) Hindered rotations indicated by low frequency modes are not
      treated as such but are treated as vibrations and this may
      cause some error
  (4) All equations used are the standard statistical mechanics
      equations for an ideal gas
  (5) All vibrations are strictly harmonic

freq.      18.64  E(vib)   ...       0.57 
freq.      31.19  E(vib)   ...       0.55 
freq.      49.21  E(vib)   ...       0.52 
freq.      69.26  E(vib)   ...       0.50 
freq.      71.54  E(vib)   ...       0.50 
freq.      86.35  E(vib)   ...       0.48 
freq.      98.69  E(vib)   ...       0.46 
freq.     103.31  E(vib)   ...       0.46 
freq.     142.76  E(vib)   ...       0.41 
freq.     149.84  E(vib)   ...       0.40 
freq.     171.29  E(vib)   ...       0.38 
freq.     185.17  E(vib)   ...       0.37 
freq.     213.88  E(vib)   ...       0.34 
freq.     248.74  E(vib)   ...       0.31 
freq.     255.40  E(vib)   ...       0.30 
freq.     285.50  E(vib)   ...       0.28 
freq.     309.80  E(vib)   ...       0.26 
freq.     316.89  E(vib)   ...       0.25 
freq.     349.97  E(vib)   ...       0.23 
freq.     367.78  E(vib)   ...       0.21 
freq.     406.59  E(vib)   ...       0.19 
freq.     475.88  E(vib)   ...       0.15 
freq.     494.60  E(vib)   ...       0.14 
freq.     527.24  E(vib)   ...       0.13 
freq.     569.73  E(vib)   ...       0.11 
freq.     582.43  E(vib)   ...       0.11 
freq.     606.23  E(vib)   ...       0.10 
freq.     635.78  E(vib)   ...       0.09 
freq.     669.67  E(vib)   ...       0.08 
freq.     712.85  E(vib)   ...       0.07 
freq.     727.15  E(vib)   ...       0.06 
freq.     765.84  E(vib)   ...       0.06 
freq.     769.57  E(vib)   ...       0.06 
freq.     780.36  E(vib)   ...       0.05 
freq.     814.15  E(vib)   ...       0.05 
freq.     842.99  E(vib)   ...       0.04 
freq.     876.16  E(vib)   ...       0.04 
freq.     895.42  E(vib)   ...       0.03 
freq.     915.85  E(vib)   ...       0.03 
freq.     957.80  E(vib)   ...       0.03 
freq.     968.96  E(vib)   ...       0.03 
freq.     993.34  E(vib)   ...       0.02 
freq.    1002.02  E(vib)   ...       0.02 
freq.    1009.40  E(vib)   ...       0.02 
freq.    1037.09  E(vib)   ...       0.02 
freq.    1054.59  E(vib)   ...       0.02 
freq.    1071.47  E(vib)   ...       0.02 
freq.    1084.02  E(vib)   ...       0.02 
freq.    1114.62  E(vib)   ...       0.01 
freq.    1137.37  E(vib)   ...       0.01 
freq.    1171.27  E(vib)   ...       0.01 
freq.    1171.85  E(vib)   ...       0.01 
freq.    1174.72  E(vib)   ...       0.01 
freq.    1193.87  E(vib)   ...       0.01 
freq.    1205.45  E(vib)   ...       0.01 
freq.    1212.04  E(vib)   ...       0.01 
freq.    1230.84  E(vib)   ...       0.01 
freq.    1235.72  E(vib)   ...       0.01 
freq.    1273.47  E(vib)   ...       0.01 
freq.    1290.14  E(vib)   ...       0.01 
freq.    1305.30  E(vib)   ...       0.01 
freq.    1321.24  E(vib)   ...       0.01 
freq.    1341.13  E(vib)   ...       0.01 
freq.    1365.24  E(vib)   ...       0.01 
freq.    1383.02  E(vib)   ...       0.01 
freq.    1394.30  E(vib)   ...       0.00 
freq.    1430.93  E(vib)   ...       0.00 
freq.    1450.17  E(vib)   ...       0.00 
freq.    1460.47  E(vib)   ...       0.00 
freq.    1465.71  E(vib)   ...       0.00 
freq.    1466.32  E(vib)   ...       0.00 
freq.    1469.38  E(vib)   ...       0.00 
freq.    1473.16  E(vib)   ...       0.00 
freq.    1473.84  E(vib)   ...       0.00 
freq.    1483.35  E(vib)   ...       0.00 
freq.    1498.17  E(vib)   ...       0.00 
freq.    1536.30  E(vib)   ...       0.00 
freq.    1649.08  E(vib)   ...       0.00 
freq.    1663.07  E(vib)   ...       0.00 
freq.    1760.20  E(vib)   ...       0.00 
freq.    1804.42  E(vib)   ...       0.00 
freq.    3038.23  E(vib)   ...       0.00 
freq.    3051.05  E(vib)   ...       0.00 
freq.    3074.70  E(vib)   ...       0.00 
freq.    3104.95  E(vib)   ...       0.00 
freq.    3109.85  E(vib)   ...       0.00 
freq.    3111.49  E(vib)   ...       0.00 
freq.    3139.18  E(vib)   ...       0.00 
freq.    3159.92  E(vib)   ...       0.00 
freq.    3165.39  E(vib)   ...       0.00 
freq.    3166.51  E(vib)   ...       0.00 
freq.    3185.19  E(vib)   ...       0.00 
freq.    3193.22  E(vib)   ...       0.00 
freq.    3196.21  E(vib)   ...       0.00 
freq.    3214.38  E(vib)   ...       0.00 
freq.    3230.98  E(vib)   ...       0.00 

------------
INNER ENERGY
------------

The inner energy is: U= E(el) + E(ZPE) + E(vib) + E(rot) + E(trans)
    E(el)   - is the total energy from the electronic structure calculation
              = E(kin-el) + E(nuc-el) + E(el-el) + E(nuc-nuc)
    E(ZPE)  - the the zero temperature vibrational energy from the frequency calculation
    E(vib)  - the the finite temperature correction to E(ZPE) due to population
              of excited vibrational states
    E(rot)  - is the rotational thermal energy
    E(trans)- is the translational thermal energy

Summary of contributions to the inner energy U:
Electronic energy                ...   -934.54274508 Eh
Zero point energy                ...      0.27000798 Eh     169.43 kcal/mol
Thermal vibrational correction   ...      0.01553822 Eh       9.75 kcal/mol
Thermal rotational correction    ...      0.00141627 Eh       0.89 kcal/mol
Thermal translational correction ...      0.00141627 Eh       0.89 kcal/mol
-----------------------------------------------------------------------
Total thermal energy                   -934.25436633 Eh


Summary of corrections to the electronic energy:
(perhaps to be used in another calculation)
Total thermal correction                  0.01837077 Eh      11.53 kcal/mol
Non-thermal (ZPE) correction              0.27000798 Eh     169.43 kcal/mol
-----------------------------------------------------------------------
Total correction                          0.28837875 Eh     180.96 kcal/mol


--------
ENTHALPY
--------

The enthalpy is H = U + kB*T
                kB is Boltzmann's constant
Total free energy                 ...   -934.25436633 Eh 
Thermal Enthalpy correction       ...      0.00094421 Eh       0.59 kcal/mol
-----------------------------------------------------------------------
Total Enthalpy                    ...   -934.25342213 Eh


Note: Only C1 symmetry has been detected, increase convergence thresholds 
      if your molecule has a higher symmetry. Symmetry factor of 1.0 is   
      used for the rotational entropy correction. 
 

Note: Rotational entropy computed according to Herzberg 
Infrared and Raman Spectra, Chapter V,1, Van Nostrand Reinhold, 1945 
Point Group:  C1, Symmetry Number:   1  
Rotational constants in cm-1:     0.015959     0.011267     0.007553 

Vibrational entropy computed according to the QRRHO of S. Grimme
Chem.Eur.J. 2012 18 9955


-------
ENTROPY
-------

The entropy contributions are T*S = T*(S(el)+S(vib)+S(rot)+S(trans))
     S(el)   - electronic entropy
     S(vib)  - vibrational entropy
     S(rot)  - rotational entropy
     S(trans)- translational entropy
The entropies will be listed as multiplied by the temperature to get
units of energy

Electronic entropy                ...      0.00000000 Eh      0.00 kcal/mol
Vibrational entropy               ...      0.02813991 Eh     17.66 kcal/mol
Rotational entropy                ...      0.01588850 Eh      9.97 kcal/mol
Translational entropy             ...      0.02025290 Eh     12.71 kcal/mol
-----------------------------------------------------------------------
Final entropy term                ...      0.06428131 Eh     40.34 kcal/mol

In case the symmetry of your molecule has not been determined correctly
or in case you have a reason to use a different symmetry number we print 
out the resulting rotational entropy values for sn=1,12 :
 --------------------------------------------------------
|  sn= 1 | S(rot)=       0.01588850 Eh      9.97 kcal/mol|
|  sn= 2 | S(rot)=       0.01523404 Eh      9.56 kcal/mol|
|  sn= 3 | S(rot)=       0.01485121 Eh      9.32 kcal/mol|
|  sn= 4 | S(rot)=       0.01457959 Eh      9.15 kcal/mol|
|  sn= 5 | S(rot)=       0.01436890 Eh      9.02 kcal/mol|
|  sn= 6 | S(rot)=       0.01419675 Eh      8.91 kcal/mol|
|  sn= 7 | S(rot)=       0.01405121 Eh      8.82 kcal/mol|
|  sn= 8 | S(rot)=       0.01392513 Eh      8.74 kcal/mol|
|  sn= 9 | S(rot)=       0.01381392 Eh      8.67 kcal/mol|
|  sn=10 | S(rot)=       0.01371444 Eh      8.61 kcal/mol|
|  sn=11 | S(rot)=       0.01362445 Eh      8.55 kcal/mol|
|  sn=12 | S(rot)=       0.01354230 Eh      8.50 kcal/mol|
 --------------------------------------------------------


-------------------
GIBBS FREE ENERGY
-------------------

The Gibbs free energy is G = H - T*S

Total enthalpy                    ...   -934.25342213 Eh 
Total entropy correction          ...     -0.06428131 Eh    -40.34 kcal/mol
-----------------------------------------------------------------------
Final Gibbs free energy         ...   -934.31770343 Eh

For completeness - the Gibbs free energy minus the electronic energy
G-E(el)                           ...      0.22504165 Eh    141.22 kcal/mol


Timings for individual modules:

Sum of individual times         ...     2084.027 sec (=  34.734 min)
GTO integral calculation        ...       21.213 sec (=   0.354 min)   1.0 %
SCF iterations                  ...      673.825 sec (=  11.230 min)  32.3 %
SCF Gradient evaluation         ...      191.687 sec (=   3.195 min)   9.2 %
Geometry relaxation             ...        1.282 sec (=   0.021 min)   0.1 %
Analytical frequency calculation...     1196.019 sec (=  19.934 min)  57.4 %
                             ****ORCA TERMINATED NORMALLY****
TOTAL RUN TIME: 0 days 0 hours 35 minutes 11 seconds 457 msec
