
                                 *****************
                                 * O   R   C   A *
                                 *****************

                                            #,                                       
                                            ###                                      
                                            ####                                     
                                            #####                                    
                                            ######                                   
                                           ########,                                 
                                     ,,################,,,,,                         
                               ,,#################################,,                 
                          ,,##########################################,,             
                       ,#########################################, ''#####,          
                    ,#############################################,,   '####,        
                  ,##################################################,,,,####,       
                ,###########''''           ''''###############################       
              ,#####''   ,,,,##########,,,,          '''####'''          '####       
            ,##' ,,,,###########################,,,                        '##       
           ' ,,###''''                  '''############,,,                           
         ,,##''                                '''############,,,,        ,,,,,,###''
      ,#''                                            '''#######################'''  
     '                                                          ''''####''''         
             ,#######,   #######,   ,#######,      ##                                
            ,#'     '#,  ##    ##  ,#'     '#,    #''#        ######   ,####,        
            ##       ##  ##   ,#'  ##            #'  '#       #        #'  '#        
            ##       ##  #######   ##           ,######,      #####,   #    #        
            '#,     ,#'  ##    ##  '#,     ,#' ,#      #,         ##   #,  ,#        
             '#######'   ##     ##  '#######'  #'      '#     #####' # '####'        



                  #######################################################
                  #                        -***-                        #
                  #          Department of theory and spectroscopy      #
                  #    Directorship and core code : Frank Neese         #
                  #        Max Planck Institute fuer Kohlenforschung    #
                  #                Kaiser Wilhelm Platz 1               #
                  #                 D-45470 Muelheim/Ruhr               #
                  #                      Germany                        #
                  #                                                     #
                  #                  All rights reserved                #
                  #                        -***-                        #
                  #######################################################


                         Program Version 5.0.4 -  RELEASE  -


 With contributions from (in alphabetic order):
   Daniel Aravena         : Magnetic Suceptibility
   Michael Atanasov       : Ab Initio Ligand Field Theory (pilot matlab implementation)
   Alexander A. Auer      : GIAO ZORA, VPT2 properties, NMR spectrum
   Ute Becker             : Parallelization
   Giovanni Bistoni       : ED, misc. LED, open-shell LED, HFLD
   Martin Brehm           : Molecular dynamics
   Dmytro Bykov           : SCF Hessian
   Vijay G. Chilkuri      : MRCI spin determinant printing, contributions to CSF-ICE
   Dipayan Datta          : RHF DLPNO-CCSD density
   Achintya Kumar Dutta   : EOM-CC, STEOM-CC
   Dmitry Ganyushin       : Spin-Orbit,Spin-Spin,Magnetic field MRCI
   Miquel Garcia          : C-PCM and meta-GGA Hessian, CC/C-PCM, Gaussian charge scheme
   Yang Guo               : DLPNO-NEVPT2, F12-NEVPT2, CIM, IAO-localization
   Andreas Hansen         : Spin unrestricted coupled pair/coupled cluster methods
   Benjamin Helmich-Paris : MC-RPA, TRAH-SCF, COSX integrals
   Lee Huntington         : MR-EOM, pCC
   Robert Izsak           : Overlap fitted RIJCOSX, COSX-SCS-MP3, EOM
   Marcus Kettner         : VPT2
   Christian Kollmar      : KDIIS, OOCD, Brueckner-CCSD(T), CCSD density, CASPT2, CASPT2-K
   Simone Kossmann        : Meta GGA functionals, TD-DFT gradient, OOMP2, MP2 Hessian
   Martin Krupicka        : Initial AUTO-CI
   Lucas Lang             : DCDCAS
   Marvin Lechner         : AUTO-CI (C++ implementation), FIC-MRCC
   Dagmar Lenk            : GEPOL surface, SMD
   Dimitrios Liakos       : Extrapolation schemes; Compound Job, initial MDCI parallelization
   Dimitrios Manganas     : Further ROCIS development; embedding schemes
   Dimitrios Pantazis     : SARC Basis sets
   Anastasios Papadopoulos: AUTO-CI, single reference methods and gradients
   Taras Petrenko         : DFT Hessian,TD-DFT gradient, ASA, ECA, R-Raman, ABS, FL, XAS/XES, NRVS
   Peter Pinski           : DLPNO-MP2, DLPNO-MP2 Gradient
   Christoph Reimann      : Effective Core Potentials
   Marius Retegan         : Local ZFS, SOC
   Christoph Riplinger    : Optimizer, TS searches, QM/MM, DLPNO-CCSD(T), (RO)-DLPNO pert. Triples
   Tobias Risthaus        : Range-separated hybrids, TD-DFT gradient, RPA, STAB
   Michael Roemelt        : Original ROCIS implementation
   Masaaki Saitow         : Open-shell DLPNO-CCSD energy and density
   Barbara Sandhoefer     : DKH picture change effects
   Avijit Sen             : IP-ROCIS
   Kantharuban Sivalingam : CASSCF convergence, NEVPT2, FIC-MRCI
   Bernardo de Souza      : ESD, SOC TD-DFT
   Georgi Stoychev        : AutoAux, RI-MP2 NMR, DLPNO-MP2 response
   Willem Van den Heuvel  : Paramagnetic NMR
   Boris Wezisla          : Elementary symmetry handling
   Frank Wennmohs         : Technical directorship


 We gratefully acknowledge several colleagues who have allowed us to
 interface, adapt or use parts of their codes:
   Stefan Grimme, W. Hujo, H. Kruse, P. Pracht,  : VdW corrections, initial TS optimization,
                  C. Bannwarth, S. Ehlert          DFT functionals, gCP, sTDA/sTD-DF
   Ed Valeev, F. Pavosevic, A. Kumar             : LibInt (2-el integral package), F12 methods
   Garnet Chan, S. Sharma, J. Yang, R. Olivares  : DMRG
   Ulf Ekstrom                                   : XCFun DFT Library
   Mihaly Kallay                                 : mrcc  (arbitrary order and MRCC methods)
   Jiri Pittner, Ondrej Demel                    : Mk-CCSD
   Frank Weinhold                                : gennbo (NPA and NBO analysis)
   Christopher J. Cramer and Donald G. Truhlar   : smd solvation model
   Lars Goerigk                                  : TD-DFT with DH, B97 family of functionals
   V. Asgeirsson, H. Jonsson                     : NEB implementation
   FAccTs GmbH                                   : IRC, NEB, NEB-TS, DLPNO-Multilevel, CI-OPT
                                                   MM, QMMM, 2- and 3-layer-ONIOM, Crystal-QMMM,
                                                   LR-CPCM, SF, NACMEs, symmetry and pop. for TD-DFT,
                                                   nearIR, NL-DFT gradient (VV10), updates on ESD,
                                                   ML-optimized integration grids
   S Lehtola, MJT Oliveira, MAL Marques          : LibXC Library
   Liviu Ungur et al                             : ANISO software


 Your calculation uses the libint2 library for the computation of 2-el integrals
 For citations please refer to: http://libint.valeyev.net

 Your ORCA version has been built with support for libXC version: 5.1.0
 For citations please refer to: https://tddft.org/programs/libxc/

 This ORCA versions uses:
   CBLAS   interface :  Fast vector & matrix operations
   LAPACKE interface :  Fast linear algebra routines
   SCALAPACK package :  Parallel linear algebra routines
   Shared memory     :  Shared parallel matrices
   BLAS/LAPACK       :  OpenBLAS 0.3.15  USE64BITINT DYNAMIC_ARCH NO_AFFINITY Haswell SINGLE_THREADED
        Core in use  :  Haswell
   Copyright (c) 2011-2014, The OpenBLAS Project


Your calculation utilizes the atom-pairwise dispersion correction
with the Becke-Johnson damping scheme (D3BJ)
Cite in your paper:
S.Grimme, S.Ehrlich, L.Goerigk, J Comput Chem, (2011), 32, 1456–1465 
S.Grimme, J.Antony, S.Ehrlich and H.Krieg, J.Chem.Phys., 132, (2010), 154104 
   

================================================================================

----- Orbital basis set information -----
Your calculation utilizes the basis: def2-TZVP
   F. Weigend and R. Ahlrichs, Phys. Chem. Chem. Phys. 7, 3297 (2005).

----- AuxJ basis set information -----
Your calculation utilizes the auxiliary basis: def2/J
   F. Weigend, Phys. Chem. Chem. Phys. 8, 1057 (2006).

================================================================================
                                        WARNINGS
                       Please study these warnings very carefully!
================================================================================


WARNING: Geometry Optimization
  ===> : Switching off AutoStart
         For restart on a previous wavefunction, please use MOREAD

INFO   : the flag for use of the SHARK integral package has been found!

================================================================================
                                       INPUT FILE
================================================================================
NAME = 4_N3/4_N3.inp
|  1> %pal nprocs 24 end
|  2> %maxcore 3500
|  3> ! PBE0 D3BJ def2-TZVP TightSCF OPT FREQ TightOpt
|  4> ! CPCM(dmso)
|  5> %scf
|  6> MaxIter 800
|  7> end
|  8> %geom
|  9> MaxIter 800
| 10> MaxStep 0.2
| 11> end
| 12> *xyz 0 1
| 13> C       -0.173234858     -1.067997995      0.558411283
| 14> C       -0.522436333     -2.213684274     -0.384093825
| 15> O       -1.262325715     -2.049794044     -1.333024012
| 16> O        0.073080618     -3.354750648     -0.052912840
| 17> C       -0.191057663     -4.470081693     -0.914843661
| 18> H       -1.101444975     -0.624314032      0.917523915
| 19> H        0.148496824     -4.243974184     -1.937000577
| 20> H       -1.267101600     -4.691128805     -0.916504817
| 21> C        2.050195576     -0.580461404      0.288427869
| 22> C        0.736852312     -0.032539113     -0.139442911
| 23> C        0.502846785      1.388233026      0.314478168
| 24> C        1.294267119      2.007862396      1.268048244
| 25> C        1.042094363      3.312518724      1.675238569
| 26> C       -0.020833143      4.002522073      1.117472941
| 27> C       -0.833904657      3.402127973      0.163794270
| 28> C       -0.577253023      2.095436195     -0.235798259
| 29> O       -1.317445219      1.420900939     -1.138762544
| 30> C       -2.427264148      2.078034316     -1.722952620
| 31> N        1.930320188     -1.369333059      1.312990623
| 32> O        2.759446804     -1.966891511      1.999091851
| 33> H        0.609727626     -0.098799016     -1.221140131
| 34> H        2.126750231      1.466152983      1.704707445
| 35> H        1.673887694      3.780207581      2.420597435
| 36> H       -0.230249773      5.021613968      1.422645613
| 37> H       -1.662989104      3.953646683     -0.259202861
| 38> H       -2.112173801      2.967651727     -2.275260931
| 39> H       -3.160413916      2.361582834     -0.962540942
| 40> H       -2.872960347      1.361136561     -2.409245635
| 41> O        0.566956484     -1.500921286      1.690744138
| 42> H        0.378815091     -5.306556174     -0.492440867
| 43> N        3.231857439     -0.235061213     -0.310720010
| 44> N        4.307733459     -0.644690483      0.132395820
| 45> N        5.363217752     -0.918397546      0.384621701
| 46> **                         ****END OF INPUT****
================================================================================

                       *****************************
                       * Geometry Optimization Run *
                       *****************************

Geometry optimization settings:
Update method            Update   .... BFGS
Choice of coordinates    CoordSys .... Z-matrix Internals
Initial Hessian          InHess   .... Almoef's Model

Convergence Tolerances:
Energy Change            TolE     ....  1.0000e-06 Eh
Max. Gradient            TolMAXG  ....  1.0000e-04 Eh/bohr
RMS Gradient             TolRMSG  ....  3.0000e-05 Eh/bohr
Max. Displacement        TolMAXD  ....  1.0000e-03 bohr
RMS Displacement         TolRMSD  ....  6.0000e-04 bohr
Strict Convergence                ....  False
------------------------------------------------------------------------------
                        ORCA OPTIMIZATION COORDINATE SETUP
------------------------------------------------------------------------------

The optimization will be done in new redundant internal coordinates
Making redundant internal coordinates   ...  (new redundants) done
Evaluating the initial hessian          ...  (Almloef) done
Evaluating the coordinates              ...  done
Calculating the B-matrix                .... done
Calculating the G-matrix                .... done
Diagonalizing the G-matrix              .... done
Small eigenvalue found = 4.811e-03
Small eigenvalue found = 1.010e-02
Small eigenvalue found = 1.583e-02
Small eigenvalue found = 1.870e-02
Small eigenvalue found = 2.203e-02
The first mode is                       ....   70
The number of degrees of freedom        ....   93

    -----------------------------------------------------------------
                    Redundant Internal Coordinates


    -----------------------------------------------------------------
         Definition                    Initial Value    Approx d2E/dq
    -----------------------------------------------------------------
      1. B(C   1,C   0)                  1.5241         0.381772   
      2. B(O   2,C   1)                  1.2144         1.066684   
      3. B(O   3,C   1)                  1.3290         0.700051   
      4. B(C   4,O   3)                  1.4341         0.475892   
      5. B(H   5,C   0)                  1.0897         0.360530   
      6. B(H   6,C   4)                  1.1006         0.346401   
      7. B(H   7,C   4)                  1.0985         0.349010   
      8. B(C   9,C   8)                  1.4860         0.439131   
      9. B(C   9,C   0)                  1.5451         0.353374   
     10. B(C  10,C   9)                  1.5098         0.402400   
     11. B(C  11,C  10)                  1.3855         0.635234   
     12. B(C  12,C  11)                  1.3898         0.625273   
     13. B(C  13,C  12)                  1.3846         0.637395   
     14. B(C  14,C  13)                  1.3896         0.625655   
     15. B(C  15,C  10)                  1.4034         0.594766   
     16. B(C  15,C  14)                  1.3903         0.624064   
     17. B(O  16,C  15)                  1.3484         0.651958   
     18. B(C  17,O  16)                  1.4159         0.508789   
     19. B(N  18,C   8)                  1.2986         0.782824   
     20. B(O  19,N  18)                  1.2310         0.898982   
     21. B(H  20,C   9)                  1.0912         0.358575   
     22. B(H  21,C  11)                  1.0850         0.366823   
     23. B(H  22,C  12)                  1.0833         0.369125   
     24. B(H  23,C  13)                  1.0842         0.367827   
     25. B(H  24,C  14)                  1.0819         0.370993   
     26. B(H  25,C  17)                  1.0935         0.355498   
     27. B(H  26,C  17)                  1.0937         0.355266   
     28. B(H  27,C  17)                  1.0879         0.362853   
     29. B(O  28,N  18)                  1.4208         0.447524   
     30. B(O  28,C   0)                  1.4204         0.500500   
     31. B(H  29,C   4)                  1.0968         0.351276   
     32. B(N  30,C   8)                  1.3692         0.604117   
     33. B(N  31,N  30)                  1.2336         0.890453   
     34. B(N  32,N  31)                  1.1192         1.355428   
     35. A(C   1,C   0,O  28)          112.5367         0.381148   
     36. A(C   9,C   0,O  28)          104.9139         0.376082   
     37. A(C   1,C   0,C   9)          111.0640         0.361255   
     38. A(C   1,C   0,H   5)          108.3432         0.325542   
     39. A(H   5,C   0,C   9)          112.1918         0.321439   
     40. A(H   5,C   0,O  28)          107.7750         0.338423   
     41. A(O   2,C   1,O   3)          125.7029         0.483455   
     42. A(C   0,C   1,O   2)          121.4240         0.435725   
     43. A(C   0,C   1,O   3)          112.8695         0.404200   
     44. A(C   1,O   3,C   4)          115.8123         0.417594   
     45. A(H   7,C   4,H  29)          110.8599         0.288293   
     46. A(O   3,C   4,H   6)          109.9745         0.333372   
     47. A(O   3,C   4,H   7)          109.7441         0.333787   
     48. A(O   3,C   4,H  29)          105.4248         0.334146   
     49. A(H   6,C   4,H   7)          110.0082         0.287664   
     50. A(H   6,C   4,H  29)          110.7372         0.287955   
     51. A(C   9,C   8,N  18)          111.6894         0.422681   
     52. A(N  18,C   8,N  30)          125.3217         0.444710   
     53. A(C   9,C   8,N  30)          122.9401         0.403672   
     54. A(C  10,C   9,H  20)          109.7026         0.328081   
     55. A(C   8,C   9,H  20)          111.4703         0.332855   
     56. A(C   0,C   9,H  20)          109.7804         0.321153   
     57. A(C   0,C   9,C  10)          113.8008         0.364517   
     58. A(C   8,C   9,C  10)          113.4162         0.378405   
     59. A(C   0,C   9,C   8)           98.2462         0.370019   
     60. A(C   9,C  10,C  11)          122.6331         0.403628   
     61. A(C  11,C  10,C  15)          118.9551         0.432719   
     62. A(C   9,C  10,C  15)          118.3994         0.398975   
     63. A(C  12,C  11,H  21)          119.3411         0.354525   
     64. A(C  10,C  11,H  21)          119.4718         0.355476   
     65. A(C  10,C  11,C  12)          121.1871         0.436633   
     66. A(C  13,C  12,H  22)          120.6486         0.356059   
     67. A(C  11,C  12,H  22)          120.0704         0.354901   
     68. A(C  11,C  12,C  13)          119.2810         0.436900   
     69. A(C  14,C  13,H  23)          119.0948         0.354726   
     70. A(C  12,C  13,H  23)          120.2193         0.355846   
     71. A(C  12,C  13,C  14)          120.6859         0.436948   
     72. A(C  13,C  14,C  15)          119.6897         0.435288   
     73. A(C  15,C  14,H  24)          120.5443         0.355088   
     74. A(C  13,C  14,H  24)          119.7657         0.355242   
     75. A(C  14,C  15,O  16)          124.1447         0.435654   
     76. A(C  10,C  15,O  16)          115.6557         0.431902   
     77. A(C  10,C  15,C  14)          120.1978         0.431342   
     78. A(C  15,O  16,C  17)          118.3196         0.417272   
     79. A(H  26,C  17,H  27)          109.5613         0.290570   
     80. A(H  25,C  17,H  27)          109.6043         0.290600   
     81. A(O  16,C  17,H  27)          105.9952         0.339716   
     82. A(H  25,C  17,H  26)          109.4760         0.289638   
     83. A(O  16,C  17,H  26)          111.0324         0.338520   
     84. A(O  16,C  17,H  25)          111.1069         0.338557   
     85. A(C   8,N  18,O  19)          132.2571         0.474930   
     86. A(O  19,N  18,O  28)          116.9473         0.426196   
     87. A(C   8,N  18,O  28)          110.7686         0.418566   
     88. A(C   0,O  28,N  18)          105.0620         0.386834   
     89. A(C   8,N  30,N  31)          120.7817         0.452161   
     90. A(N  30,N  31,N  32)          169.9640         0.521387   
     91. D(O   2,C   1,C   0,H   5)     53.6138         0.010870   
     92. D(O   3,C   1,C   0,C   9)    109.3085         0.010870   
     93. D(O   3,C   1,C   0,H   5)   -127.0415         0.010870   
     94. D(O   2,C   1,C   0,C   9)    -70.0361         0.010870   
     95. D(O   3,C   1,C   0,O  28)     -7.9767         0.010870   
     96. D(O   2,C   1,C   0,O  28)    172.6786         0.010870   
     97. D(C   4,O   3,C   1,O   2)      0.5053         0.036700   
     98. D(C   4,O   3,C   1,C   0)   -178.8061         0.036700   
     99. D(H   7,C   4,O   3,C   1)    -60.7800         0.017859   
    100. D(H   6,C   4,O   3,C   1)     60.3679         0.017859   
    101. D(H  29,C   4,O   3,C   1)    179.7813         0.017859   
    102. D(C  10,C   9,C   0,C   1)    146.5966         0.010046   
    103. D(H  20,C   9,C   8,N  18)   -133.8641         0.014230   
    104. D(C   8,C   9,C   0,O  28)     28.6270         0.010046   
    105. D(C  10,C   9,C   8,N  30)    -75.8581         0.014230   
    106. D(C   8,C   9,C   0,C   1)    -93.2176         0.010046   
    107. D(C   0,C   9,C   8,N  30)    163.6688         0.014230   
    108. D(C   0,C   9,C   8,N  18)    -18.7482         0.014230   
    109. D(H  20,C   9,C   0,O  28)    145.0602         0.010046   
    110. D(H  20,C   9,C   0,H   5)    -98.2062         0.010046   
    111. D(H  20,C   9,C   0,C   1)     23.2156         0.010046   
    112. D(C  10,C   9,C   8,N  18)    101.7249         0.014230   
    113. D(C  10,C   9,C   0,O  28)    -91.5588         0.010046   
    114. D(C  10,C   9,C   0,H   5)     25.1748         0.010046   
    115. D(H  20,C   9,C   8,N  30)     48.5529         0.014230   
    116. D(C   8,C   9,C   0,H   5)    145.3607         0.010046   
    117. D(C  15,C  10,C   9,C   0)    -80.6714         0.012011   
    118. D(C  11,C  10,C   9,H  20)   -138.5428         0.012011   
    119. D(C  11,C  10,C   9,C   8)    -13.1795         0.012011   
    120. D(C  15,C  10,C   9,C   8)    168.1152         0.012011   
    121. D(C  11,C  10,C   9,C   0)     98.0339         0.012011   
    122. D(C  15,C  10,C   9,H  20)     42.7519         0.012011   
    123. D(H  21,C  11,C  10,C  15)    179.5221         0.028008   
    124. D(H  21,C  11,C  10,C   9)      0.8236         0.028008   
    125. D(C  12,C  11,C  10,C  15)     -0.5409         0.028008   
    126. D(C  12,C  11,C  10,C   9)   -179.2393         0.028008   
    127. D(H  22,C  12,C  11,H  21)      0.0746         0.027082   
    128. D(H  22,C  12,C  11,C  10)   -179.8626         0.027082   
    129. D(C  13,C  12,C  11,H  21)   -179.9811         0.027082   
    130. D(C  13,C  12,C  11,C  10)      0.0818         0.027082   
    131. D(H  23,C  13,C  12,H  22)      0.0565         0.028212   
    132. D(H  23,C  13,C  12,C  11)   -179.8875         0.028212   
    133. D(C  14,C  13,C  12,H  22)   -179.8321         0.028212   
    134. D(C  14,C  13,C  12,C  11)      0.2239         0.028212   
    135. D(H  24,C  14,C  13,H  23)     -0.1481         0.027117   
    136. D(H  24,C  14,C  13,C  12)    179.7418         0.027117   
    137. D(C  15,C  14,C  13,H  23)   -179.9481         0.027117   
    138. D(C  15,C  14,C  13,C  12)     -0.0583         0.027117   
    139. D(O  16,C  15,C  14,H  24)     -0.7344         0.026971   
    140. D(C  10,C  15,C  14,H  24)    179.7918         0.026971   
    141. D(C  10,C  15,C  14,C  13)     -0.4098         0.026971   
    142. D(O  16,C  15,C  10,C  11)   -178.8136         0.024364   
    143. D(O  16,C  15,C  10,C   9)     -0.0597         0.024364   
    144. D(O  16,C  15,C  14,C  13)    179.0640         0.026971   
    145. D(C  14,C  15,C  10,C  11)      0.7033         0.024364   
    146. D(C  14,C  15,C  10,C   9)    179.4572         0.024364   
    147. D(C  17,O  16,C  15,C  14)      0.0737         0.031429   
    148. D(C  17,O  16,C  15,C  10)    179.5692         0.031429   
    149. D(H  27,C  17,O  16,C  15)   -179.9695         0.020489   
    150. D(H  26,C  17,O  16,C  15)    -61.0629         0.020489   
    151. D(H  25,C  17,O  16,C  15)     61.0320         0.020489   
    152. D(O  19,N  18,C   8,N  30)      1.2614         0.051973   
    153. D(O  19,N  18,C   8,C   9)   -176.2524         0.051973   
    154. D(O  28,N  18,C   8,N  30)    179.2654         0.051973   
    155. D(O  28,N  18,C   8,C   9)      1.7515         0.051973   
    156. D(C   0,O  28,N  18,O  19)   -163.5447         0.016653   
    157. D(C   0,O  28,N  18,C   8)     18.1124         0.016653   
    158. D(N  18,O  28,C   0,C   9)    -29.2424         0.019805   
    159. D(N  18,O  28,C   0,H   5)   -148.9685         0.019805   
    160. D(N  18,O  28,C   0,C   1)     91.6357         0.019805   
    161. D(N  31,N  30,C   8,N  18)     -2.0868         0.026679   
    162. D(N  31,N  30,C   8,C   9)    175.1604         0.026679   
    163. D(N  32,N  31,N  30,C   8)    178.6978         0.065897   
    -----------------------------------------------------------------

Number of atoms                         .... 33
Number of degrees of freedom            .... 163

         *************************************************************
         *                GEOMETRY OPTIMIZATION CYCLE   1            *
         *************************************************************
---------------------------------
CARTESIAN COORDINATES (ANGSTROEM)
---------------------------------
  C     -0.173235   -1.067998    0.558411
  C     -0.522436   -2.213684   -0.384094
  O     -1.262326   -2.049794   -1.333024
  O      0.073081   -3.354751   -0.052913
  C     -0.191058   -4.470082   -0.914844
  H     -1.101445   -0.624314    0.917524
  H      0.148497   -4.243974   -1.937001
  H     -1.267102   -4.691129   -0.916505
  C      2.050196   -0.580461    0.288428
  C      0.736852   -0.032539   -0.139443
  C      0.502847    1.388233    0.314478
  C      1.294267    2.007862    1.268048
  C      1.042094    3.312519    1.675239
  C     -0.020833    4.002522    1.117473
  C     -0.833905    3.402128    0.163794
  C     -0.577253    2.095436   -0.235798
  O     -1.317445    1.420901   -1.138763
  C     -2.427264    2.078034   -1.722953
  N      1.930320   -1.369333    1.312991
  O      2.759447   -1.966892    1.999092
  H      0.609728   -0.098799   -1.221140
  H      2.126750    1.466153    1.704707
  H      1.673888    3.780208    2.420597
  H     -0.230250    5.021614    1.422646
  H     -1.662989    3.953647   -0.259203
  H     -2.112174    2.967652   -2.275261
  H     -3.160414    2.361583   -0.962541
  H     -2.872960    1.361137   -2.409246
  O      0.566956   -1.500921    1.690744
  H      0.378815   -5.306556   -0.492441
  N      3.231857   -0.235061   -0.310720
  N      4.307733   -0.644690    0.132396
  N      5.363218   -0.918398    0.384622

----------------------------
CARTESIAN COORDINATES (A.U.)
----------------------------
  NO LB      ZA    FRAG     MASS         X           Y           Z
   0 C     6.0000    0    12.011   -0.327366   -2.018224    1.055244
   1 C     6.0000    0    12.011   -0.987262   -4.183257   -0.725832
   2 O     8.0000    0    15.999   -2.385450   -3.873549   -2.519050
   3 O     8.0000    0    15.999    0.138102   -6.339560   -0.099991
   4 C     6.0000    0    12.011   -0.361047   -8.447230   -1.728804
   5 H     1.0000    0     1.008   -2.081429   -1.179783    1.733869
   6 H     1.0000    0     1.008    0.280618   -8.019949   -3.660401
   7 H     1.0000    0     1.008   -2.394475   -8.864949   -1.731943
   8 C     6.0000    0    12.011    3.874308   -1.096913    0.545050
   9 C     6.0000    0    12.011    1.392449   -0.061490   -0.263509
  10 C     6.0000    0    12.011    0.950243    2.623380    0.594278
  11 C     6.0000    0    12.011    2.445810    3.794310    2.396264
  12 C     6.0000    0    12.011    1.969273    6.259753    3.165742
  13 C     6.0000    0    12.011   -0.039369    7.563671    2.111718
  14 C     6.0000    0    12.011   -1.575851    6.429090    0.309526
  15 C     6.0000    0    12.011   -1.090850    3.959801   -0.445594
  16 O     8.0000    0    15.999   -2.489611    2.685114   -2.151949
  17 C     6.0000    0    12.011   -4.586864    3.926916   -3.255909
  18 N     7.0000    0    14.007    3.647777   -2.587664    2.481193
  19 O     8.0000    0    15.999    5.214599   -3.716886    3.777736
  20 H     1.0000    0     1.008    1.152218   -0.186703   -2.307620
  21 H     1.0000    0     1.008    4.018975    2.770628    3.221430
  22 H     1.0000    0     1.008    3.163189    7.143557    4.574266
  23 H     1.0000    0     1.008   -0.435109    9.489475    2.688411
  24 H     1.0000    0     1.008   -3.142594    7.471309   -0.489822
  25 H     1.0000    0     1.008   -3.991430    5.608049   -4.299620
  26 H     1.0000    0     1.008   -5.972317    4.462745   -1.818939
  27 H     1.0000    0     1.008   -5.429108    2.572175   -4.552814
  28 O     8.0000    0    15.999    1.071392   -2.836330    3.195043
  29 H     1.0000    0     1.008    0.715857  -10.027938   -0.930578
  30 N     7.0000    0    14.007    6.107325   -0.444201   -0.587176
  31 N     7.0000    0    14.007    8.140436   -1.218288    0.250192
  32 N     7.0000    0    14.007   10.135013   -1.735520    0.726830

--------------------------------
INTERNAL COORDINATES (ANGSTROEM)
--------------------------------
 C      0   0   0     0.000000000000     0.00000000     0.00000000
 C      1   0   0     1.524091401011     0.00000000     0.00000000
 O      2   1   0     1.214398947993   121.42401035     0.00000000
 O      2   1   3     1.329042419800   112.86949387   179.34467028
 C      4   2   1     1.434104986262   115.81229756   181.19392059
 H      1   2   3     1.089674888573   108.34318764    53.61382978
 H      5   4   2     1.100557411585   109.97446688    60.36793542
 H      5   4   2     1.098514970092   109.74411509   299.22001497
 C      1   2   3     2.292209821599   108.01665957   247.61892129
 C      9   1   2     1.485988819085    41.84444210   101.55040536
 C     10   9   1     1.509767003079   113.41621555   120.47313183
 C     11  10   9     1.385490018397   122.63310362   346.82049255
 C     12  11  10     1.389792500279   121.18711676   180.76070404
 C     13  12  11     1.384565636010   119.28099307     0.08178686
 C     14  13  12     1.389626341760   120.68587091     0.22385124
 C     15  14  13     1.390319263033   119.68971049   359.94174016
 O     16  15  14     1.348416404006   124.14465469   179.06404719
 C     17  16  15     1.415909734140   118.31964142     0.07368809
 N      9   1   2     1.298621358824    71.84007222   263.23124716
 O     19   9   1     1.230959765378   132.25709031   170.70611423
 H     10   9   1     1.091155321800   111.47031367   244.88409111
 H     12  11  10     1.084964735702   119.47176631     0.82362958
 H     13  12  11     1.083261519294   120.07036816   180.13742909
 H     14  13  12     1.084220445809   120.21925777   180.11247406
 H     15  14  13     1.081887462064   119.76572613   179.74175648
 H     18  17  16     1.093501502114   111.10691166    61.03196634
 H     18  17  16     1.093679232873   111.03236922   298.93709604
 H     18  17  16     1.087927201317   105.99522405   180.03046364
 O      1   2   3     1.420381460445   112.53671470   172.67858681
 H      5   4   2     1.096753679499   105.42479510   179.78134538
 N      9   1   2     1.369161871848   160.45117487    56.70035449
 N     31   9   1     1.233554614943   120.78168120   209.25810529
 N     32  31   9     1.119187448175   169.96402303   178.69775297

---------------------------
INTERNAL COORDINATES (A.U.)
---------------------------
 C      0   0   0     0.000000000000     0.00000000     0.00000000
 C      1   0   0     2.880115350976     0.00000000     0.00000000
 O      2   1   0     2.294881429028   121.42401035     0.00000000
 O      2   1   3     2.511526193786   112.86949387   179.34467028
 C      4   2   1     2.710065671325   115.81229756   181.19392059
 H      1   2   3     2.059187114414   108.34318764    53.61382978
 H      5   4   2     2.079752102553   109.97446688    60.36793542
 H      5   4   2     2.075892447487   109.74411509   299.22001497
 C      1   2   3     4.331648804307   108.01665957   247.61892129
 C      9   1   2     2.808111906140    41.84444210   101.55040536
 C     10   9   1     2.853046161850   113.41621555   120.47313183
 C     11  10   9     2.618196696052   122.63310362   346.82049255
 C     12  11  10     2.626327208506   121.18711676   180.76070404
 C     13  12  11     2.616449866498   119.28099307     0.08178686
 C     14  13  12     2.626013214409   120.68587091     0.22385124
 C     15  14  13     2.627322645847   119.68971049   359.94174016
 O     16  15  14     2.548137718058   124.14465469   179.06404719
 C     17  16  15     2.675681627877   118.31964142     0.07368809
 N      9   1   2     2.454038719839    71.84007222   263.23124716
 O     19   9   1     2.326176838440   132.25709031   170.70611423
 H     10   9   1     2.061984727772   111.47031367   244.88409111
 H     12  11  10     2.050286215438   119.47176631     0.82362958
 H     13  12  11     2.047067602881   120.07036816   180.13742909
 H     14  13  12     2.048879711378   120.21925777   180.11247406
 H     15  14  13     2.044471011024   119.76572613   179.74175648
 H     18  17  16     2.066418366028   111.10691166    61.03196634
 H     18  17  16     2.066754228487   111.03236922   298.93709604
 H     18  17  16     2.055884464132   105.99522405   180.03046364
 O      1   2   3     2.684131965939   112.53671470   172.67858681
 H      5   4   2     2.072564090624   105.42479510   179.78134538
 N      9   1   2     2.587340970799   160.45117487    56.70035449
 N     31   9   1     2.331080393478   120.78168120   209.25810529
 N     32  31   9     2.114957769573   169.96402303   178.69775297

---------------------
BASIS SET INFORMATION
---------------------
There are 4 groups of distinct atoms

 Group   1 Type C   : 11s6p2d1f contracted to 5s3p2d1f pattern {62111/411/11/1}
 Group   2 Type O   : 11s6p2d1f contracted to 5s3p2d1f pattern {62111/411/11/1}
 Group   3 Type H   : 5s1p contracted to 3s1p pattern {311/1}
 Group   4 Type N   : 11s6p2d1f contracted to 5s3p2d1f pattern {62111/411/11/1}

Atom   0C    basis set group =>   1
Atom   1C    basis set group =>   1
Atom   2O    basis set group =>   2
Atom   3O    basis set group =>   2
Atom   4C    basis set group =>   1
Atom   5H    basis set group =>   3
Atom   6H    basis set group =>   3
Atom   7H    basis set group =>   3
Atom   8C    basis set group =>   1
Atom   9C    basis set group =>   1
Atom  10C    basis set group =>   1
Atom  11C    basis set group =>   1
Atom  12C    basis set group =>   1
Atom  13C    basis set group =>   1
Atom  14C    basis set group =>   1
Atom  15C    basis set group =>   1
Atom  16O    basis set group =>   2
Atom  17C    basis set group =>   1
Atom  18N    basis set group =>   4
Atom  19O    basis set group =>   2
Atom  20H    basis set group =>   3
Atom  21H    basis set group =>   3
Atom  22H    basis set group =>   3
Atom  23H    basis set group =>   3
Atom  24H    basis set group =>   3
Atom  25H    basis set group =>   3
Atom  26H    basis set group =>   3
Atom  27H    basis set group =>   3
Atom  28O    basis set group =>   2
Atom  29H    basis set group =>   3
Atom  30N    basis set group =>   4
Atom  31N    basis set group =>   4
Atom  32N    basis set group =>   4
---------------------------------
AUXILIARY/J BASIS SET INFORMATION
---------------------------------
There are 4 groups of distinct atoms

 Group   1 Type C   : 12s5p4d2f1g contracted to 6s4p3d1f1g pattern {711111/2111/211/2/1}
 Group   2 Type O   : 12s5p4d2f1g contracted to 6s4p3d1f1g pattern {711111/2111/211/2/1}
 Group   3 Type H   : 5s2p1d contracted to 3s1p1d pattern {311/2/1}
 Group   4 Type N   : 12s5p4d2f1g contracted to 6s4p3d1f1g pattern {711111/2111/211/2/1}

Atom   0C    basis set group =>   1
Atom   1C    basis set group =>   1
Atom   2O    basis set group =>   2
Atom   3O    basis set group =>   2
Atom   4C    basis set group =>   1
Atom   5H    basis set group =>   3
Atom   6H    basis set group =>   3
Atom   7H    basis set group =>   3
Atom   8C    basis set group =>   1
Atom   9C    basis set group =>   1
Atom  10C    basis set group =>   1
Atom  11C    basis set group =>   1
Atom  12C    basis set group =>   1
Atom  13C    basis set group =>   1
Atom  14C    basis set group =>   1
Atom  15C    basis set group =>   1
Atom  16O    basis set group =>   2
Atom  17C    basis set group =>   1
Atom  18N    basis set group =>   4
Atom  19O    basis set group =>   2
Atom  20H    basis set group =>   3
Atom  21H    basis set group =>   3
Atom  22H    basis set group =>   3
Atom  23H    basis set group =>   3
Atom  24H    basis set group =>   3
Atom  25H    basis set group =>   3
Atom  26H    basis set group =>   3
Atom  27H    basis set group =>   3
Atom  28O    basis set group =>   2
Atom  29H    basis set group =>   3
Atom  30N    basis set group =>   4
Atom  31N    basis set group =>   4
Atom  32N    basis set group =>   4


           ************************************************************
           *        Program running with 24 parallel MPI-processes    *
           *              working on a common directory               *
           ************************************************************
------------------------------------------------------------------------------
                           ORCA GTO INTEGRAL CALCULATION
                           -- RI-GTO INTEGRALS CHOSEN --
------------------------------------------------------------------------------
------------------------------------------------------------------------------
                   ___                                                        
                  /   \      - P O W E R E D   B Y -                         
                 /     \                                                     
                 |  |  |   _    _      __       _____    __    __             
                 |  |  |  | |  | |    /  \     |  _  \  |  |  /  |          
                  \  \/   | |  | |   /    \    | | | |  |  | /  /          
                 / \  \   | |__| |  /  /\  \   | |_| |  |  |/  /          
                |  |  |   |  __  | /  /__\  \  |    /   |      \           
                |  |  |   | |  | | |   __   |  |    \   |  |\   \          
                \     /   | |  | | |  |  |  |  | |\  \  |  | \   \       
                 \___/    |_|  |_| |__|  |__|  |_| \__\ |__|  \__/        
                                                                              
                      - O R C A' S   B I G   F R I E N D -                    
                                      &                                       
                       - I N T E G R A L  F E E D E R -                       
                                                                              
 v1 FN, 2020, v2 2021                                                         
------------------------------------------------------------------------------


Reading SHARK input file 4_N3/4_N3.SHARKINP.tmp ... ok
----------------------
SHARK INTEGRAL PACKAGE
----------------------

Number of atoms                             ...     33
Number of basis functions                   ...    723
Number of shells                            ...    279
Maximum angular momentum                    ...      3
Integral batch strategy                     ... SHARK/LIBINT Hybrid
RI-J (if used) integral strategy            ... SPLIT-RIJ (Revised 2003 algorithm where possible)
Printlevel                                  ...      1
Contraction scheme used                     ... SEGMENTED contraction
Coulomb Range Separation                    ... NOT USED
Exchange Range Separation                   ... NOT USED
Finite Nucleus Model                        ... NOT USED
Auxiliary Coulomb fitting basis             ... AVAILABLE
   # of basis functions in Aux-J            ...   1161
   # of shells in Aux-J                     ...    375
   Maximum angular momentum in Aux-J        ...      4
Auxiliary J/K fitting basis                 ... NOT available
Auxiliary Correlation fitting basis         ... NOT available
Auxiliary 'external' fitting basis          ... NOT available
Integral threshold                          ...     2.500000e-11
Primitive cut-off                           ...     2.500000e-12
Primitive pair pre-selection threshold      ...     2.500000e-12

Calculating pre-screening integrals         ... done (  0.1 sec) Dimension = 279
Organizing shell pair data                  ... done (  2.6 sec)
Shell pair information
Total number of shell pairs                 ...     39060
Shell pairs after pre-screening             ...     28341
Total number of primitive shell pairs       ...    121776
Primitive shell pairs kept                  ...     58648
          la=0 lb=0:   6923 shell pairs
          la=1 lb=0:   8034 shell pairs
          la=1 lb=1:   2334 shell pairs
          la=2 lb=0:   4105 shell pairs
          la=2 lb=1:   2436 shell pairs
          la=2 lb=2:    646 shell pairs
          la=3 lb=0:   1942 shell pairs
          la=3 lb=1:   1176 shell pairs
          la=3 lb=2:    590 shell pairs
          la=3 lb=3:    155 shell pairs

Calculating one electron integrals          ... done (  0.7 sec)
Calculating RI/J V-Matrix + Cholesky decomp.... done (  0.5 sec)
Calculating Nuclear repulsion               ... done (  0.0 sec) ENN=   1733.929365881531 Eh

SHARK setup successfully completed in   5.3 seconds

Maximum memory used throughout the entire GTOINT-calculation: 44.9 MB


           ************************************************************
           *        Program running with 24 parallel MPI-processes    *
           *              working on a common directory               *
           ************************************************************
-------------------------------------------------------------------------------
                                 ORCA SCF
-------------------------------------------------------------------------------

------------
SCF SETTINGS
------------
Hamiltonian:
 Density Functional     Method          .... DFT(GTOs)
 Exchange Functional    Exchange        .... PBE
   PBE kappa parameter   XKappa         ....  0.804000
   PBE mue parameter    XMuePBE         ....  0.219520
 Correlation Functional Correlation     .... PBE
   PBE beta parameter  CBetaPBE         ....  0.066725
 LDA part of GGA corr.  LDAOpt          .... PW91-LDA
 Gradients option       PostSCFGGA      .... off
 Hybrid DFT is turned on
   Fraction HF Exchange ScalHFX         ....  0.250000
   Scaling of DF-GGA-X  ScalDFX         ....  0.750000
   Scaling of DF-GGA-C  ScalDFC         ....  1.000000
   Scaling of DF-LDA-C  ScalLDAC        ....  1.000000
   Perturbative correction              ....  0.000000
   Density functional embedding theory  .... OFF
   NL short-range parameter             ....  6.900000
 RI-approximation to the Coulomb term is turned on
   Number of AuxJ basis functions       .... 1161
   RIJ-COSX (HFX calculated with COS-X)).... on


General Settings:
 Integral files         IntName         .... 4_N3/4_N3
 Hartree-Fock type      HFTyp           .... RHF
 Total Charge           Charge          ....    0
 Multiplicity           Mult            ....    1
 Number of Electrons    NEL             ....  152
 Basis Dimension        Dim             ....  723
 Nuclear Repulsion      ENuc            ....   1733.9293658815 Eh

Convergence Acceleration:
 DIIS                   CNVDIIS         .... on
   Start iteration      DIISMaxIt       ....    12
   Startup error        DIISStart       ....  0.200000
   # of expansion vecs  DIISMaxEq       ....     5
   Bias factor          DIISBfac        ....   1.050
   Max. coefficient     DIISMaxC        ....  10.000
 Trust-Rad. Augm. Hess. CNVTRAH         .... auto
   Auto Start mean grad. ratio tolernc. ....  1.125000
   Auto Start start iteration           ....    20
   Auto Start num. interpolation iter.  ....    10
   Max. Number of Micro iterations      ....    16
   Max. Number of Macro iterations      .... Maxiter - #DIIS iter
   Number of Davidson start vectors     ....     2
   Converg. threshold I  (grad. norm)   ....   1.000e-05
   Converg. threshold II (energy diff.) ....   1.000e-08
   Grad. Scal. Fac. for Micro threshold ....   0.100
   Minimum threshold for Micro iter.    ....   0.010
   NR start threshold (gradient norm)   ....   0.001
   Initial trust radius                 ....   0.400
   Minimum AH scaling param. (alpha)    ....   1.000
   Maximum AH scaling param. (alpha)    .... 1000.000
   Orbital update algorithm             .... Taylor
   White noise on init. David. guess    .... on
   Maximum white noise                  ....   0.010
   Quad. conv. algorithm                .... NR
 SOSCF                  CNVSOSCF        .... on
   Start iteration      SOSCFMaxIt      ....   150
   Startup grad/error   SOSCFStart      ....  0.003300
 Level Shifting         CNVShift        .... on
   Level shift para.    LevelShift      ....    0.2500
   Turn off err/grad.   ShiftErr        ....    0.0010
 Zerner damping         CNVZerner       .... off
 Static damping         CNVDamp         .... on
   Fraction old density DampFac         ....    0.7000
   Max. Damping (<1)    DampMax         ....    0.9800
   Min. Damping (>=0)   DampMin         ....    0.0000
   Turn off err/grad.   DampErr         ....    0.1000
 Fernandez-Rico         CNVRico         .... off

SCF Procedure:
 Maximum # iterations   MaxIter         ....   800
 SCF integral mode      SCFMode         .... Direct
   Integral package                     .... SHARK and LIBINT hybrid scheme
 Reset frequency        DirectResetFreq ....    20
 Integral Threshold     Thresh          ....  2.500e-11 Eh
 Primitive CutOff       TCut            ....  2.500e-12 Eh

Convergence Tolerance:
 Convergence Check Mode ConvCheckMode   .... Total+1el-Energy
 Convergence forced     ConvForced      .... 0
 Energy Change          TolE            ....  1.000e-08 Eh
 1-El. energy change                    ....  1.000e-05 Eh
 Orbital Gradient       TolG            ....  1.000e-05
 Orbital Rotation angle TolX            ....  1.000e-05
 DIIS Error             TolErr          ....  5.000e-07


Diagonalization of the overlap matrix:
Smallest eigenvalue                        ... 6.346e-06
Time for diagonalization                   ...    0.163 sec
Threshold for overlap eigenvalues          ... 1.000e-08
Number of eigenvalues below threshold      ... 0
Time for construction of square roots      ...    1.304 sec
Total time needed                          ...    1.475 sec

Time for model grid setup =    0.750 sec

------------------------------
INITIAL GUESS: MODEL POTENTIAL
------------------------------
Loading Hartree-Fock densities                     ... done
Calculating cut-offs                               ... done
Initializing the effective Hamiltonian             ... done
Setting up the integral package (SHARK)            ... done
Starting the Coulomb interaction                   ... done (   0.4 sec)
Reading the grid                                   ... done
Mapping shells                                     ... done
Starting the XC term evaluation                    ... done (   0.8 sec)
  promolecular density results
     # of electrons  =    152.000937320
     EX              =   -131.903361307
     EC              =     -5.166524420
     EX+EC           =   -137.069885726
Transforming the Hamiltonian                       ... done (   1.3 sec)
Diagonalizing the Hamiltonian                      ... done (   0.2 sec)
Back transforming the eigenvectors                 ... done (   0.4 sec)
Now organizing SCF variables                       ... done
                      ------------------
                      INITIAL GUESS DONE (   4.4 sec)
                      ------------------
-------------------
DFT GRID GENERATION
-------------------

General Integration Accuracy     IntAcc      ... 4.388
Radial Grid Type                 RadialGrid  ... OptM3 with GC (2021)
Angular Grid (max. ang.)         AngularGrid ... 4 (Lebedev-302)
Angular grid pruning method      GridPruning ... 4 (adaptive)
Weight generation scheme         WeightScheme... Becke
Basis function cutoff            BFCut       ... 1.0000e-11
Integration weight cutoff        WCut        ... 1.0000e-14
Angular grids for H and He will be reduced by one unit
Partially contracted basis set               ... off
Rotationally invariant grid construction     ... off

Total number of grid points                  ...   164377
Total number of batches                      ...     2586
Average number of points per batch           ...       63
Average number of grid points per atom       ...     4981
Time for grid setup =    2.430 sec

--------------------
COSX GRID GENERATION
--------------------

GRIDX 1
-------
General Integration Accuracy     IntAcc      ... 3.816
Radial Grid Type                 RadialGrid  ... OptM3 with GC (2021)
Angular Grid (max. ang.)         AngularGrid ... 1 (Lebedev-50)
Angular grid pruning method      GridPruning ... 4 (adaptive)
Weight generation scheme         WeightScheme... Becke
Basis function cutoff            BFCut       ... 1.0000e-11
Integration weight cutoff        WCut        ... 1.0000e-14
Angular grids for H and He will be reduced by one unit
Partially contracted basis set               ... on
Rotationally invariant grid construction     ... off

Total number of grid points                  ...    20828
Total number of batches                      ...      341
Average number of points per batch           ...       61
Average number of grid points per atom       ...      631
UseSFitting                                  ... on

GRIDX 2
-------
General Integration Accuracy     IntAcc      ... 4.020
Radial Grid Type                 RadialGrid  ... OptM3 with GC (2021)
Angular Grid (max. ang.)         AngularGrid ... 2 (Lebedev-110)
Angular grid pruning method      GridPruning ... 4 (adaptive)
Weight generation scheme         WeightScheme... Becke
Basis function cutoff            BFCut       ... 1.0000e-11
Integration weight cutoff        WCut        ... 1.0000e-14
Angular grids for H and He will be reduced by one unit
Partially contracted basis set               ... on
Rotationally invariant grid construction     ... off

Total number of grid points                  ...    46074
Total number of batches                      ...      739
Average number of points per batch           ...       62
Average number of grid points per atom       ...     1396
UseSFitting                                  ... on

GRIDX 3
-------
General Integration Accuracy     IntAcc      ... 4.338
Radial Grid Type                 RadialGrid  ... OptM3 with GC (2021)
Angular Grid (max. ang.)         AngularGrid ... 3 (Lebedev-194)
Angular grid pruning method      GridPruning ... 4 (adaptive)
Weight generation scheme         WeightScheme... Becke
Basis function cutoff            BFCut       ... 1.0000e-11
Integration weight cutoff        WCut        ... 1.0000e-14
Angular grids for H and He will be reduced by one unit
Partially contracted basis set               ... on
Rotationally invariant grid construction     ... off

Total number of grid points                  ...   101119
Total number of batches                      ...     1595
Average number of points per batch           ...       63
Average number of grid points per atom       ...     3064
UseSFitting                                  ... on

Time for X-Grid setup             =   11.785 sec


--------------------
CPCM SOLVATION MODEL
--------------------
CPCM parameters:
  Epsilon                                         ...      47.2000
  Refrac                                          ...       1.4790
  Rsolv                                           ...       1.3000
  Surface type                                    ... GAUSSIAN VDW
  Epsilon function type                           ...         CPCM
Radii:
 Radius for C  used is    3.8550 Bohr (=   2.0400 Ang.)
 Radius for O  used is    3.4469 Bohr (=   1.8240 Ang.)
 Radius for H  used is    2.4944 Bohr (=   1.3200 Ang.)
 Radius for N  used is    3.5149 Bohr (=   1.8600 Ang.)
Calculating surface                               ...        done! (  0.0s)
GEPOL surface points                              ...         1785
GEPOL Volume                                      ...    2149.1643
GEPOL Surface-area                                ...    1130.5297
Calculating surface distance matrix               ...        done! (  0.3s)
Performing Cholesky decomposition & store         ...        done! (  0.8s)
Overall time for CPCM initialization              ...                 1.0s
--------------
SCF ITERATIONS
--------------
ITER       Energy         Delta-E        Max-DP      RMS-DP      [F,P]     Damp
               ***  Starting incremental Fock matrix formation  ***
  0  -1058.2696451563   0.000000000000 0.31669594  0.00098942  0.2647845 0.7000
  1  -1058.4645702997  -0.194925143341 0.26476248  0.00081171  0.1025719 0.7000
                               ***Turning on DIIS***
  2  -1058.5398526201  -0.075282320418 0.32971204  0.00126419  0.0314934 0.0000
  3  -1058.6702975219  -0.130444901803 0.20570999  0.00059644  0.0525486 0.0000
  4  -1058.6910349174  -0.020737395481 0.01817594  0.00014620  0.0182596 0.0000
  5  -1058.6928542563  -0.001819338958 0.01556785  0.00005877  0.0042707 0.0000
                      *** Initiating the SOSCF procedure ***
                           *** Shutting down DIIS ***
                      *** Re-Reading the Fockian *** 
                      *** Removing any level shift *** 
ITER      Energy       Delta-E        Grad      Rot      Max-DP    RMS-DP
  6  -1058.69295055  -0.0000962907  0.000318  0.000318  0.001290  0.000016
               *** Restarting incremental Fock matrix formation ***
  7  -1058.69296027  -0.0000097226  0.000249  0.000812  0.002750  0.000017
  8  -1058.69295711   0.0000031593  0.000457  0.000572  0.000506  0.000005
  9  -1058.69296285  -0.0000057421  0.000076  0.000153  0.000625  0.000004
 10  -1058.69296233   0.0000005197  0.000117  0.000080  0.000608  0.000002
 11  -1058.69296310  -0.0000007698  0.000005  0.000013  0.000414  0.000003
 12  -1058.69296310   0.0000000017  0.000007  0.000008  0.000082  0.000001
                  ***Gradient check signals convergence***
              ***Rediagonalizing the Fockian in SOSCF/NRSCF***

               *****************************************************
               *                     SUCCESS                       *
               *           SCF CONVERGED AFTER  13 CYCLES          *
               *****************************************************

Old exchange energy                            =    -33.491768453 Eh
New exchange energy                            =    -33.491781251 Eh
Exchange energy change after final integration =     -0.000012798 Eh
Total energy after final integration           =  -1058.692975896 Eh
Final COS-X integration done in                =    22.195 sec

----------------
TOTAL SCF ENERGY
----------------

Total Energy       :        -1058.69297590 Eh          -28808.50047 eV

Components:
Nuclear Repulsion  :         1733.92936588 Eh           47182.61676 eV
Electronic Energy  :        -2792.62234178 Eh          -75991.11723 eV
One Electron Energy:        -4889.72508198 Eh         -133056.18393 eV
Two Electron Energy:         2097.10274020 Eh           57065.06669 eV
Max COSX asymmetry :            0.00000153 Eh               0.00004 eV
CPCM Dielectric    :           -0.02553051 Eh              -0.69472 eV

Virial components:
Potential Energy   :        -2112.83729549 Eh          -57493.22571 eV
Kinetic Energy     :         1054.14431959 Eh           28684.72524 eV
Virial Ratio       :            2.00431502


DFT components:
N(Alpha)           :       76.000083621115 electrons
N(Beta)            :       76.000083621115 electrons
N(Total)           :      152.000167242230 electrons
E(X)               :     -100.423200116579 Eh       
E(C)               :       -5.167461516123 Eh       
E(XC)              :     -105.590661632702 Eh       
DFET-embed. en.    :        0.000000000000 Eh       
CPCM Solvation Model Properties:
Surface-charge          :           -0.02672001
Charge-correction       :           -0.00009728 Eh              -0.00265 eV
Free-energy (cav+disp)  :  This term is not implemented in the current solvation scheme

---------------
SCF CONVERGENCE
---------------

  Last Energy change         ...    2.6985e-09  Tolerance :   1.0000e-08
  Last MAX-Density change    ...    1.5543e-15  Tolerance :   1.0000e-07
  Last RMS-Density change    ...    1.3904e-17  Tolerance :   5.0000e-09
  Last Orbital Gradient      ...    1.5658e-06  Tolerance :   1.0000e-05
  Last Orbital Rotation      ...    8.0858e-06  Tolerance :   1.0000e-05

             **** THE GBW FILE WAS UPDATED (4_N3/4_N3.gbw) ****
             **** DENSITY 4_N3/4_N3.scfp WAS UPDATED ****
             **** ENERGY FILE WAS UPDATED (4_N3/4_N3.en.tmp) ****
             **** THE GBW FILE WAS UPDATED (4_N3/4_N3.gbw) ****
             **** DENSITY 4_N3/4_N3.scfp WAS UPDATED ****
----------------
ORBITAL ENERGIES
----------------

  NO   OCC          E(Eh)            E(eV) 
   0   2.0000     -19.287805      -524.8479 
   1   2.0000     -19.273931      -524.4703 
   2   2.0000     -19.248677      -523.7831 
   3   2.0000     -19.222777      -523.0784 
   4   2.0000     -19.212733      -522.8051 
   5   2.0000     -14.584188      -396.8559 
   6   2.0000     -14.582605      -396.8129 
   7   2.0000     -14.480702      -394.0399 
   8   2.0000     -14.469422      -393.7330 
   9   2.0000     -10.369849      -282.1779 
  10   2.0000     -10.332747      -281.1683 
  11   2.0000     -10.318215      -280.7729 
  12   2.0000     -10.294328      -280.1229 
  13   2.0000     -10.277093      -279.6539 
  14   2.0000     -10.276942      -279.6498 
  15   2.0000     -10.267771      -279.4002 
  16   2.0000     -10.245733      -278.8006 
  17   2.0000     -10.234595      -278.4975 
  18   2.0000     -10.231910      -278.4244 
  19   2.0000     -10.228246      -278.3247 
  20   2.0000     -10.223783      -278.2033 
  21   2.0000      -1.236643       -33.6508 
  22   2.0000      -1.206698       -32.8359 
  23   2.0000      -1.158141       -31.5146 
  24   2.0000      -1.111747       -30.2522 
  25   2.0000      -1.102584       -30.0028 
  26   2.0000      -1.066648       -29.0250 
  27   2.0000      -1.054055       -28.6823 
  28   2.0000      -0.921947       -25.0875 
  29   2.0000      -0.892456       -24.2850 
  30   2.0000      -0.845997       -23.0207 
  31   2.0000      -0.794068       -21.6077 
  32   2.0000      -0.781612       -21.2687 
  33   2.0000      -0.759508       -20.6673 
  34   2.0000      -0.738640       -20.0994 
  35   2.0000      -0.723831       -19.6964 
  36   2.0000      -0.703501       -19.1432 
  37   2.0000      -0.638041       -17.3620 
  38   2.0000      -0.631306       -17.1787 
  39   2.0000      -0.614598       -16.7241 
  40   2.0000      -0.590440       -16.0667 
  41   2.0000      -0.579316       -15.7640 
  42   2.0000      -0.563871       -15.3437 
  43   2.0000      -0.558561       -15.1992 
  44   2.0000      -0.551373       -15.0036 
  45   2.0000      -0.543419       -14.7872 
  46   2.0000      -0.523930       -14.2569 
  47   2.0000      -0.518019       -14.0960 
  48   2.0000      -0.512966       -13.9585 
  49   2.0000      -0.508859       -13.8467 
  50   2.0000      -0.502623       -13.6771 
  51   2.0000      -0.495733       -13.4896 
  52   2.0000      -0.489764       -13.3272 
  53   2.0000      -0.476178       -12.9575 
  54   2.0000      -0.462794       -12.5933 
  55   2.0000      -0.458796       -12.4845 
  56   2.0000      -0.447125       -12.1669 
  57   2.0000      -0.438201       -11.9241 
  58   2.0000      -0.433588       -11.7985 
  59   2.0000      -0.422069       -11.4851 
  60   2.0000      -0.405861       -11.0440 
  61   2.0000      -0.391260       -10.6467 
  62   2.0000      -0.387888       -10.5550 
  63   2.0000      -0.383437       -10.4339 
  64   2.0000      -0.375191       -10.2095 
  65   2.0000      -0.369050       -10.0424 
  66   2.0000      -0.359983        -9.7956 
  67   2.0000      -0.356156        -9.6915 
  68   2.0000      -0.345722        -9.4076 
  69   2.0000      -0.344114        -9.3638 
  70   2.0000      -0.336900        -9.1675 
  71   2.0000      -0.319449        -8.6926 
  72   2.0000      -0.306682        -8.3452 
  73   2.0000      -0.274656        -7.4738 
  74   2.0000      -0.243373        -6.6225 
  75   2.0000      -0.237072        -6.4511 
  76   0.0000      -0.049542        -1.3481 
  77   0.0000      -0.043783        -1.1914 
  78   0.0000      -0.020698        -0.5632 
  79   0.0000      -0.008901        -0.2422 
  80   0.0000       0.000753         0.0205 
  81   0.0000       0.038985         1.0608 
  82   0.0000       0.048408         1.3172 
  83   0.0000       0.059448         1.6177 
  84   0.0000       0.063913         1.7392 
  85   0.0000       0.066263         1.8031 
  86   0.0000       0.076141         2.0719 
  87   0.0000       0.088631         2.4118 
  88   0.0000       0.093477         2.5437 
  89   0.0000       0.100262         2.7283 
  90   0.0000       0.105298         2.8653 
  91   0.0000       0.112806         3.0696 
  92   0.0000       0.120294         3.2734 
  93   0.0000       0.128717         3.5026 
  94   0.0000       0.132308         3.6003 
  95   0.0000       0.136503         3.7144 
  96   0.0000       0.141179         3.8417 
  97   0.0000       0.142508         3.8778 
  98   0.0000       0.148399         4.0382 
  99   0.0000       0.154767         4.2114 
 100   0.0000       0.156587         4.2609 
 101   0.0000       0.173898         4.7320 
 102   0.0000       0.186556         5.0764 
 103   0.0000       0.192065         5.2263 
 104   0.0000       0.197204         5.3662 
 105   0.0000       0.208720         5.6796 
 106   0.0000       0.212949         5.7946 
 107   0.0000       0.214352         5.8328 
 108   0.0000       0.217913         5.9297 
 109   0.0000       0.226107         6.1527 
 110   0.0000       0.227492         6.1904 
 111   0.0000       0.229848         6.2545 
 112   0.0000       0.235746         6.4150 
 113   0.0000       0.242044         6.5864 
 114   0.0000       0.247944         6.7469 
 115   0.0000       0.256794         6.9877 
 116   0.0000       0.265762         7.2317 
 117   0.0000       0.270408         7.3582 
 118   0.0000       0.276762         7.5311 
 119   0.0000       0.279324         7.6008 
 120   0.0000       0.284216         7.7339 
 121   0.0000       0.290632         7.9085 
 122   0.0000       0.293579         7.9887 
 123   0.0000       0.299508         8.1500 
 124   0.0000       0.304547         8.2871 
 125   0.0000       0.311075         8.4648 
 126   0.0000       0.311734         8.4827 
 127   0.0000       0.319642         8.6979 
 128   0.0000       0.323925         8.8145 
 129   0.0000       0.329157         8.9568 
 130   0.0000       0.334184         9.0936 
 131   0.0000       0.337222         9.1763 
 132   0.0000       0.340460         9.2644 
 133   0.0000       0.351402         9.5621 
 134   0.0000       0.359464         9.7815 
 135   0.0000       0.361255         9.8303 
 136   0.0000       0.365526         9.9465 
 137   0.0000       0.370816        10.0904 
 138   0.0000       0.374607        10.1936 
 139   0.0000       0.385526        10.4907 
 140   0.0000       0.386401        10.5145 
 141   0.0000       0.393758        10.7147 
 142   0.0000       0.394762        10.7420 
 143   0.0000       0.402109        10.9419 
 144   0.0000       0.403673        10.9845 
 145   0.0000       0.405604        11.0371 
 146   0.0000       0.416185        11.3250 
 147   0.0000       0.416951        11.3458 
 148   0.0000       0.424035        11.5386 
 149   0.0000       0.425999        11.5920 
 150   0.0000       0.428963        11.6727 
 151   0.0000       0.434981        11.8364 
 152   0.0000       0.449017        12.2184 
 153   0.0000       0.454035        12.3549 
 154   0.0000       0.458867        12.4864 
 155   0.0000       0.460232        12.5235 
 156   0.0000       0.465553        12.6684 
 157   0.0000       0.469666        12.7803 
 158   0.0000       0.472030        12.8446 
 159   0.0000       0.473360        12.8808 
 160   0.0000       0.477847        13.0029 
 161   0.0000       0.487616        13.2687 
 162   0.0000       0.489594        13.3225 
 163   0.0000       0.496529        13.5112 
 164   0.0000       0.501553        13.6480 
 165   0.0000       0.505902        13.7663 
 166   0.0000       0.507694        13.8151 
 167   0.0000       0.519244        14.1294 
 168   0.0000       0.524627        14.2758 
 169   0.0000       0.528848        14.3907 
 170   0.0000       0.543958        14.8019 
 171   0.0000       0.551128        14.9970 
 172   0.0000       0.556234        15.1359 
 173   0.0000       0.563429        15.3317 
 174   0.0000       0.570462        15.5231 
 175   0.0000       0.574571        15.6349 
 176   0.0000       0.581541        15.8245 
 177   0.0000       0.585271        15.9260 
 178   0.0000       0.590769        16.0756 
 179   0.0000       0.594321        16.1723 
 180   0.0000       0.611451        16.6384 
 181   0.0000       0.617539        16.8041 
 182   0.0000       0.626050        17.0357 
 183   0.0000       0.633349        17.2343 
 184   0.0000       0.638386        17.3714 
 185   0.0000       0.643768        17.5178 
 186   0.0000       0.647456        17.6182 
 187   0.0000       0.655052        17.8249 
 188   0.0000       0.666512        18.1367 
 189   0.0000       0.671421        18.2703 
 190   0.0000       0.680009        18.5040 
 191   0.0000       0.693772        18.8785 
 192   0.0000       0.700699        19.0670 
 193   0.0000       0.708901        19.2902 
 194   0.0000       0.715225        19.4623 
 195   0.0000       0.718021        19.5383 
 196   0.0000       0.736831        20.0502 
 197   0.0000       0.742446        20.2030 
 198   0.0000       0.750199        20.4140 
 199   0.0000       0.756724        20.5915 
 200   0.0000       0.758508        20.6401 
 201   0.0000       0.768113        20.9014 
 202   0.0000       0.769761        20.9463 
 203   0.0000       0.777942        21.1689 
 204   0.0000       0.789643        21.4873 
 205   0.0000       0.798985        21.7415 
 206   0.0000       0.802924        21.8487 
 207   0.0000       0.811288        22.0763 
 208   0.0000       0.818728        22.2787 
 209   0.0000       0.824073        22.4242 
 210   0.0000       0.830414        22.5967 
 211   0.0000       0.845876        23.0175 
 212   0.0000       0.850270        23.1370 
 213   0.0000       0.858179        23.3522 
 214   0.0000       0.867981        23.6190 
 215   0.0000       0.878573        23.9072 
 216   0.0000       0.887221        24.1425 
 217   0.0000       0.889340        24.2002 
 218   0.0000       0.892561        24.2878 
 219   0.0000       0.897551        24.4236 
 220   0.0000       0.906443        24.6656 
 221   0.0000       0.908668        24.7261 
 222   0.0000       0.924217        25.1492 
 223   0.0000       0.935753        25.4631 
 224   0.0000       0.940660        25.5967 
 225   0.0000       0.942986        25.6600 
 226   0.0000       0.959768        26.1166 
 227   0.0000       0.968562        26.3559 
 228   0.0000       0.978239        26.6192 
 229   0.0000       0.989890        26.9363 
 230   0.0000       0.995577        27.0910 
 231   0.0000       1.000643        27.2289 
 232   0.0000       1.014840        27.6152 
 233   0.0000       1.020244        27.7622 
 234   0.0000       1.024406        27.8755 
 235   0.0000       1.029129        28.0040 
 236   0.0000       1.034296        28.1446 
 237   0.0000       1.046182        28.4681 
 238   0.0000       1.053370        28.6637 
 239   0.0000       1.064619        28.9697 
 240   0.0000       1.071931        29.1687 
 241   0.0000       1.081411        29.4267 
 242   0.0000       1.097660        29.8688 
 243   0.0000       1.106242        30.1024 
 244   0.0000       1.111639        30.2492 
 245   0.0000       1.139060        30.9954 
 246   0.0000       1.140714        31.0404 
 247   0.0000       1.149845        31.2889 
 248   0.0000       1.154927        31.4272 
 249   0.0000       1.172958        31.9178 
 250   0.0000       1.183831        32.2137 
 251   0.0000       1.188241        32.3337 
 252   0.0000       1.207353        32.8537 
 253   0.0000       1.223358        33.2893 
 254   0.0000       1.225134        33.3376 
 255   0.0000       1.231124        33.5006 
 256   0.0000       1.238083        33.6900 
 257   0.0000       1.244465        33.8636 
 258   0.0000       1.259838        34.2819 
 259   0.0000       1.269935        34.5567 
 260   0.0000       1.282781        34.9062 
 261   0.0000       1.292541        35.1718 
 262   0.0000       1.305544        35.5256 
 263   0.0000       1.310710        35.6662 
 264   0.0000       1.323322        36.0094 
 265   0.0000       1.329426        36.1755 
 266   0.0000       1.339620        36.4529 
 267   0.0000       1.354360        36.8540 
 268   0.0000       1.362456        37.0743 
 269   0.0000       1.376523        37.4571 
 270   0.0000       1.382690        37.6249 
 271   0.0000       1.393893        37.9297 
 272   0.0000       1.400603        38.1123 
 273   0.0000       1.421760        38.6881 
 274   0.0000       1.426701        38.8225 
 275   0.0000       1.437439        39.1147 
 276   0.0000       1.443839        39.2889 
 277   0.0000       1.453119        39.5414 
 278   0.0000       1.476584        40.1799 
 279   0.0000       1.485625        40.4259 
 280   0.0000       1.487753        40.4838 
 281   0.0000       1.489556        40.5329 
 282   0.0000       1.498746        40.7829 
 283   0.0000       1.503984        40.9255 
 284   0.0000       1.512128        41.1471 
 285   0.0000       1.517201        41.2851 
 286   0.0000       1.523384        41.4534 
 287   0.0000       1.527284        41.5595 
 288   0.0000       1.537059        41.8255 
 289   0.0000       1.541970        41.9591 
 290   0.0000       1.555996        42.3408 
 291   0.0000       1.560917        42.4747 
 292   0.0000       1.565602        42.6022 
 293   0.0000       1.568196        42.6728 
 294   0.0000       1.579064        42.9685 
 295   0.0000       1.583381        43.0860 
 296   0.0000       1.590297        43.2742 
 297   0.0000       1.595831        43.4248 
 298   0.0000       1.601891        43.5897 
 299   0.0000       1.614843        43.9421 
 300   0.0000       1.616585        43.9895 
 301   0.0000       1.628062        44.3018 
 302   0.0000       1.632179        44.4138 
 303   0.0000       1.643765        44.7291 
 304   0.0000       1.648380        44.8547 
 305   0.0000       1.663122        45.2559 
 306   0.0000       1.684281        45.8316 
 307   0.0000       1.703171        46.3456 
 308   0.0000       1.715278        46.6751 
 309   0.0000       1.720699        46.8226 
 310   0.0000       1.726358        46.9766 
 311   0.0000       1.733096        47.1599 
 312   0.0000       1.735516        47.2258 
 313   0.0000       1.737366        47.2761 
 314   0.0000       1.750674        47.6383 
 315   0.0000       1.764055        48.0024 
 316   0.0000       1.772949        48.2444 
 317   0.0000       1.779052        48.4105 
 318   0.0000       1.794646        48.8348 
 319   0.0000       1.803854        49.0854 
 320   0.0000       1.811753        49.3003 
 321   0.0000       1.828840        49.7653 
 322   0.0000       1.848534        50.3012 
 323   0.0000       1.862465        50.6802 
 324   0.0000       1.870908        50.9100 
 325   0.0000       1.882167        51.2164 
 326   0.0000       1.889708        51.4216 
 327   0.0000       1.892987        51.5108 
 328   0.0000       1.906210        51.8706 
 329   0.0000       1.912425        52.0397 
 330   0.0000       1.926004        52.4092 
 331   0.0000       1.928151        52.4676 
 332   0.0000       1.937142        52.7123 
 333   0.0000       1.942176        52.8493 
 334   0.0000       1.948099        53.0105 
 335   0.0000       1.963434        53.4278 
 336   0.0000       1.976381        53.7801 
 337   0.0000       1.984465        54.0000 
 338   0.0000       1.991387        54.1884 
 339   0.0000       1.994480        54.2726 
 340   0.0000       2.000761        54.4435 
 341   0.0000       2.005575        54.5745 
 342   0.0000       2.033275        55.3282 
 343   0.0000       2.037254        55.4365 
 344   0.0000       2.041465        55.5511 
 345   0.0000       2.047492        55.7151 
 346   0.0000       2.059478        56.0412 
 347   0.0000       2.066464        56.2313 
 348   0.0000       2.075686        56.4823 
 349   0.0000       2.100839        57.1667 
 350   0.0000       2.106678        57.3256 
 351   0.0000       2.114603        57.5413 
 352   0.0000       2.130615        57.9770 
 353   0.0000       2.136249        58.1303 
 354   0.0000       2.143960        58.3401 
 355   0.0000       2.148629        58.4672 
 356   0.0000       2.159223        58.7554 
 357   0.0000       2.171647        59.0935 
 358   0.0000       2.183403        59.4134 
 359   0.0000       2.187020        59.5118 
 360   0.0000       2.201280        59.8999 
 361   0.0000       2.211764        60.1852 
 362   0.0000       2.217956        60.3537 
 363   0.0000       2.237479        60.8849 
 364   0.0000       2.239386        60.9368 
 365   0.0000       2.255913        61.3865 
 366   0.0000       2.263498        61.5929 
 367   0.0000       2.264817        61.6288 
 368   0.0000       2.271180        61.8020 
 369   0.0000       2.282938        62.1219 
 370   0.0000       2.289801        62.3086 
 371   0.0000       2.294019        62.4234 
 372   0.0000       2.307817        62.7989 
 373   0.0000       2.317633        63.0660 
 374   0.0000       2.325822        63.2888 
 375   0.0000       2.331539        63.4444 
 376   0.0000       2.353369        64.0384 
 377   0.0000       2.359985        64.2185 
 378   0.0000       2.364560        64.3430 
 379   0.0000       2.368371        64.4467 
 380   0.0000       2.387805        64.9755 
 381   0.0000       2.392975        65.1162 
 382   0.0000       2.411620        65.6235 
 383   0.0000       2.417150        65.7740 
 384   0.0000       2.433073        66.2073 
 385   0.0000       2.443355        66.4871 
 386   0.0000       2.446258        66.5661 
 387   0.0000       2.462387        67.0050 
 388   0.0000       2.473408        67.3049 
 389   0.0000       2.479695        67.4759 
 390   0.0000       2.487486        67.6879 
 391   0.0000       2.506647        68.2093 
 392   0.0000       2.522829        68.6497 
 393   0.0000       2.525826        68.7312 
 394   0.0000       2.535559        68.9961 
 395   0.0000       2.551712        69.4356 
 396   0.0000       2.555885        69.5492 
 397   0.0000       2.561860        69.7118 
 398   0.0000       2.566161        69.8288 
 399   0.0000       2.572970        70.0141 
 400   0.0000       2.584755        70.3348 
 401   0.0000       2.593833        70.5818 
 402   0.0000       2.604176        70.8632 
 403   0.0000       2.615936        71.1832 
 404   0.0000       2.630914        71.5908 
 405   0.0000       2.644141        71.9507 
 406   0.0000       2.652038        72.1656 
 407   0.0000       2.655226        72.2524 
 408   0.0000       2.672056        72.7103 
 409   0.0000       2.678130        72.8756 
 410   0.0000       2.701242        73.5045 
 411   0.0000       2.706072        73.6360 
 412   0.0000       2.712214        73.8031 
 413   0.0000       2.713923        73.8496 
 414   0.0000       2.733525        74.3830 
 415   0.0000       2.751869        74.8822 
 416   0.0000       2.754743        74.9604 
 417   0.0000       2.764435        75.2241 
 418   0.0000       2.778795        75.6149 
 419   0.0000       2.781520        75.6890 
 420   0.0000       2.786658        75.8288 
 421   0.0000       2.803264        76.2807 
 422   0.0000       2.809695        76.4557 
 423   0.0000       2.816854        76.6505 
 424   0.0000       2.827677        76.9450 
 425   0.0000       2.835937        77.1698 
 426   0.0000       2.849154        77.5294 
 427   0.0000       2.855782        77.7098 
 428   0.0000       2.864507        77.9472 
 429   0.0000       2.869454        78.0818 
 430   0.0000       2.875548        78.2476 
 431   0.0000       2.882625        78.4402 
 432   0.0000       2.887055        78.5608 
 433   0.0000       2.894000        78.7498 
 434   0.0000       2.899655        78.9036 
 435   0.0000       2.910508        79.1989 
 436   0.0000       2.918264        79.4100 
 437   0.0000       2.927676        79.6661 
 438   0.0000       2.937667        79.9380 
 439   0.0000       2.962974        80.6266 
 440   0.0000       2.979016        81.0632 
 441   0.0000       2.990427        81.3737 
 442   0.0000       2.997793        81.5741 
 443   0.0000       3.005808        81.7922 
 444   0.0000       3.021976        82.2322 
 445   0.0000       3.033626        82.5491 
 446   0.0000       3.037815        82.6632 
 447   0.0000       3.040704        82.7418 
 448   0.0000       3.052789        83.0706 
 449   0.0000       3.060105        83.2697 
 450   0.0000       3.065449        83.4151 
 451   0.0000       3.076451        83.7145 
 452   0.0000       3.084130        83.9234 
 453   0.0000       3.104386        84.4746 
 454   0.0000       3.105902        84.5159 
 455   0.0000       3.114774        84.7573 
 456   0.0000       3.122424        84.9655 
 457   0.0000       3.129450        85.1567 
 458   0.0000       3.141132        85.4745 
 459   0.0000       3.151340        85.7523 
 460   0.0000       3.171137        86.2910 
 461   0.0000       3.177757        86.4712 
 462   0.0000       3.189693        86.7960 
 463   0.0000       3.199152        87.0533 
 464   0.0000       3.203924        87.1832 
 465   0.0000       3.209114        87.3244 
 466   0.0000       3.214869        87.4810 
 467   0.0000       3.221054        87.6493 
 468   0.0000       3.229961        87.8917 
 469   0.0000       3.242062        88.2210 
 470   0.0000       3.248371        88.3927 
 471   0.0000       3.258552        88.6697 
 472   0.0000       3.262716        88.7830 
 473   0.0000       3.270038        88.9823 
 474   0.0000       3.274782        89.1113 
 475   0.0000       3.286440        89.4286 
 476   0.0000       3.290483        89.5386 
 477   0.0000       3.303734        89.8992 
 478   0.0000       3.308852        90.0384 
 479   0.0000       3.317654        90.2780 
 480   0.0000       3.320787        90.3632 
 481   0.0000       3.327895        90.5566 
 482   0.0000       3.336649        90.7948 
 483   0.0000       3.340144        90.8899 
 484   0.0000       3.347731        91.0964 
 485   0.0000       3.353700        91.2588 
 486   0.0000       3.364644        91.5566 
 487   0.0000       3.376047        91.8669 
 488   0.0000       3.379473        91.9601 
 489   0.0000       3.388152        92.1963 
 490   0.0000       3.393659        92.3462 
 491   0.0000       3.398150        92.4684 
 492   0.0000       3.410667        92.8090 
 493   0.0000       3.421432        93.1019 
 494   0.0000       3.430474        93.3479 
 495   0.0000       3.436437        93.5102 
[...]
     46       0.000243   0.000438   0.003298
     47      -0.000132   0.000018   0.001325
     48      -0.000054   0.000101   0.000191
     49      -0.000078  -0.000043  -0.000364
     50      -0.000081   0.000064  -0.000017
     51       0.000263  -0.000146  -0.000084
     52       0.001106  -0.000802  -0.002499
     53       0.000729  -0.000489  -0.001183
     54      -0.000039  -0.000005  -0.000004
     55      -0.000057  -0.000084   0.000039
     56      -0.000040   0.000044  -0.000046
     57       0.000005  -0.000026   0.000023
     58       0.000002   0.000023  -0.000018
     59       0.000006  -0.000028   0.000025
     60       0.000061  -0.000005  -0.000068
     61       0.000916   0.000847  -0.000257
     62       0.002456   0.001124  -0.000815
     63      -0.359618  -0.216264   0.027941
     64       0.231785   0.142299  -0.018635
     65      -0.188160  -0.111687   0.014314
     66      -0.132028  -0.495134   0.056934
     67      -0.103636  -0.372196   0.041159
     68      -0.162369  -0.600907   0.068269
     69      -0.169133   0.076600  -0.046651
     70       0.778498  -0.339383   0.220688
     71       0.239782  -0.102127   0.069111
     72       0.126116  -0.145557  -0.738879
     73      -0.084875   0.097452   0.484916
     74       0.063601  -0.073660  -0.378682
     75      -0.002108   0.001966   0.007312
     76      -0.004530   0.004045   0.015468
     77       0.002878  -0.002431  -0.008457
     78       0.003578  -0.003065  -0.010759
     79      -0.001039   0.000971   0.004100
     80      -0.004111   0.003729   0.013748
     81      -0.004547   0.003044   0.007080
     82      -0.008707   0.006023   0.016415
     83      -0.007879   0.005372   0.013659
     84       0.000017   0.000014  -0.000002
     85       0.000016   0.000014  -0.000006
     86      -0.000012  -0.000012   0.000008
     87      -0.000509  -0.000133   0.000053
     88       0.000893   0.000249  -0.000109
     89      -0.000473  -0.000115   0.000044
     90       0.000023  -0.000006   0.000013
     91      -0.000060  -0.000027   0.000001
     92      -0.000042  -0.000033   0.000007
     93      -0.000046   0.000023  -0.000023
     94       0.000004  -0.000012   0.000007
     95      -0.000019   0.000001  -0.000007
     96       0.000020  -0.000024   0.000020
     97      -0.000001   0.000008  -0.000005
     98       0.000007  -0.000004   0.000003


-----------
IR SPECTRUM
-----------

 Mode   freq       eps      Int      T**2         TX        TY        TZ
       cm**-1   L/(mol*cm) km/mol    a.u.
----------------------------------------------------------------------------
  6:      4.61   0.000000    0.00  0.000000  ( 0.000000  0.000000  0.000000)
  7:     22.52   0.000004    0.02  0.000057  (-0.005255  0.005280 -0.001314)
  8:     37.17   0.000052    0.26  0.000440  ( 0.002976  0.019833  0.006145)
  9:     55.23   0.000165    0.83  0.000933  ( 0.019625  0.010058  0.021135)
 10:     68.84   0.000089    0.45  0.000403  (-0.004844  0.015598 -0.011681)
 11:     92.55   0.000943    4.76  0.003179  (-0.009294 -0.044390 -0.033492)
 12:    102.51   0.001222    6.17  0.003719  (-0.033739 -0.012790  0.049164)
 13:    116.87   0.000341    1.72  0.000910  ( 0.003388 -0.017267 -0.024512)
 14:    140.04   0.000160    0.81  0.000358  (-0.017299 -0.005480  0.005321)
 15:    149.08   0.000321    1.62  0.000671  (-0.024006 -0.009056  0.003564)
 16:    156.92   0.000160    0.81  0.000319  (-0.002099 -0.000182 -0.017726)
 17:    174.72   0.000212    1.07  0.000379  ( 0.014324 -0.002633 -0.012935)
 18:    187.64   0.000748    3.78  0.001245  ( 0.031773  0.011593 -0.010039)
 19:    220.97   0.000540    2.73  0.000763  (-0.022130 -0.012232  0.011129)
 20:    247.23   0.000105    0.53  0.000133  (-0.005887  0.009789 -0.001615)
 21:    254.10   0.002111   10.67  0.002593  ( 0.014749  0.033473 -0.035421)
 22:    295.37   0.001760    8.89  0.001859  ( 0.034701  0.025545  0.001656)
 23:    310.12   0.000590    2.98  0.000594  ( 0.023886  0.003544 -0.003291)
 24:    332.84   0.006483   32.76  0.006078  ( 0.066844 -0.033493 -0.022094)
 25:    347.01   0.006726   33.99  0.006049  (-0.051056 -0.057049  0.013702)
 26:    388.84   0.003462   17.49  0.002778  (-0.002494  0.047050  0.023630)
 27:    455.66   0.000519    2.62  0.000356  ( 0.015586 -0.010392 -0.002182)
 28:    463.29   0.000613    3.10  0.000413  ( 0.018520  0.005847 -0.005954)
 29:    492.00   0.001337    6.76  0.000848  ( 0.001628  0.021689 -0.019362)
 30:    512.17   0.005449   27.53  0.003320  ( 0.033088 -0.012341 -0.045526)
 31:    550.66   0.002208   11.16  0.001251  ( 0.000063 -0.027446 -0.022318)
 32:    560.73   0.000544    2.75  0.000303  ( 0.016274 -0.002944  0.005406)
 33:    569.43   0.002557   12.92  0.001401  ( 0.022649 -0.026318 -0.013992)
 34:    585.55   0.002504   12.65  0.001334  (-0.036362 -0.001723 -0.003041)
 35:    605.87   0.000510    2.58  0.000263  ( 0.007450 -0.011186  0.009063)
 36:    647.05   0.000504    2.55  0.000243  (-0.005964  0.012505  0.007156)
 37:    681.99   0.004733   23.92  0.002166  ( 0.000837  0.046521  0.000955)
 38:    714.94   0.001017    5.14  0.000444  (-0.020786  0.002793  0.001968)
 39:    743.66   0.037883  191.44  0.015897  ( 0.124506  0.001497  0.019821)
 40:    762.50   0.012554   63.44  0.005138  ( 0.044565  0.014791 -0.054160)
 41:    772.77   0.014638   73.97  0.005911  ( 0.039788  0.033665 -0.056522)
 42:    783.85   0.001639    8.28  0.000653  (-0.012964  0.008131 -0.020456)
 43:    821.05   0.004858   24.55  0.001847  (-0.015458 -0.034029 -0.021206)
 44:    847.66   0.003693   18.66  0.001360  (-0.026843 -0.024295 -0.006992)
 45:    874.12   0.001575    7.96  0.000562  (-0.023474 -0.001160 -0.003168)
 46:    896.06   0.008047   40.67  0.002803  ( 0.021796 -0.033707  0.034515)
 47:    930.29   0.003006   15.19  0.001008  ( 0.008688  0.019112  0.023827)
 48:    963.82   0.001509    7.63  0.000489  (-0.020744 -0.007113  0.002792)
 49:    973.39   0.027453  138.74  0.008801  ( 0.088638  0.030621  0.002611)
 50:    993.26   0.000087    0.44  0.000027  (-0.004940 -0.000130 -0.001745)
 51:   1019.07   0.004925   24.89  0.001508  ( 0.028389  0.024933 -0.008969)
 52:   1058.23   0.014963   75.61  0.004412  (-0.005263 -0.055317 -0.036396)
 53:   1070.62   0.016106   81.39  0.004695  ( 0.052191 -0.033756  0.028833)
 54:   1084.24   0.010685   54.00  0.003075  ( 0.033943  0.009853  0.042733)
 55:   1088.61   0.006169   31.17  0.001768  ( 0.021519 -0.021657  0.028918)
 56:   1139.37   0.008556   43.24  0.002343  ( 0.035995 -0.017185  0.027430)
 57:   1171.34   0.000222    1.12  0.000059  ( 0.005663  0.001775 -0.004878)
 58:   1171.86   0.000382    1.93  0.000102  ( 0.003630  0.000120  0.009409)
 59:   1176.43   0.002105   10.64  0.000558  ( 0.018393 -0.010270  0.010702)
 60:   1180.83   0.011511   58.17  0.003042  ( 0.044090  0.021341  0.025354)
 61:   1201.05   0.004989   25.21  0.001296  (-0.030950  0.000840 -0.018378)
 62:   1209.47   0.000430    2.17  0.000111  ( 0.008088  0.005866  0.003327)
 63:   1215.42   0.000333    1.68  0.000086  (-0.000024 -0.009250  0.000127)
 64:   1245.90   0.000949    4.80  0.000238  ( 0.004689  0.002512  0.014471)
 65:   1285.35   0.006389   32.29  0.001551  (-0.025240 -0.023918 -0.018492)
 66:   1300.66   0.091919  464.52  0.022054  (-0.108753  0.006455 -0.100921)
 67:   1308.69   0.000895    4.53  0.000214  (-0.004040 -0.013997  0.001124)
 68:   1318.13   0.076257  385.37  0.018054  ( 0.000285  0.132230  0.023849)
 69:   1326.66   0.064201  324.45  0.015102  (-0.059723  0.097520 -0.044998)
 70:   1351.83   0.009996   50.52  0.002308  ( 0.003641 -0.032391  0.035287)
 71:   1358.07   0.017186   86.85  0.003949  ( 0.017522 -0.059321  0.011098)
 72:   1386.47   0.007178   36.28  0.001616  ( 0.014891 -0.001720  0.037297)
 73:   1464.51   0.014651   74.04  0.003122  (-0.048175 -0.026223 -0.010650)
 74:   1465.51   0.003664   18.52  0.000780  ( 0.022562  0.003733 -0.016038)
 75:   1468.99   0.012000   60.64  0.002549  ( 0.008150  0.049491  0.005774)
 76:   1471.80   0.003078   15.55  0.000653  ( 0.013954 -0.014971  0.015287)
 77:   1473.73   0.002746   13.88  0.000581  (-0.014671 -0.008992  0.016893)
 78:   1478.95   0.070169  354.60  0.014806  ( 0.101238  0.035828 -0.057212)
 79:   1482.99   0.010121   51.15  0.002130  (-0.036358 -0.024650 -0.014153)
 80:   1499.35   0.011759   59.43  0.002447  (-0.015775  0.001045 -0.046878)
 81:   1537.82   0.035734  180.58  0.007251  (-0.049125 -0.028356 -0.063513)
 82:   1649.39   0.007290   36.84  0.001379  ( 0.026820 -0.016975  0.019280)
 83:   1664.19   0.015785   79.77  0.002960  (-0.029739 -0.019310 -0.041263)
 84:   1747.51   0.057606  291.12  0.010287  ( 0.030011 -0.071810  0.065037)
 85:   1794.60   0.092871  469.33  0.016149  ( 0.079907 -0.040914  0.089945)
 86:   2302.07   0.256796  1297.74  0.034811  (-0.185233  0.021177 -0.007143)
 87:   3039.32   0.012519   63.26  0.001285  ( 0.028184 -0.014422  0.016824)
 88:   3076.44   0.004999   25.26  0.000507  ( 0.004008  0.019249  0.010978)
 89:   3111.36   0.007237   36.57  0.000726  (-0.015657 -0.009430  0.019794)
 90:   3117.11   0.000304    1.54  0.000030  ( 0.004640 -0.001861  0.002338)
 91:   3142.37   0.000551    2.78  0.000055  (-0.003338 -0.001582 -0.006405)
 92:   3162.04   0.003073   15.53  0.000303  ( 0.014425  0.003652 -0.009050)
 93:   3167.40   0.003682   18.61  0.000363  ( 0.006806  0.013166  0.011963)
 94:   3190.30   0.000371    1.87  0.000036  (-0.004459  0.003507 -0.002026)
 95:   3196.35   0.001746    8.82  0.000170  ( 0.006099 -0.009451  0.006629)
 96:   3197.80   0.001767    8.93  0.000172  ( 0.005878 -0.011708 -0.000882)
 97:   3215.75   0.002619   13.24  0.000254  ( 0.007706  0.009166  0.010526)
 98:   3232.21   0.000363    1.83  0.000035  ( 0.004315 -0.003257  0.002407)

* The epsilon (eps) is given for a Dirac delta lineshape.
** The dipole moment derivative (T) already includes vibrational overlap.

The first frequency considered to be a vibration is 6
The total number of vibrations considered is 93


--------------------------
THERMOCHEMISTRY AT 298.15K
--------------------------

Temperature         ... 298.15 K
Pressure            ... 1.00 atm
Total Mass          ... 292.25 AMU

Throughout the following assumptions are being made:
  (1) The electronic state is orbitally nondegenerate
  (2) There are no thermally accessible electronically excited states
  (3) Hindered rotations indicated by low frequency modes are not
      treated as such but are treated as vibrations and this may
      cause some error
  (4) All equations used are the standard statistical mechanics
      equations for an ideal gas
  (5) All vibrations are strictly harmonic

freq.       4.61  E(vib)   ...       0.59 
freq.      22.52  E(vib)   ...       0.56 
freq.      37.17  E(vib)   ...       0.54 
freq.      55.23  E(vib)   ...       0.52 
freq.      68.84  E(vib)   ...       0.50 
freq.      92.55  E(vib)   ...       0.47 
freq.     102.51  E(vib)   ...       0.46 
freq.     116.87  E(vib)   ...       0.44 
freq.     140.04  E(vib)   ...       0.41 
freq.     149.08  E(vib)   ...       0.40 
freq.     156.92  E(vib)   ...       0.40 
freq.     174.72  E(vib)   ...       0.38 
freq.     187.64  E(vib)   ...       0.36 
freq.     220.97  E(vib)   ...       0.33 
freq.     247.23  E(vib)   ...       0.31 
freq.     254.10  E(vib)   ...       0.30 
freq.     295.37  E(vib)   ...       0.27 
freq.     310.12  E(vib)   ...       0.26 
freq.     332.84  E(vib)   ...       0.24 
freq.     347.01  E(vib)   ...       0.23 
freq.     388.84  E(vib)   ...       0.20 
freq.     455.66  E(vib)   ...       0.16 
freq.     463.29  E(vib)   ...       0.16 
freq.     492.00  E(vib)   ...       0.14 
freq.     512.17  E(vib)   ...       0.14 
freq.     550.66  E(vib)   ...       0.12 
freq.     560.73  E(vib)   ...       0.11 
freq.     569.43  E(vib)   ...       0.11 
freq.     585.55  E(vib)   ...       0.11 
freq.     605.87  E(vib)   ...       0.10 
freq.     647.05  E(vib)   ...       0.09 
freq.     681.99  E(vib)   ...       0.08 
freq.     714.94  E(vib)   ...       0.07 
freq.     743.66  E(vib)   ...       0.06 
freq.     762.50  E(vib)   ...       0.06 
freq.     772.77  E(vib)   ...       0.05 
freq.     783.85  E(vib)   ...       0.05 
freq.     821.05  E(vib)   ...       0.05 
freq.     847.66  E(vib)   ...       0.04 
freq.     874.12  E(vib)   ...       0.04 
freq.     896.06  E(vib)   ...       0.03 
freq.     930.29  E(vib)   ...       0.03 
freq.     963.82  E(vib)   ...       0.03 
freq.     973.39  E(vib)   ...       0.03 
freq.     993.26  E(vib)   ...       0.02 
freq.    1019.07  E(vib)   ...       0.02 
freq.    1058.23  E(vib)   ...       0.02 
freq.    1070.62  E(vib)   ...       0.02 
freq.    1084.24  E(vib)   ...       0.02 
freq.    1088.61  E(vib)   ...       0.02 
freq.    1139.37  E(vib)   ...       0.01 
freq.    1171.34  E(vib)   ...       0.01 
freq.    1171.86  E(vib)   ...       0.01 
freq.    1176.43  E(vib)   ...       0.01 
freq.    1180.83  E(vib)   ...       0.01 
freq.    1201.05  E(vib)   ...       0.01 
freq.    1209.47  E(vib)   ...       0.01 
freq.    1215.42  E(vib)   ...       0.01 
freq.    1245.90  E(vib)   ...       0.01 
freq.    1285.35  E(vib)   ...       0.01 
freq.    1300.66  E(vib)   ...       0.01 
freq.    1308.69  E(vib)   ...       0.01 
freq.    1318.13  E(vib)   ...       0.01 
freq.    1326.66  E(vib)   ...       0.01 
freq.    1351.83  E(vib)   ...       0.01 
freq.    1358.07  E(vib)   ...       0.01 
freq.    1386.47  E(vib)   ...       0.00 
freq.    1464.51  E(vib)   ...       0.00 
freq.    1465.51  E(vib)   ...       0.00 
freq.    1468.99  E(vib)   ...       0.00 
freq.    1471.80  E(vib)   ...       0.00 
freq.    1473.73  E(vib)   ...       0.00 
freq.    1478.95  E(vib)   ...       0.00 
freq.    1482.99  E(vib)   ...       0.00 
freq.    1499.35  E(vib)   ...       0.00 
freq.    1537.82  E(vib)   ...       0.00 
freq.    1649.39  E(vib)   ...       0.00 
freq.    1664.19  E(vib)   ...       0.00 
freq.    1747.51  E(vib)   ...       0.00 
freq.    1794.60  E(vib)   ...       0.00 
freq.    2302.07  E(vib)   ...       0.00 
freq.    3039.32  E(vib)   ...       0.00 
freq.    3076.44  E(vib)   ...       0.00 
freq.    3111.36  E(vib)   ...       0.00 
freq.    3117.11  E(vib)   ...       0.00 
freq.    3142.37  E(vib)   ...       0.00 
freq.    3162.04  E(vib)   ...       0.00 
freq.    3167.40  E(vib)   ...       0.00 
freq.    3190.30  E(vib)   ...       0.00 
freq.    3196.35  E(vib)   ...       0.00 
freq.    3197.80  E(vib)   ...       0.00 
freq.    3215.75  E(vib)   ...       0.00 
freq.    3232.21  E(vib)   ...       0.00 

------------
INNER ENERGY
------------

The inner energy is: U= E(el) + E(ZPE) + E(vib) + E(rot) + E(trans)
    E(el)   - is the total energy from the electronic structure calculation
              = E(kin-el) + E(nuc-el) + E(el-el) + E(nuc-nuc)
    E(ZPE)  - the the zero temperature vibrational energy from the frequency calculation
    E(vib)  - the the finite temperature correction to E(ZPE) due to population
              of excited vibrational states
    E(rot)  - is the rotational thermal energy
    E(trans)- is the translational thermal energy

Summary of contributions to the inner energy U:
Electronic energy                ...  -1058.73042888 Eh
Zero point energy                ...      0.24587140 Eh     154.29 kcal/mol
Thermal vibrational correction   ...      0.01642035 Eh      10.30 kcal/mol
Thermal rotational correction    ...      0.00141627 Eh       0.89 kcal/mol
Thermal translational correction ...      0.00141627 Eh       0.89 kcal/mol
-----------------------------------------------------------------------
Total thermal energy                  -1058.46530458 Eh


Summary of corrections to the electronic energy:
(perhaps to be used in another calculation)
Total thermal correction                  0.01925289 Eh      12.08 kcal/mol
Non-thermal (ZPE) correction              0.24587140 Eh     154.29 kcal/mol
-----------------------------------------------------------------------
Total correction                          0.26512429 Eh     166.37 kcal/mol


--------
ENTHALPY
--------

The enthalpy is H = U + kB*T
                kB is Boltzmann's constant
Total free energy                 ...  -1058.46530458 Eh 
Thermal Enthalpy correction       ...      0.00094421 Eh       0.59 kcal/mol
-----------------------------------------------------------------------
Total Enthalpy                    ...  -1058.46436037 Eh


Note: Only C1 symmetry has been detected, increase convergence thresholds 
      if your molecule has a higher symmetry. Symmetry factor of 1.0 is   
      used for the rotational entropy correction. 
 

Note: Rotational entropy computed according to Herzberg 
Infrared and Raman Spectra, Chapter V,1, Van Nostrand Reinhold, 1945 
Point Group:  C1, Symmetry Number:   1  
Rotational constants in cm-1:     0.012845     0.009169     0.006190 

Vibrational entropy computed according to the QRRHO of S. Grimme
Chem.Eur.J. 2012 18 9955


-------
ENTROPY
-------

The entropy contributions are T*S = T*(S(el)+S(vib)+S(rot)+S(trans))
     S(el)   - electronic entropy
     S(vib)  - vibrational entropy
     S(rot)  - rotational entropy
     S(trans)- translational entropy
The entropies will be listed as multiplied by the temperature to get
units of energy

Electronic entropy                ...      0.00000000 Eh      0.00 kcal/mol
Vibrational entropy               ...      0.03046357 Eh     19.12 kcal/mol
Rotational entropy                ...      0.01618219 Eh     10.15 kcal/mol
Translational entropy             ...      0.02039011 Eh     12.79 kcal/mol
-----------------------------------------------------------------------
Final entropy term                ...      0.06703587 Eh     42.07 kcal/mol

In case the symmetry of your molecule has not been determined correctly
or in case you have a reason to use a different symmetry number we print 
out the resulting rotational entropy values for sn=1,12 :
 --------------------------------------------------------
|  sn= 1 | S(rot)=       0.01618219 Eh     10.15 kcal/mol|
|  sn= 2 | S(rot)=       0.01552774 Eh      9.74 kcal/mol|
|  sn= 3 | S(rot)=       0.01514490 Eh      9.50 kcal/mol|
|  sn= 4 | S(rot)=       0.01487328 Eh      9.33 kcal/mol|
|  sn= 5 | S(rot)=       0.01466259 Eh      9.20 kcal/mol|
|  sn= 6 | S(rot)=       0.01449045 Eh      9.09 kcal/mol|
|  sn= 7 | S(rot)=       0.01434490 Eh      9.00 kcal/mol|
|  sn= 8 | S(rot)=       0.01421882 Eh      8.92 kcal/mol|
|  sn= 9 | S(rot)=       0.01410762 Eh      8.85 kcal/mol|
|  sn=10 | S(rot)=       0.01400814 Eh      8.79 kcal/mol|
|  sn=11 | S(rot)=       0.01391815 Eh      8.73 kcal/mol|
|  sn=12 | S(rot)=       0.01383599 Eh      8.68 kcal/mol|
 --------------------------------------------------------


-------------------
GIBBS FREE ENERGY
-------------------

The Gibbs free energy is G = H - T*S

Total enthalpy                    ...  -1058.46436037 Eh 
Total entropy correction          ...     -0.06703587 Eh    -42.07 kcal/mol
-----------------------------------------------------------------------
Final Gibbs free energy         ...  -1058.53139625 Eh

For completeness - the Gibbs free energy minus the electronic energy
G-E(el)                           ...      0.19903263 Eh    124.89 kcal/mol


Timings for individual modules:

Sum of individual times         ...    15935.740 sec (= 265.596 min)
GTO integral calculation        ...       94.373 sec (=   1.573 min)   0.6 %
SCF iterations                  ...     3937.674 sec (=  65.628 min)  24.7 %
SCF Gradient evaluation         ...     1107.257 sec (=  18.454 min)   6.9 %
Geometry relaxation             ...        1.524 sec (=   0.025 min)   0.0 %
Analytical frequency calculation...    10794.912 sec (= 179.915 min)  67.7 %
                             ****ORCA TERMINATED NORMALLY****
TOTAL RUN TIME: 0 days 4 hours 26 minutes 26 seconds 760 msec
