
                                 *****************
                                 * O   R   C   A *
                                 *****************

                                            #,                                       
                                            ###                                      
                                            ####                                     
                                            #####                                    
                                            ######                                   
                                           ########,                                 
                                     ,,################,,,,,                         
                               ,,#################################,,                 
                          ,,##########################################,,             
                       ,#########################################, ''#####,          
                    ,#############################################,,   '####,        
                  ,##################################################,,,,####,       
                ,###########''''           ''''###############################       
              ,#####''   ,,,,##########,,,,          '''####'''          '####       
            ,##' ,,,,###########################,,,                        '##       
           ' ,,###''''                  '''############,,,                           
         ,,##''                                '''############,,,,        ,,,,,,###''
      ,#''                                            '''#######################'''  
     '                                                          ''''####''''         
             ,#######,   #######,   ,#######,      ##                                
            ,#'     '#,  ##    ##  ,#'     '#,    #''#        ######   ,####,        
            ##       ##  ##   ,#'  ##            #'  '#       #        #'  '#        
            ##       ##  #######   ##           ,######,      #####,   #    #        
            '#,     ,#'  ##    ##  '#,     ,#' ,#      #,         ##   #,  ,#        
             '#######'   ##     ##  '#######'  #'      '#     #####' # '####'        



                  #######################################################
                  #                        -***-                        #
                  #          Department of theory and spectroscopy      #
                  #    Directorship and core code : Frank Neese         #
                  #        Max Planck Institute fuer Kohlenforschung    #
                  #                Kaiser Wilhelm Platz 1               #
                  #                 D-45470 Muelheim/Ruhr               #
                  #                      Germany                        #
                  #                                                     #
                  #                  All rights reserved                #
                  #                        -***-                        #
                  #######################################################


                         Program Version 5.0.4 -  RELEASE  -


 With contributions from (in alphabetic order):
   Daniel Aravena         : Magnetic Suceptibility
   Michael Atanasov       : Ab Initio Ligand Field Theory (pilot matlab implementation)
   Alexander A. Auer      : GIAO ZORA, VPT2 properties, NMR spectrum
   Ute Becker             : Parallelization
   Giovanni Bistoni       : ED, misc. LED, open-shell LED, HFLD
   Martin Brehm           : Molecular dynamics
   Dmytro Bykov           : SCF Hessian
   Vijay G. Chilkuri      : MRCI spin determinant printing, contributions to CSF-ICE
   Dipayan Datta          : RHF DLPNO-CCSD density
   Achintya Kumar Dutta   : EOM-CC, STEOM-CC
   Dmitry Ganyushin       : Spin-Orbit,Spin-Spin,Magnetic field MRCI
   Miquel Garcia          : C-PCM and meta-GGA Hessian, CC/C-PCM, Gaussian charge scheme
   Yang Guo               : DLPNO-NEVPT2, F12-NEVPT2, CIM, IAO-localization
   Andreas Hansen         : Spin unrestricted coupled pair/coupled cluster methods
   Benjamin Helmich-Paris : MC-RPA, TRAH-SCF, COSX integrals
   Lee Huntington         : MR-EOM, pCC
   Robert Izsak           : Overlap fitted RIJCOSX, COSX-SCS-MP3, EOM
   Marcus Kettner         : VPT2
   Christian Kollmar      : KDIIS, OOCD, Brueckner-CCSD(T), CCSD density, CASPT2, CASPT2-K
   Simone Kossmann        : Meta GGA functionals, TD-DFT gradient, OOMP2, MP2 Hessian
   Martin Krupicka        : Initial AUTO-CI
   Lucas Lang             : DCDCAS
   Marvin Lechner         : AUTO-CI (C++ implementation), FIC-MRCC
   Dagmar Lenk            : GEPOL surface, SMD
   Dimitrios Liakos       : Extrapolation schemes; Compound Job, initial MDCI parallelization
   Dimitrios Manganas     : Further ROCIS development; embedding schemes
   Dimitrios Pantazis     : SARC Basis sets
   Anastasios Papadopoulos: AUTO-CI, single reference methods and gradients
   Taras Petrenko         : DFT Hessian,TD-DFT gradient, ASA, ECA, R-Raman, ABS, FL, XAS/XES, NRVS
   Peter Pinski           : DLPNO-MP2, DLPNO-MP2 Gradient
   Christoph Reimann      : Effective Core Potentials
   Marius Retegan         : Local ZFS, SOC
   Christoph Riplinger    : Optimizer, TS searches, QM/MM, DLPNO-CCSD(T), (RO)-DLPNO pert. Triples
   Tobias Risthaus        : Range-separated hybrids, TD-DFT gradient, RPA, STAB
   Michael Roemelt        : Original ROCIS implementation
   Masaaki Saitow         : Open-shell DLPNO-CCSD energy and density
   Barbara Sandhoefer     : DKH picture change effects
   Avijit Sen             : IP-ROCIS
   Kantharuban Sivalingam : CASSCF convergence, NEVPT2, FIC-MRCI
   Bernardo de Souza      : ESD, SOC TD-DFT
   Georgi Stoychev        : AutoAux, RI-MP2 NMR, DLPNO-MP2 response
   Willem Van den Heuvel  : Paramagnetic NMR
   Boris Wezisla          : Elementary symmetry handling
   Frank Wennmohs         : Technical directorship


 We gratefully acknowledge several colleagues who have allowed us to
 interface, adapt or use parts of their codes:
   Stefan Grimme, W. Hujo, H. Kruse, P. Pracht,  : VdW corrections, initial TS optimization,
                  C. Bannwarth, S. Ehlert          DFT functionals, gCP, sTDA/sTD-DF
   Ed Valeev, F. Pavosevic, A. Kumar             : LibInt (2-el integral package), F12 methods
   Garnet Chan, S. Sharma, J. Yang, R. Olivares  : DMRG
   Ulf Ekstrom                                   : XCFun DFT Library
   Mihaly Kallay                                 : mrcc  (arbitrary order and MRCC methods)
   Jiri Pittner, Ondrej Demel                    : Mk-CCSD
   Frank Weinhold                                : gennbo (NPA and NBO analysis)
   Christopher J. Cramer and Donald G. Truhlar   : smd solvation model
   Lars Goerigk                                  : TD-DFT with DH, B97 family of functionals
   V. Asgeirsson, H. Jonsson                     : NEB implementation
   FAccTs GmbH                                   : IRC, NEB, NEB-TS, DLPNO-Multilevel, CI-OPT
                                                   MM, QMMM, 2- and 3-layer-ONIOM, Crystal-QMMM,
                                                   LR-CPCM, SF, NACMEs, symmetry and pop. for TD-DFT,
                                                   nearIR, NL-DFT gradient (VV10), updates on ESD,
                                                   ML-optimized integration grids
   S Lehtola, MJT Oliveira, MAL Marques          : LibXC Library
   Liviu Ungur et al                             : ANISO software


 Your calculation uses the libint2 library for the computation of 2-el integrals
 For citations please refer to: http://libint.valeyev.net

 Your ORCA version has been built with support for libXC version: 5.1.0
 For citations please refer to: https://tddft.org/programs/libxc/

 This ORCA versions uses:
   CBLAS   interface :  Fast vector & matrix operations
   LAPACKE interface :  Fast linear algebra routines
   SCALAPACK package :  Parallel linear algebra routines
   Shared memory     :  Shared parallel matrices
   BLAS/LAPACK       :  OpenBLAS 0.3.15  USE64BITINT DYNAMIC_ARCH NO_AFFINITY Haswell SINGLE_THREADED
        Core in use  :  Haswell
   Copyright (c) 2011-2014, The OpenBLAS Project


Your calculation utilizes the atom-pairwise dispersion correction
with the Becke-Johnson damping scheme (D3BJ)
Cite in your paper:
S.Grimme, S.Ehrlich, L.Goerigk, J Comput Chem, (2011), 32, 1456–1465 
S.Grimme, J.Antony, S.Ehrlich and H.Krieg, J.Chem.Phys., 132, (2010), 154104 
   

================================================================================

----- Orbital basis set information -----
Your calculation utilizes the basis: def2-TZVP
   F. Weigend and R. Ahlrichs, Phys. Chem. Chem. Phys. 7, 3297 (2005).

----- AuxJ basis set information -----
Your calculation utilizes the auxiliary basis: def2/J
   F. Weigend, Phys. Chem. Chem. Phys. 8, 1057 (2006).

================================================================================
                                        WARNINGS
                       Please study these warnings very carefully!
================================================================================


WARNING: Geometry Optimization
  ===> : Switching off AutoStart
         For restart on a previous wavefunction, please use MOREAD

INFO   : the flag for use of the SHARK integral package has been found!

================================================================================
                                       INPUT FILE
================================================================================
NAME = 4_NO2_free/4_NO2_free.inp
|  1> %pal nprocs 24 end
|  2> %maxcore 3500
|  3> ! PBE0 D3BJ def2-TZVP TightSCF OPT FREQ TightOpt
|  4> ! CPCM(dmso)
|  5> %scf
|  6> MaxIter 800
|  7> end
|  8> %geom
|  9> MaxIter 800
| 10> MaxStep 0.2
| 11> end
| 12> *xyz 0 1
| 13> C        0.945939000     -1.047584000      0.667044000
| 14> C        1.399150000     -2.357577000      0.049791000
| 15> O        2.463440000     -2.877893000      0.256860000
| 16> O        0.460843000     -2.817056000     -0.756567000
| 17> C        0.768882000     -4.019403000     -1.473907000
| 18> H       -0.074552000     -1.136610000      1.053851000
| 19> H        1.653269000     -3.868093000     -2.092477000
| 20> H       -0.101029000     -4.220683000     -2.092652000
| 21> C        2.413173000      0.629539000      0.123427000
| 22> C        1.091214000      0.132863000     -0.322643000
| 23> C       -0.014159000      1.154955000     -0.231223000
| 24> C       -0.006399000      2.162839000      0.719249000
| 25> C       -1.047339000      3.077533000      0.805941000
| 26> C       -2.108745000      2.977886000     -0.077291000
| 27> C       -2.139096000      1.977722000     -1.039442000
| 28> C       -1.096541000      1.061272000     -1.117529000
| 29> O       -1.047600000      0.050775000     -2.009817000
| 30> C       -2.104190000     -0.072335000     -2.943614000
| 31> N        2.775619000      0.150271000      1.298124000
| 32> O        3.713523000      0.335792000      2.019454000
| 33> H        1.146238000     -0.243656000     -1.343897000
| 34> H        0.829459000      2.241083000      1.407276000
| 35> H       -1.024222000      3.858500000      1.556072000
| 36> H       -2.930908000      3.682487000     -0.023665000
| 37> H       -2.979669000      1.910538000     -1.716588000
| 38> H       -1.859780000     -0.934837000     -3.560017000
| 39> H       -2.179394000      0.819031000     -3.572745000
| 40> H       -3.057272000     -0.244148000     -2.436649000
| 41> O        1.802840000     -0.732253000      1.766359000
| 42> H        0.940204000     -4.837642000     -0.774964000
| 43> N        3.214100000      1.546808000     -0.582046000
| 44> O        4.283348000      1.902678000     -0.122075000
| 45> O        2.753883000      1.926954000     -1.648802000
| 46> *
| 47> 
| 48>                          ****END OF INPUT****
================================================================================

                       *****************************
                       * Geometry Optimization Run *
                       *****************************

Geometry optimization settings:
Update method            Update   .... BFGS
Choice of coordinates    CoordSys .... Z-matrix Internals
Initial Hessian          InHess   .... Almoef's Model

Convergence Tolerances:
Energy Change            TolE     ....  1.0000e-06 Eh
Max. Gradient            TolMAXG  ....  1.0000e-04 Eh/bohr
RMS Gradient             TolRMSG  ....  3.0000e-05 Eh/bohr
Max. Displacement        TolMAXD  ....  1.0000e-03 bohr
RMS Displacement         TolRMSD  ....  6.0000e-04 bohr
Strict Convergence                ....  False
------------------------------------------------------------------------------
                        ORCA OPTIMIZATION COORDINATE SETUP
------------------------------------------------------------------------------

The optimization will be done in new redundant internal coordinates
Making redundant internal coordinates   ...  (new redundants) done
Evaluating the initial hessian          ...  (Almloef) done
Evaluating the coordinates              ...  done
Calculating the B-matrix                .... done
Calculating the G-matrix                .... done
Diagonalizing the G-matrix              .... done
Small eigenvalue found = 4.444e-03
Small eigenvalue found = 1.100e-02
Small eigenvalue found = 1.752e-02
Small eigenvalue found = 2.361e-02
Small eigenvalue found = 2.673e-02
The first mode is                       ....   72
The number of degrees of freedom        ....   93

    -----------------------------------------------------------------
                    Redundant Internal Coordinates


    -----------------------------------------------------------------
         Definition                    Initial Value    Approx d2E/dq
    -----------------------------------------------------------------
      1. B(C   1,C   0)                  1.5174         0.391282   
      2. B(O   2,C   1)                  1.2026         1.113812   
      3. B(O   3,C   1)                  1.3198         0.724346   
      4. B(C   4,O   3)                  1.4336         0.476841   
      5. B(H   5,C   0)                  1.0950         0.353592   
      6. B(H   6,C   4)                  1.0898         0.360365   
      7. B(H   7,C   4)                  1.0863         0.364993   
      8. B(C   9,C   8)                  1.4810         0.447320   
      9. B(C   9,C   0)                  1.5473         0.350612   
     10. B(C  10,C   9)                  1.5083         0.404619   
     11. B(C  11,C  10)                  1.3854         0.635483   
     12. B(C  12,C  11)                  1.3884         0.628411   
     13. B(C  13,C  12)                  1.3844         0.637743   
     14. B(C  14,C  13)                  1.3882         0.629038   
     15. B(C  15,C  10)                  1.4021         0.597647   
     16. B(C  15,C  14)                  1.3903         0.624137   
     17. B(O  16,C  15)                  1.3490         0.650671   
     18. B(C  17,O  16)                  1.4155         0.509639   
     19. B(N  18,C   8)                  1.3195         0.725129   
     20. B(O  19,N  18)                  1.1977         1.015950   
     21. B(H  20,C   9)                  1.0898         0.360310   
     22. B(H  21,C  11)                  1.0854         0.366194   
     23. B(H  22,C  12)                  1.0831         0.369323   
     24. B(H  23,C  13)                  1.0841         0.367979   
     25. B(H  24,C  14)                  1.0815         0.371546   
     26. B(H  25,C  17)                  1.0879         0.362845   
     27. B(H  26,C  17)                  1.0936         0.355349   
     28. B(H  27,C  17)                  1.0931         0.356004   
     29. B(O  28,N  18)                  1.3944         0.493139   
     30. B(O  28,C   0)                  1.4291         0.484798   
     31. B(H  29,C   4)                  1.0897         0.360533   
     32. B(N  30,C   8)                  1.4073         0.525094   
     33. B(O  31,N  30)                  1.2172         0.945689   
     34. B(O  32,N  30)                  1.2224         0.927676   
     35. A(C   1,C   0,H   5)          110.6018         0.325819   
     36. A(H   5,C   0,O  28)          107.7603         0.335543   
     37. A(C   1,C   0,O  28)          108.9247         0.380668   
     38. A(C   1,C   0,C   9)          111.7408         0.362290   
     39. A(C   9,C   0,O  28)          105.5097         0.373512   
     40. A(H   5,C   0,C   9)          112.0547         0.320009   
     41. A(C   0,C   1,O   3)          109.6796         0.408418   
     42. A(C   0,C   1,O   2)          124.5965         0.441090   
     43. A(O   2,C   1,O   3)          125.7153         0.490421   
     44. A(C   1,O   3,C   4)          116.4210         0.420290   
     45. A(O   3,C   4,H   7)          105.5656         0.336392   
     46. A(H   7,C   4,H  29)          110.6164         0.291512   
     47. A(O   3,C   4,H   6)          109.9956         0.335679   
     48. A(O   3,C   4,H  29)          110.0362         0.335705   
     49. A(H   6,C   4,H   7)          110.6268         0.291491   
     50. A(H   6,C   4,H  29)          109.9220         0.290928   
     51. A(C   9,C   8,N  18)          113.0503         0.418323   
     52. A(N  18,C   8,N  30)          121.7831         0.427681   
     53. A(C   9,C   8,N  30)          125.1426         0.395122   
     54. A(C  10,C   9,H  20)          109.1424         0.328641   
     55. A(C   8,C   9,H  20)          110.6737         0.334145   
     56. A(C   0,C   9,H  20)          109.9101         0.320995   
     57. A(C   0,C   9,C  10)          114.1685         0.364371   
     58. A(C   8,C   9,C  10)          114.1210         0.379980   
     59. A(C   0,C   9,C   8)           98.4540         0.370696   
     60. A(C   9,C  10,C  11)          122.0382         0.404048   
     61. A(C  11,C  10,C  15)          119.1187         0.433126   
     62. A(C   9,C  10,C  15)          118.8271         0.399701   
     63. A(C  12,C  11,H  21)          119.3585         0.354723   
     64. A(C  10,C  11,H  21)          119.4484         0.355396   
     65. A(C  10,C  11,C  12)          121.1929         0.437058   
     66. A(C  13,C  12,H  22)          120.6709         0.356124   
     67. A(C  11,C  12,H  22)          120.1496         0.355235   
     68. A(C  11,C  12,C  13)          119.1794         0.437338   
     69. A(C  14,C  13,H  23)          119.0768         0.355075   
     70. A(C  12,C  13,H  23)          120.2049         0.355904   
     71. A(C  12,C  13,C  14)          120.7182         0.437416   
     72. A(C  13,C  14,C  15)          119.8328         0.435720   
     73. A(C  15,C  14,H  24)          120.4459         0.355185   
     74. A(C  13,C  14,H  24)          119.7179         0.355657   
     75. A(C  14,C  15,O  16)          123.9278         0.435508   
     76. A(C  10,C  15,O  16)          116.1152         0.432124   
     77. A(C  10,C  15,C  14)          119.9566         0.431726   
     78. A(C  15,O  16,C  17)          118.3235         0.417249   
     79. A(H  26,C  17,H  27)          109.5698         0.289713   
     80. A(H  25,C  17,H  27)          109.5140         0.290664   
     81. A(O  16,C  17,H  27)          111.0111         0.338731   
     82. A(H  25,C  17,H  26)          109.6140         0.290580   
     83. A(O  16,C  17,H  26)          111.0977         0.338627   
     84. A(O  16,C  17,H  25)          105.9643         0.339810   
     85. A(C   8,N  18,O  19)          134.0313         0.478948   
     86. A(O  19,N  18,O  28)          116.2388         0.443362   
     87. A(C   8,N  18,O  28)          109.7068         0.420099   
     88. A(C   0,O  28,N  18)          107.4370         0.391261   
     89. A(O  31,N  30,O  32)          124.7216         0.491268   
     90. A(C   8,N  30,O  32)          115.2068         0.444094   
     91. A(C   8,N  30,O  31)          120.0712         0.445643   
     92. D(O   2,C   1,C   0,C   9)    101.0693         0.011387   
     93. D(O   3,C   1,C   0,C   9)    -77.9104         0.011387   
     94. D(O   2,C   1,C   0,H   5)   -133.3557         0.011387   
     95. D(O   3,C   1,C   0,H   5)     47.6646         0.011387   
     96. D(O   3,C   1,C   0,O  28)    165.9187         0.011387   
     97. D(O   2,C   1,C   0,O  28)    -15.1016         0.011387   
     98. D(C   4,O   3,C   1,O   2)     -2.1239         0.039558   
     99. D(C   4,O   3,C   1,C   0)    176.8416         0.039558   
    100. D(H   7,C   4,O   3,C   1)   -178.5949         0.017932   
    101. D(H   6,C   4,O   3,C   1)    -59.2206         0.017932   
    102. D(H  29,C   4,O   3,C   1)     62.0218         0.017932   
    103. D(C  10,C   9,C   0,C   1)    143.0143         0.009901   
    104. D(H  20,C   9,C   8,N  18)   -130.2861         0.014758   
    105. D(C   8,C   9,C   0,O  28)     22.5466         0.009901   
    106. D(C  10,C   9,C   8,N  30)    -72.0952         0.014758   
    107. D(C   8,C   9,C   0,C   1)    -95.6838         0.009901   
    108. D(C   0,C   9,C   8,N  30)    166.5679         0.014758   
    109. D(C   0,C   9,C   8,N  18)    -15.1945         0.014758   
    110. D(H  20,C   9,C   0,O  28)    138.2331         0.009901   
    111. D(H  20,C   9,C   0,H   5)   -104.7672         0.009901   
    112. D(H  20,C   9,C   0,C   1)     20.0028         0.009901   
    113. D(C  10,C   9,C   8,N  18)    106.1424         0.014758   
    114. D(C  10,C   9,C   0,O  28)    -98.7553         0.009901   
    115. D(C  10,C   9,C   0,H   5)     18.2443         0.009901   
    116. D(H  20,C   9,C   8,N  30)     51.4763         0.014758   
    117. D(C   8,C   9,C   0,H   5)    139.5462         0.009901   
    118. D(C  15,C  10,C   9,C   0)    -95.9940         0.012138   
    119. D(C  11,C  10,C   9,H  20)   -154.0366         0.012138   
    120. D(C  11,C  10,C   9,C   8)    -29.6423         0.012138   
    121. D(C  15,C  10,C   9,C   8)    151.8275         0.012138   
    122. D(C  11,C  10,C   9,C   0)     82.5361         0.012138   
    123. D(C  15,C  10,C   9,H  20)     27.4333         0.012138   
    124. D(H  21,C  11,C  10,C  15)   -179.9244         0.028032   
    125. D(H  21,C  11,C  10,C   9)      1.5496         0.028032   
    126. D(C  12,C  11,C  10,C  15)     -0.0863         0.028032   
    127. D(C  12,C  11,C  10,C   9)   -178.6123         0.028032   
    128. D(H  22,C  12,C  11,H  21)     -0.2005         0.027372   
    129. D(H  22,C  12,C  11,C  10)    179.9613         0.027372   
    130. D(C  13,C  12,C  11,H  21)    179.7167         0.027372   
    131. D(C  13,C  12,C  11,C  10)     -0.1215         0.027372   
    132. D(H  23,C  13,C  12,H  22)     -0.1597         0.028245   
    133. D(H  23,C  13,C  12,C  11)    179.9235         0.028245   
    134. D(C  14,C  13,C  12,H  22)    179.9716         0.028245   
    135. D(C  14,C  13,C  12,C  11)      0.0548         0.028245   
    136. D(H  24,C  14,C  13,H  23)     -0.3120         0.027430   
    137. D(H  24,C  14,C  13,C  12)    179.5582         0.027430   
    138. D(C  15,C  14,C  13,H  23)   -179.6497         0.027430   
    139. D(C  15,C  14,C  13,C  12)      0.2205         0.027430   
    140. D(O  16,C  15,C  14,H  24)      0.0111         0.026978   
    141. D(C  10,C  15,C  14,H  24)   -179.7621         0.026978   
    142. D(C  10,C  15,C  14,C  13)     -0.4293         0.026978   
    143. D(O  16,C  15,C  10,C  11)   -179.4285         0.024613   
    144. D(O  16,C  15,C  10,C   9)     -0.8548         0.024613   
    145. D(O  16,C  15,C  14,C  13)    179.3439         0.026978   
    146. D(C  14,C  15,C  10,C  11)      0.3619         0.024613   
    147. D(C  14,C  15,C  10,C   9)    178.9357         0.024613   
    148. D(C  17,O  16,C  15,C  14)      1.3942         0.031295   
    149. D(C  17,O  16,C  15,C  10)   -178.8246         0.031295   
    150. D(H  27,C  17,O  16,C  15)    -61.6052         0.020560   
    151. D(H  26,C  17,O  16,C  15)     60.5883         0.020560   
    152. D(H  25,C  17,O  16,C  15)    179.5749         0.020560   
    153. D(O  19,N  18,C   8,N  30)      1.9057         0.043831   
    154. D(O  19,N  18,C   8,C   9)   -176.3990         0.043831   
    155. D(O  28,N  18,C   8,N  30)   -179.9642         0.043831   
    156. D(O  28,N  18,C   8,C   9)      1.7312         0.043831   
    157. D(C   0,O  28,N  18,O  19)   -167.2322         0.020333   
    158. D(C   0,O  28,N  18,C   8)     14.2664         0.020333   
    159. D(N  18,O  28,C   0,C   9)    -23.4673         0.018549   
    160. D(N  18,O  28,C   0,H   5)   -143.3396         0.018549   
    161. D(N  18,O  28,C   0,C   1)     96.6332         0.018549   
    162. D(O  32,N  30,C   8,N  18)   -178.9823         0.021878   
    163. D(O  32,N  30,C   8,C   9)     -0.8901         0.021878   
    164. D(O  31,N  30,C   8,N  18)      1.2167         0.021878   
    165. D(O  31,N  30,C   8,C   9)    179.3089         0.021878   
    -----------------------------------------------------------------

Number of atoms                         .... 33
Number of degrees of freedom            .... 165

         *************************************************************
         *                GEOMETRY OPTIMIZATION CYCLE   1            *
         *************************************************************
---------------------------------
CARTESIAN COORDINATES (ANGSTROEM)
---------------------------------
  C      0.945939   -1.047584    0.667044
  C      1.399150   -2.357577    0.049791
  O      2.463440   -2.877893    0.256860
  O      0.460843   -2.817056   -0.756567
  C      0.768882   -4.019403   -1.473907
  H     -0.074552   -1.136610    1.053851
  H      1.653269   -3.868093   -2.092477
  H     -0.101029   -4.220683   -2.092652
  C      2.413173    0.629539    0.123427
  C      1.091214    0.132863   -0.322643
  C     -0.014159    1.154955   -0.231223
  C     -0.006399    2.162839    0.719249
  C     -1.047339    3.077533    0.805941
  C     -2.108745    2.977886   -0.077291
  C     -2.139096    1.977722   -1.039442
  C     -1.096541    1.061272   -1.117529
  O     -1.047600    0.050775   -2.009817
  C     -2.104190   -0.072335   -2.943614
  N      2.775619    0.150271    1.298124
  O      3.713523    0.335792    2.019454
  H      1.146238   -0.243656   -1.343897
  H      0.829459    2.241083    1.407276
  H     -1.024222    3.858500    1.556072
  H     -2.930908    3.682487   -0.023665
  H     -2.979669    1.910538   -1.716588
  H     -1.859780   -0.934837   -3.560017
  H     -2.179394    0.819031   -3.572745
  H     -3.057272   -0.244148   -2.436649
  O      1.802840   -0.732253    1.766359
  H      0.940204   -4.837642   -0.774964
  N      3.214100    1.546808   -0.582046
  O      4.283348    1.902678   -0.122075
  O      2.753883    1.926954   -1.648802

----------------------------
CARTESIAN COORDINATES (A.U.)
----------------------------
  NO LB      ZA    FRAG     MASS         X           Y           Z
   0 C     6.0000    0    12.011    1.787566   -1.979647    1.260530
   1 C     6.0000    0    12.011    2.644010   -4.455175    0.094091
   2 O     8.0000    0    15.999    4.655227   -5.438430    0.485395
   3 O     8.0000    0    15.999    0.870867   -5.323464   -1.429704
   4 C     6.0000    0    12.011    1.452976   -7.595571   -2.785281
   5 H     1.0000    0     1.008   -0.140883   -2.147882    1.991490
   6 H     1.0000    0     1.008    3.124226   -7.309636   -3.954208
   7 H     1.0000    0     1.008   -0.190917   -7.975935   -3.954539
   8 C     6.0000    0    12.011    4.560236    1.189656    0.233243
   9 C     6.0000    0    12.011    2.062096    0.251075   -0.609707
  10 C     6.0000    0    12.011   -0.026757    2.182549   -0.436948
  11 C     6.0000    0    12.011   -0.012092    4.087173    1.359184
  12 C     6.0000    0    12.011   -1.979184    5.815695    1.523008
  13 C     6.0000    0    12.011   -3.984951    5.627389   -0.146059
  14 C     6.0000    0    12.011   -4.042306    3.737353   -1.964261
  15 C     6.0000    0    12.011   -2.072162    2.005513   -2.111824
  16 O     8.0000    0    15.999   -1.979677    0.095951   -3.798004
  17 C     6.0000    0    12.011   -3.976343   -0.136693   -5.562624
  18 N     7.0000    0    14.007    5.245160    0.283971    2.453099
  19 O     8.0000    0    15.999    7.017541    0.634555    3.816215
  20 H     1.0000    0     1.008    2.166076   -0.460443   -2.539597
  21 H     1.0000    0     1.008    1.567450    4.235033    2.659366
  22 H     1.0000    0     1.008   -1.935499    7.291508    2.940550
  23 H     1.0000    0     1.008   -5.538613    6.958892   -0.044720
  24 H     1.0000    0     1.008   -5.630758    3.610394   -3.243881
  25 H     1.0000    0     1.008   -3.514475   -1.766586   -6.727457
  26 H     1.0000    0     1.008   -4.118458    1.547744   -6.751510
  27 H     1.0000    0     1.008   -5.777407   -0.461373   -4.604599
  28 O     8.0000    0    15.999    3.406874   -1.383758    3.337935
  29 H     1.0000    0     1.008    1.776728   -9.141819   -1.464470
  30 N     7.0000    0    14.007    6.073769    2.923044   -1.099908
  31 O     8.0000    0    15.999    8.094355    3.595540   -0.230688
  32 O     8.0000    0    15.999    5.204085    3.641415   -3.115784

--------------------------------
INTERNAL COORDINATES (ANGSTROEM)
--------------------------------
 C      0   0   0     0.000000000000     0.00000000     0.00000000
 C      1   0   0     1.517393533853     0.00000000     0.00000000
 O      2   1   0     1.202630248546   124.59645446     0.00000000
 O      2   1   3     1.319755356820   109.67955256   181.02027632
 C      4   2   1     1.433563046932   116.42104019   176.84164866
 H      1   2   3     1.094964458330   110.60184241   226.64434182
 H      5   4   2     1.089799948050   109.99557217   300.77938908
 H      5   4   2     1.086325992208   105.56558887   181.40509182
 C      1   2   3     2.293694968947   110.10731622    58.47848700
 C      9   1   2     1.480959517190    41.85478105   100.16782141
 C     10   9   1     1.508270248329   114.12099213   121.33684951
 C     11  10   9     1.385383484036   122.03819393   330.35768749
 C     12  11  10     1.388429580533   121.19294079   181.38771886
 C     13  12  11     1.384417201305   119.17941640   359.87851627
 C     14  13  12     1.388158404829   120.71817606     0.05477379
 C     15  14  13     1.390287419958   119.83283795     0.22051072
 O     16  15  14     1.348954144304   123.92781721   179.34393048
 C     17  16  15     1.415455876179   118.32353967     1.39420893
 N      9   1   2     1.319461238744    72.48977656   265.51929873
 O     19   9   1     1.197663944334   134.03130244   173.03432758
 H     10   9   1     1.089841240940   110.67370564   244.90834768
 H     12  11  10     1.085431652583   119.44839826     1.54963448
 H     13  12  11     1.083116045463   120.14958671   179.96125125
 H     14  13  12     1.084108073785   120.20493496   179.92347769
 H     15  14  13     1.081482021811   119.71790711   179.55820562
 H     18  17  16     1.087933181088   105.96427198   179.57491116
 H     18  17  16     1.093615472976   111.09770317    60.58832843
 H     18  17  16     1.093114137187   111.01110159   298.39482838
 O     19   9   1     1.394414432169   109.70683052   351.16451849
 H      5   4   2     1.089673164786   110.03616499    62.02181645
 N      9   1   2     1.407323214979   163.62456582    57.81055214
 O     31   9   1     1.217172158425   120.07123379   212.66001419
 O     31   9   1     1.222407064746   115.20684882    32.46104339

---------------------------
INTERNAL COORDINATES (A.U.)
---------------------------
 C      0   0   0     0.000000000000     0.00000000     0.00000000
 C      1   0   0     2.867458216365     0.00000000     0.00000000
 O      2   1   0     2.272641810121   124.59645446     0.00000000
 O      2   1   3     2.493976188165   109.67955256   181.02027632
 C      4   2   1     2.709041554412   116.42104019   176.84164866
 H      1   2   3     2.069182952621   110.60184241   226.64434182
 H      5   4   2     2.059423442575   109.99557217   300.77938908
 H      5   4   2     2.052858617433   105.56558887   181.40509182
 C      1   2   3     4.334455326063   110.10731622    58.47848700
 C      9   1   2     2.798607902914    41.85478105   100.16782141
 C     10   9   1     2.850217705282   114.12099213   121.33684951
 C     11  10   9     2.617995375286   122.03819393   330.35768749
 C     12  11  10     2.623751663443   121.19294079   181.38771886
 C     13  12  11     2.616169365556   119.17941640   359.87851627
 C     14  13  12     2.623239215628   120.71817606     0.05477379
 C     15  14  13     2.627262471157   119.83283795     0.22051072
 O     16  15  14     2.549153899952   123.92781721   179.34393048
 C     17  16  15     2.674823960627   118.32353967     1.39420893
 N      9   1   2     2.493420385551    72.48977656   265.51929873
 O     19   9   1     2.263256855263   134.03130244   173.03432758
 H     10   9   1     2.059501474829   110.67370564   244.90834768
 H     12  11  10     2.051168560471   119.44839826     1.54963448
 H     13  12  11     2.046792697181   120.14958671   179.96125125
 H     14  13  12     2.048667359027   120.20493496   179.92347769
 H     15  14  13     2.043704839983   119.71790711   179.55820562
 H     18  17  16     2.055895764263   105.96427198   179.57491116
 H     18  17  16     2.066633739744   111.09770317    60.58832843
 H     18  17  16     2.065686352401   111.01110159   298.39482838
 O     19   9   1     2.635061393987   109.70683052   351.16451849
 H      5   4   2     2.059183856928   110.03616499    62.02181645
 N      9   1   2     2.659455458220   163.62456582    57.81055214
 O     31   9   1     2.300122037257   120.07123379   212.66001419
 O     31   9   1     2.310014576541   115.20684882    32.46104339

---------------------
BASIS SET INFORMATION
---------------------
There are 4 groups of distinct atoms

 Group   1 Type C   : 11s6p2d1f contracted to 5s3p2d1f pattern {62111/411/11/1}
 Group   2 Type O   : 11s6p2d1f contracted to 5s3p2d1f pattern {62111/411/11/1}
 Group   3 Type H   : 5s1p contracted to 3s1p pattern {311/1}
 Group   4 Type N   : 11s6p2d1f contracted to 5s3p2d1f pattern {62111/411/11/1}

Atom   0C    basis set group =>   1
Atom   1C    basis set group =>   1
Atom   2O    basis set group =>   2
Atom   3O    basis set group =>   2
Atom   4C    basis set group =>   1
Atom   5H    basis set group =>   3
Atom   6H    basis set group =>   3
Atom   7H    basis set group =>   3
Atom   8C    basis set group =>   1
Atom   9C    basis set group =>   1
Atom  10C    basis set group =>   1
Atom  11C    basis set group =>   1
Atom  12C    basis set group =>   1
Atom  13C    basis set group =>   1
Atom  14C    basis set group =>   1
Atom  15C    basis set group =>   1
Atom  16O    basis set group =>   2
Atom  17C    basis set group =>   1
Atom  18N    basis set group =>   4
Atom  19O    basis set group =>   2
Atom  20H    basis set group =>   3
Atom  21H    basis set group =>   3
Atom  22H    basis set group =>   3
Atom  23H    basis set group =>   3
Atom  24H    basis set group =>   3
Atom  25H    basis set group =>   3
Atom  26H    basis set group =>   3
Atom  27H    basis set group =>   3
Atom  28O    basis set group =>   2
Atom  29H    basis set group =>   3
Atom  30N    basis set group =>   4
Atom  31O    basis set group =>   2
Atom  32O    basis set group =>   2
---------------------------------
AUXILIARY/J BASIS SET INFORMATION
---------------------------------
There are 4 groups of distinct atoms

 Group   1 Type C   : 12s5p4d2f1g contracted to 6s4p3d1f1g pattern {711111/2111/211/2/1}
 Group   2 Type O   : 12s5p4d2f1g contracted to 6s4p3d1f1g pattern {711111/2111/211/2/1}
 Group   3 Type H   : 5s2p1d contracted to 3s1p1d pattern {311/2/1}
 Group   4 Type N   : 12s5p4d2f1g contracted to 6s4p3d1f1g pattern {711111/2111/211/2/1}

Atom   0C    basis set group =>   1
Atom   1C    basis set group =>   1
Atom   2O    basis set group =>   2
Atom   3O    basis set group =>   2
Atom   4C    basis set group =>   1
Atom   5H    basis set group =>   3
Atom   6H    basis set group =>   3
Atom   7H    basis set group =>   3
Atom   8C    basis set group =>   1
Atom   9C    basis set group =>   1
Atom  10C    basis set group =>   1
Atom  11C    basis set group =>   1
Atom  12C    basis set group =>   1
Atom  13C    basis set group =>   1
Atom  14C    basis set group =>   1
Atom  15C    basis set group =>   1
Atom  16O    basis set group =>   2
Atom  17C    basis set group =>   1
Atom  18N    basis set group =>   4
Atom  19O    basis set group =>   2
Atom  20H    basis set group =>   3
Atom  21H    basis set group =>   3
Atom  22H    basis set group =>   3
Atom  23H    basis set group =>   3
Atom  24H    basis set group =>   3
Atom  25H    basis set group =>   3
Atom  26H    basis set group =>   3
Atom  27H    basis set group =>   3
Atom  28O    basis set group =>   2
Atom  29H    basis set group =>   3
Atom  30N    basis set group =>   4
Atom  31O    basis set group =>   2
Atom  32O    basis set group =>   2


           ************************************************************
           *        Program running with 24 parallel MPI-processes    *
           *              working on a common directory               *
           ************************************************************
------------------------------------------------------------------------------
                           ORCA GTO INTEGRAL CALCULATION
                           -- RI-GTO INTEGRALS CHOSEN --
------------------------------------------------------------------------------
------------------------------------------------------------------------------
                   ___                                                        
                  /   \      - P O W E R E D   B Y -                         
                 /     \                                                     
                 |  |  |   _    _      __       _____    __    __             
                 |  |  |  | |  | |    /  \     |  _  \  |  |  /  |          
                  \  \/   | |  | |   /    \    | | | |  |  | /  /          
                 / \  \   | |__| |  /  /\  \   | |_| |  |  |/  /          
                |  |  |   |  __  | /  /__\  \  |    /   |      \           
                |  |  |   | |  | | |   __   |  |    \   |  |\   \          
                \     /   | |  | | |  |  |  |  | |\  \  |  | \   \       
                 \___/    |_|  |_| |__|  |__|  |_| \__\ |__|  \__/        
                                                                              
                      - O R C A' S   B I G   F R I E N D -                    
                                      &                                       
                       - I N T E G R A L  F E E D E R -                       
                                                                              
 v1 FN, 2020, v2 2021                                                         
------------------------------------------------------------------------------


Reading SHARK input file 4_NO2_free/4_NO2_free.SHARKINP.tmp ... ok
----------------------
SHARK INTEGRAL PACKAGE
----------------------

Number of atoms                             ...     33
Number of basis functions                   ...    723
Number of shells                            ...    279
Maximum angular momentum                    ...      3
Integral batch strategy                     ... SHARK/LIBINT Hybrid
RI-J (if used) integral strategy            ... SPLIT-RIJ (Revised 2003 algorithm where possible)
Printlevel                                  ...      1
Contraction scheme used                     ... SEGMENTED contraction
Coulomb Range Separation                    ... NOT USED
Exchange Range Separation                   ... NOT USED
Finite Nucleus Model                        ... NOT USED
Auxiliary Coulomb fitting basis             ... AVAILABLE
   # of basis functions in Aux-J            ...   1161
   # of shells in Aux-J                     ...    375
   Maximum angular momentum in Aux-J        ...      4
Auxiliary J/K fitting basis                 ... NOT available
Auxiliary Correlation fitting basis         ... NOT available
Auxiliary 'external' fitting basis          ... NOT available
Integral threshold                          ...     2.500000e-11
Primitive cut-off                           ...     2.500000e-12
Primitive pair pre-selection threshold      ...     2.500000e-12

Calculating pre-screening integrals         ... done (  0.1 sec) Dimension = 279
Organizing shell pair data                  ... done (  0.4 sec)
Shell pair information
Total number of shell pairs                 ...     39060
Shell pairs after pre-screening             ...     28744
Total number of primitive shell pairs       ...    121776
Primitive shell pairs kept                  ...     59384
          la=0 lb=0:   7018 shell pairs
          la=1 lb=0:   8124 shell pairs
          la=1 lb=1:   2365 shell pairs
          la=2 lb=0:   4165 shell pairs
          la=2 lb=1:   2485 shell pairs
          la=2 lb=2:    672 shell pairs
          la=3 lb=0:   1975 shell pairs
          la=3 lb=1:   1186 shell pairs
          la=3 lb=2:    600 shell pairs
          la=3 lb=3:    154 shell pairs

Calculating one electron integrals          ... done (  0.1 sec)
Calculating RI/J V-Matrix + Cholesky decomp.... done (  0.2 sec)
Calculating Nuclear repulsion               ... done (  0.0 sec) ENN=   1799.178611533476 Eh

SHARK setup successfully completed in   1.3 seconds

Maximum memory used throughout the entire GTOINT-calculation: 45.3 MB


           ************************************************************
           *        Program running with 24 parallel MPI-processes    *
           *              working on a common directory               *
           ************************************************************
-------------------------------------------------------------------------------
                                 ORCA SCF
-------------------------------------------------------------------------------

------------
SCF SETTINGS
------------
Hamiltonian:
 Density Functional     Method          .... DFT(GTOs)
 Exchange Functional    Exchange        .... PBE
   PBE kappa parameter   XKappa         ....  0.804000
   PBE mue parameter    XMuePBE         ....  0.219520
 Correlation Functional Correlation     .... PBE
   PBE beta parameter  CBetaPBE         ....  0.066725
 LDA part of GGA corr.  LDAOpt          .... PW91-LDA
 Gradients option       PostSCFGGA      .... off
 Hybrid DFT is turned on
   Fraction HF Exchange ScalHFX         ....  0.250000
   Scaling of DF-GGA-X  ScalDFX         ....  0.750000
   Scaling of DF-GGA-C  ScalDFC         ....  1.000000
   Scaling of DF-LDA-C  ScalLDAC        ....  1.000000
   Perturbative correction              ....  0.000000
   Density functional embedding theory  .... OFF
   NL short-range parameter             ....  6.900000
 RI-approximation to the Coulomb term is turned on
   Number of AuxJ basis functions       .... 1161
   RIJ-COSX (HFX calculated with COS-X)).... on


General Settings:
 Integral files         IntName         .... 4_NO2_free/4_NO2_free
 Hartree-Fock type      HFTyp           .... RHF
 Total Charge           Charge          ....    0
 Multiplicity           Mult            ....    1
 Number of Electrons    NEL             ....  154
 Basis Dimension        Dim             ....  723
 Nuclear Repulsion      ENuc            ....   1799.1786115335 Eh

Convergence Acceleration:
 DIIS                   CNVDIIS         .... on
   Start iteration      DIISMaxIt       ....    12
   Startup error        DIISStart       ....  0.200000
   # of expansion vecs  DIISMaxEq       ....     5
   Bias factor          DIISBfac        ....   1.050
   Max. coefficient     DIISMaxC        ....  10.000
 Trust-Rad. Augm. Hess. CNVTRAH         .... auto
   Auto Start mean grad. ratio tolernc. ....  1.125000
   Auto Start start iteration           ....    20
   Auto Start num. interpolation iter.  ....    10
   Max. Number of Micro iterations      ....    16
   Max. Number of Macro iterations      .... Maxiter - #DIIS iter
   Number of Davidson start vectors     ....     2
   Converg. threshold I  (grad. norm)   ....   1.000e-05
   Converg. threshold II (energy diff.) ....   1.000e-08
   Grad. Scal. Fac. for Micro threshold ....   0.100
   Minimum threshold for Micro iter.    ....   0.010
   NR start threshold (gradient norm)   ....   0.001
   Initial trust radius                 ....   0.400
   Minimum AH scaling param. (alpha)    ....   1.000
   Maximum AH scaling param. (alpha)    .... 1000.000
   Orbital update algorithm             .... Taylor
   White noise on init. David. guess    .... on
   Maximum white noise                  ....   0.010
   Quad. conv. algorithm                .... NR
 SOSCF                  CNVSOSCF        .... on
   Start iteration      SOSCFMaxIt      ....   150
   Startup grad/error   SOSCFStart      ....  0.003300
 Level Shifting         CNVShift        .... on
   Level shift para.    LevelShift      ....    0.2500
   Turn off err/grad.   ShiftErr        ....    0.0010
 Zerner damping         CNVZerner       .... off
 Static damping         CNVDamp         .... on
   Fraction old density DampFac         ....    0.7000
   Max. Damping (<1)    DampMax         ....    0.9800
   Min. Damping (>=0)   DampMin         ....    0.0000
   Turn off err/grad.   DampErr         ....    0.1000
 Fernandez-Rico         CNVRico         .... off

SCF Procedure:
 Maximum # iterations   MaxIter         ....   800
 SCF integral mode      SCFMode         .... Direct
   Integral package                     .... SHARK and LIBINT hybrid scheme
 Reset frequency        DirectResetFreq ....    20
 Integral Threshold     Thresh          ....  2.500e-11 Eh
 Primitive CutOff       TCut            ....  2.500e-12 Eh

Convergence Tolerance:
 Convergence Check Mode ConvCheckMode   .... Total+1el-Energy
 Convergence forced     ConvForced      .... 0
 Energy Change          TolE            ....  1.000e-08 Eh
 1-El. energy change                    ....  1.000e-05 Eh
 Orbital Gradient       TolG            ....  1.000e-05
 Orbital Rotation angle TolX            ....  1.000e-05
 DIIS Error             TolErr          ....  5.000e-07


Diagonalization of the overlap matrix:
Smallest eigenvalue                        ... 6.338e-06
Time for diagonalization                   ...    0.195 sec
Threshold for overlap eigenvalues          ... 1.000e-08
Number of eigenvalues below threshold      ... 0
Time for construction of square roots      ...    0.119 sec
Total time needed                          ...    0.321 sec

Time for model grid setup =    0.270 sec

------------------------------
INITIAL GUESS: MODEL POTENTIAL
------------------------------
Loading Hartree-Fock densities                     ... done
Calculating cut-offs                               ... done
Initializing the effective Hamiltonian             ... done
Setting up the integral package (SHARK)            ... done
Starting the Coulomb interaction                   ... done (   0.3 sec)
Reading the grid                                   ... done
Mapping shells                                     ... done
Starting the XC term evaluation                    ... done (   0.1 sec)
  promolecular density results
     # of electrons  =    153.974543097
     EX              =   -135.181612524
     EC              =     -5.258223303
     EX+EC           =   -140.439835827
Transforming the Hamiltonian                       ... done (   0.1 sec)
Diagonalizing the Hamiltonian                      ... done (   0.1 sec)
Back transforming the eigenvectors                 ... done (   0.0 sec)
Now organizing SCF variables                       ... done
                      ------------------
                      INITIAL GUESS DONE (   1.2 sec)
                      ------------------
-------------------
DFT GRID GENERATION
-------------------

General Integration Accuracy     IntAcc      ... 4.388
Radial Grid Type                 RadialGrid  ... OptM3 with GC (2021)
Angular Grid (max. ang.)         AngularGrid ... 4 (Lebedev-302)
Angular grid pruning method      GridPruning ... 4 (adaptive)
Weight generation scheme         WeightScheme... Becke
Basis function cutoff            BFCut       ... 1.0000e-11
Integration weight cutoff        WCut        ... 1.0000e-14
Angular grids for H and He will be reduced by one unit
Partially contracted basis set               ... off
Rotationally invariant grid construction     ... off

Total number of grid points                  ...   164362
Total number of batches                      ...     2584
Average number of points per batch           ...       63
Average number of grid points per atom       ...     4981
Time for grid setup =    0.965 sec

--------------------
COSX GRID GENERATION
--------------------

GRIDX 1
-------
General Integration Accuracy     IntAcc      ... 3.816
Radial Grid Type                 RadialGrid  ... OptM3 with GC (2021)
Angular Grid (max. ang.)         AngularGrid ... 1 (Lebedev-50)
Angular grid pruning method      GridPruning ... 4 (adaptive)
Weight generation scheme         WeightScheme... Becke
Basis function cutoff            BFCut       ... 1.0000e-11
Integration weight cutoff        WCut        ... 1.0000e-14
Angular grids for H and He will be reduced by one unit
Partially contracted basis set               ... on
Rotationally invariant grid construction     ... off

Total number of grid points                  ...    20769
Total number of batches                      ...      342
Average number of points per batch           ...       60
Average number of grid points per atom       ...      629
UseSFitting                                  ... on

GRIDX 2
-------
General Integration Accuracy     IntAcc      ... 4.020
Radial Grid Type                 RadialGrid  ... OptM3 with GC (2021)
Angular Grid (max. ang.)         AngularGrid ... 2 (Lebedev-110)
Angular grid pruning method      GridPruning ... 4 (adaptive)
Weight generation scheme         WeightScheme... Becke
Basis function cutoff            BFCut       ... 1.0000e-11
Integration weight cutoff        WCut        ... 1.0000e-14
Angular grids for H and He will be reduced by one unit
Partially contracted basis set               ... on
Rotationally invariant grid construction     ... off

Total number of grid points                  ...    46057
Total number of batches                      ...      736
Average number of points per batch           ...       62
Average number of grid points per atom       ...     1396
UseSFitting                                  ... on

GRIDX 3
-------
General Integration Accuracy     IntAcc      ... 4.338
Radial Grid Type                 RadialGrid  ... OptM3 with GC (2021)
Angular Grid (max. ang.)         AngularGrid ... 3 (Lebedev-194)
Angular grid pruning method      GridPruning ... 4 (adaptive)
Weight generation scheme         WeightScheme... Becke
Basis function cutoff            BFCut       ... 1.0000e-11
Integration weight cutoff        WCut        ... 1.0000e-14
Angular grids for H and He will be reduced by one unit
Partially contracted basis set               ... on
Rotationally invariant grid construction     ... off

Total number of grid points                  ...   101028
Total number of batches                      ...     1596
Average number of points per batch           ...       63
Average number of grid points per atom       ...     3061
UseSFitting                                  ... on

Time for X-Grid setup             =    1.753 sec


--------------------
CPCM SOLVATION MODEL
--------------------
CPCM parameters:
  Epsilon                                         ...      47.2000
  Refrac                                          ...       1.4790
  Rsolv                                           ...       1.3000
  Surface type                                    ... GAUSSIAN VDW
  Epsilon function type                           ...         CPCM
Radii:
 Radius for C  used is    3.8550 Bohr (=   2.0400 Ang.)
 Radius for O  used is    3.4469 Bohr (=   1.8240 Ang.)
 Radius for H  used is    2.4944 Bohr (=   1.3200 Ang.)
 Radius for N  used is    3.5149 Bohr (=   1.8600 Ang.)
Calculating surface                               ...        done! (  0.0s)
GEPOL surface points                              ...         1733
GEPOL Volume                                      ...    2137.9537
GEPOL Surface-area                                ...    1121.4809
Calculating surface distance matrix               ...        done! (  0.0s)
Performing Cholesky decomposition & store         ...        done! (  0.5s)
Overall time for CPCM initialization              ...                 0.6s
--------------
SCF ITERATIONS
--------------
ITER       Energy         Delta-E        Max-DP      RMS-DP      [F,P]     Damp
               ***  Starting incremental Fock matrix formation  ***
  0  -1099.0894338225   0.000000000000 0.19752581  0.00078038  0.2713944 0.7000
  1  -1099.3278366553  -0.238402832780 0.14750724  0.00058311  0.1081737 0.7000
                               ***Turning on DIIS***
  2  -1099.4131737158  -0.085337060524 0.16349989  0.00097290  0.0299958 0.0000
  3  -1099.5682580360  -0.155084320200 0.09981062  0.00039353  0.0518033 0.0000
  4  -1099.5913834371  -0.023125401077 0.01101011  0.00014157  0.0174439 0.0000
  5  -1099.5936694461  -0.002286009069 0.00943021  0.00004821  0.0057332 0.0000
                      *** Initiating the SOSCF procedure ***
                           *** Shutting down DIIS ***
                      *** Re-Reading the Fockian *** 
                      *** Removing any level shift *** 
ITER      Energy       Delta-E        Grad      Rot      Max-DP    RMS-DP
  6  -1099.59376862  -0.0000991714  0.000248  0.000248  0.001345  0.000018
               *** Restarting incremental Fock matrix formation ***
  7  -1099.59380087  -0.0000322568  0.000259  0.001455  0.001166  0.000018
  8  -1099.59379922   0.0000016503  0.000280  0.000434  0.001112  0.000007
  9  -1099.59380368  -0.0000044512  0.000045  0.000139  0.000994  0.000004
 10  -1099.59380341   0.0000002682  0.000073  0.000086  0.000460  0.000002
 11  -1099.59380384  -0.0000004311  0.000010  0.000034  0.000122  0.000001
 12  -1099.59380383   0.0000000089  0.000020  0.000028  0.000138  0.000001
 13  -1099.59380385  -0.0000000184  0.000004  0.000013  0.000294  0.000002
 14  -1099.59380381   0.0000000339  0.000006  0.000008  0.000087  0.000001
                  ***Gradient check signals convergence***
              ***Rediagonalizing the Fockian in SOSCF/NRSCF***

               *****************************************************
               *                     SUCCESS                       *
               *           SCF CONVERGED AFTER  15 CYCLES          *
               *****************************************************

Old exchange energy                            =    -34.305683355 Eh
New exchange energy                            =    -34.305670041 Eh
Exchange energy change after final integration =      0.000013313 Eh
Total energy after final integration           =  -1099.593790529 Eh
Final COS-X integration done in                =     9.046 sec

----------------
TOTAL SCF ENERGY
----------------

Total Energy       :        -1099.59379053 Eh          -29921.46822 eV

Components:
Nuclear Repulsion  :         1799.17861153 Eh           48958.13900 eV
Electronic Energy  :        -2898.77240206 Eh          -78879.60722 eV
One Electron Energy:        -5077.65893296 Eh         -138170.12400 eV
Two Electron Energy:         2178.88653090 Eh           59290.51678 eV
Max COSX asymmetry :            0.00000205 Eh               0.00006 eV
CPCM Dielectric    :           -0.03084032 Eh              -0.83921 eV

Virial components:
Potential Energy   :        -2194.67082718 Eh          -59720.02932 eV
Kinetic Energy     :         1095.07703665 Eh           29798.56110 eV
Virial Ratio       :            2.00412460


DFT components:
N(Alpha)           :       76.999931664340 electrons
N(Beta)            :       76.999931664340 electrons
N(Total)           :      153.999863328680 electrons
E(X)               :     -102.882608942419 Eh       
E(C)               :       -5.254864440152 Eh       
E(XC)              :     -108.137473382571 Eh       
DFET-embed. en.    :        0.000000000000 Eh       
CPCM Solvation Model Properties:
Surface-charge          :           -0.02458617
Charge-correction       :            0.00002156 Eh               0.00059 eV
Free-energy (cav+disp)  :  This term is not implemented in the current solvation scheme

---------------
SCF CONVERGENCE
---------------

  Last Energy change         ...   -2.8043e-08  Tolerance :   1.0000e-08
  Last MAX-Density change    ...    2.1094e-15  Tolerance :   1.0000e-07
  Last RMS-Density change    ...    1.5419e-17  Tolerance :   5.0000e-09
  Last Orbital Gradient      ...    7.3827e-07  Tolerance :   1.0000e-05
  Last Orbital Rotation      ...    2.2138e-06  Tolerance :   1.0000e-05

             **** THE GBW FILE WAS UPDATED (4_NO2_free/4_NO2_free.gbw) ****
             **** DENSITY 4_NO2_free/4_NO2_free.scfp WAS UPDATED ****
             **** ENERGY FILE WAS UPDATED (4_NO2_free/4_NO2_free.en.tmp) ****
             **** THE GBW FILE WAS UPDATED (4_NO2_free/4_NO2_free.gbw) ****
             **** DENSITY 4_NO2_free/4_NO2_free.scfp WAS UPDATED ****
----------------
ORBITAL ENERGIES
----------------

  NO   OCC          E(Eh)            E(eV) 
   0   2.0000     -19.313757      -525.5541 
   1   2.0000     -19.275024      -524.5001 
   2   2.0000     -19.270576      -524.3790 
   3   2.0000     -19.253484      -523.9139 
   4   2.0000     -19.252594      -523.8897 
   5   2.0000     -19.249601      -523.8083 
   6   2.0000     -19.217171      -522.9258 
   7   2.0000     -14.647369      -398.5752 
   8   2.0000     -14.641141      -398.4057 
   9   2.0000     -10.371952      -282.2352 
  10   2.0000     -10.341681      -281.4115 
  11   2.0000     -10.329195      -281.0717 
  12   2.0000     -10.296581      -280.1842 
  13   2.0000     -10.287416      -279.9348 
  14   2.0000     -10.275626      -279.6140 
  15   2.0000     -10.268383      -279.4169 
  16   2.0000     -10.248248      -278.8690 
  17   2.0000     -10.236756      -278.5563 
  18   2.0000     -10.233337      -278.4633 
  19   2.0000     -10.229477      -278.3582 
  20   2.0000     -10.225332      -278.2454 
  21   2.0000      -1.297863       -35.3166 
  22   2.0000      -1.281377       -34.8681 
  23   2.0000      -1.167684       -31.7743 
  24   2.0000      -1.141218       -31.0541 
  25   2.0000      -1.112768       -30.2800 
  26   2.0000      -1.108241       -30.1568 
  27   2.0000      -1.073878       -29.2217 
  28   2.0000      -0.958718       -26.0880 
  29   2.0000      -0.899945       -24.4887 
  30   2.0000      -0.861866       -23.4526 
  31   2.0000      -0.809807       -22.0360 
  32   2.0000      -0.797629       -21.7046 
  33   2.0000      -0.783828       -21.3290 
  34   2.0000      -0.761310       -20.7163 
  35   2.0000      -0.729777       -19.8583 
  36   2.0000      -0.715824       -19.4786 
  37   2.0000      -0.653034       -17.7699 
  38   2.0000      -0.640385       -17.4257 
  39   2.0000      -0.622924       -16.9506 
  40   2.0000      -0.610670       -16.6172 
  41   2.0000      -0.603393       -16.4192 
  42   2.0000      -0.591574       -16.0975 
  43   2.0000      -0.577238       -15.7075 
  44   2.0000      -0.567007       -15.4291 
  45   2.0000      -0.557309       -15.1652 
  46   2.0000      -0.554822       -15.0975 
  47   2.0000      -0.542525       -14.7628 
  48   2.0000      -0.529135       -14.3985 
  49   2.0000      -0.526982       -14.3399 
  50   2.0000      -0.513584       -13.9753 
  51   2.0000      -0.507982       -13.8229 
  52   2.0000      -0.491901       -13.3853 
  53   2.0000      -0.485875       -13.2213 
  54   2.0000      -0.472625       -12.8608 
  55   2.0000      -0.464325       -12.6349 
  56   2.0000      -0.456513       -12.4223 
  57   2.0000      -0.446839       -12.1591 
  58   2.0000      -0.437974       -11.9179 
  59   2.0000      -0.429948       -11.6995 
  60   2.0000      -0.416017       -11.3204 
  61   2.0000      -0.397777       -10.8241 
  62   2.0000      -0.391143       -10.6435 
  63   2.0000      -0.389926       -10.6104 
  64   2.0000      -0.376708       -10.2507 
  65   2.0000      -0.372099       -10.1253 
  66   2.0000      -0.362902        -9.8751 
  67   2.0000      -0.350323        -9.5328 
  68   2.0000      -0.347850        -9.4655 
  69   2.0000      -0.346285        -9.4229 
  70   2.0000      -0.344541        -9.3754 
  71   2.0000      -0.339818        -9.2469 
  72   2.0000      -0.328912        -8.9502 
  73   2.0000      -0.321680        -8.7533 
  74   2.0000      -0.289901        -7.8886 
  75   2.0000      -0.275976        -7.5097 
  76   2.0000      -0.245045        -6.6680 
  77   0.0000      -0.112112        -3.0507 
  78   0.0000      -0.026539        -0.7222 
  79   0.0000      -0.009610        -0.2615 
  80   0.0000      -0.008906        -0.2423 
  81   0.0000       0.002193         0.0597 
  82   0.0000       0.039826         1.0837 
  83   0.0000       0.047884         1.3030 
  84   0.0000       0.062687         1.7058 
  85   0.0000       0.067437         1.8351 
  86   0.0000       0.078069         2.1244 
  87   0.0000       0.082119         2.2346 
  88   0.0000       0.087447         2.3796 
  89   0.0000       0.092779         2.5246 
  90   0.0000       0.101389         2.7589 
  91   0.0000       0.111284         3.0282 
  92   0.0000       0.122037         3.3208 
  93   0.0000       0.129626         3.5273 
  94   0.0000       0.133616         3.6359 
  95   0.0000       0.136811         3.7228 
  96   0.0000       0.142488         3.8773 
  97   0.0000       0.144619         3.9353 
  98   0.0000       0.149800         4.0763 
  99   0.0000       0.156553         4.2600 
 100   0.0000       0.158234         4.3058 
 101   0.0000       0.168600         4.5878 
 102   0.0000       0.181654         4.9431 
 103   0.0000       0.193421         5.2632 
 104   0.0000       0.195977         5.3328 
 105   0.0000       0.198363         5.3977 
 106   0.0000       0.205584         5.5942 
 107   0.0000       0.213020         5.7966 
 108   0.0000       0.220239         5.9930 
 109   0.0000       0.221864         6.0372 
 110   0.0000       0.225877         6.1464 
 111   0.0000       0.231130         6.2894 
 112   0.0000       0.235601         6.4110 
 113   0.0000       0.240769         6.5517 
 114   0.0000       0.250397         6.8137 
 115   0.0000       0.251533         6.8446 
 116   0.0000       0.255643         6.9564 
 117   0.0000       0.267214         7.2713 
 118   0.0000       0.274207         7.4616 
 119   0.0000       0.275650         7.5008 
 120   0.0000       0.286381         7.7928 
 121   0.0000       0.289008         7.8643 
 122   0.0000       0.293383         7.9833 
 123   0.0000       0.302587         8.2338 
 124   0.0000       0.304086         8.2746 
 125   0.0000       0.312113         8.4930 
 126   0.0000       0.315106         8.5745 
 127   0.0000       0.322505         8.7758 
 128   0.0000       0.328869         8.9490 
 129   0.0000       0.331406         9.0180 
 130   0.0000       0.336308         9.1514 
 131   0.0000       0.348543         9.4843 
 132   0.0000       0.357359         9.7242 
 133   0.0000       0.360985         9.8229 
 134   0.0000       0.365750         9.9526 
 135   0.0000       0.370043        10.0694 
 136   0.0000       0.373813        10.1720 
 137   0.0000       0.375674        10.2226 
 138   0.0000       0.383776        10.4431 
 139   0.0000       0.385608        10.4929 
 140   0.0000       0.386958        10.5297 
 141   0.0000       0.395831        10.7711 
 142   0.0000       0.398099        10.8328 
 143   0.0000       0.401729        10.9316 
 144   0.0000       0.409181        11.1344 
 145   0.0000       0.413299        11.2464 
 146   0.0000       0.419692        11.4204 
 147   0.0000       0.424110        11.5406 
 148   0.0000       0.429615        11.6904 
 149   0.0000       0.433591        11.7986 
 150   0.0000       0.438168        11.9232 
 151   0.0000       0.449625        12.2349 
 152   0.0000       0.454473        12.3668 
 153   0.0000       0.458426        12.4744 
 154   0.0000       0.461181        12.5494 
 155   0.0000       0.466178        12.6854 
 156   0.0000       0.470673        12.8077 
 157   0.0000       0.473765        12.8918 
 158   0.0000       0.477936        13.0053 
 159   0.0000       0.482970        13.1423 
 160   0.0000       0.485015        13.1979 
 161   0.0000       0.489699        13.3254 
 162   0.0000       0.492538        13.4026 
 163   0.0000       0.499061        13.5801 
 164   0.0000       0.509600        13.8669 
 165   0.0000       0.513660        13.9774 
 166   0.0000       0.516961        14.0672 
 167   0.0000       0.523554        14.2466 
 168   0.0000       0.532726        14.4962 
 169   0.0000       0.538119        14.6430 
 170   0.0000       0.539843        14.6899 
 171   0.0000       0.548700        14.9309 
 172   0.0000       0.552205        15.0263 
 173   0.0000       0.561281        15.2732 
 174   0.0000       0.564922        15.3723 
 175   0.0000       0.580697        15.8016 
 176   0.0000       0.582364        15.8469 
 177   0.0000       0.587405        15.9841 
 178   0.0000       0.590056        16.0562 
 179   0.0000       0.603377        16.4187 
 180   0.0000       0.612307        16.6617 
 181   0.0000       0.614474        16.7207 
 182   0.0000       0.616801        16.7840 
 183   0.0000       0.628824        17.1112 
 184   0.0000       0.638234        17.3672 
 185   0.0000       0.645445        17.5634 
 186   0.0000       0.655661        17.8414 
 187   0.0000       0.658446        17.9172 
 188   0.0000       0.671231        18.2651 
 189   0.0000       0.674751        18.3609 
 190   0.0000       0.679752        18.4970 
 191   0.0000       0.691027        18.8038 
 192   0.0000       0.695167        18.9165 
 193   0.0000       0.705287        19.1918 
 194   0.0000       0.706677        19.2297 
 195   0.0000       0.715686        19.4748 
 196   0.0000       0.723821        19.6962 
 197   0.0000       0.731758        19.9122 
 198   0.0000       0.741816        20.1858 
 199   0.0000       0.744084        20.2476 
 200   0.0000       0.751492        20.4491 
 201   0.0000       0.757835        20.6217 
 202   0.0000       0.767025        20.8718 
 203   0.0000       0.772919        21.0322 
 204   0.0000       0.784281        21.3414 
 205   0.0000       0.802691        21.8423 
 206   0.0000       0.807208        21.9652 
 207   0.0000       0.817819        22.2540 
 208   0.0000       0.821492        22.3539 
 209   0.0000       0.832633        22.6571 
 210   0.0000       0.839599        22.8466 
 211   0.0000       0.849705        23.1216 
 212   0.0000       0.859547        23.3895 
 213   0.0000       0.864607        23.5272 
 214   0.0000       0.866462        23.5776 
 215   0.0000       0.884472        24.0677 
 216   0.0000       0.887302        24.1447 
 217   0.0000       0.896033        24.3823 
 218   0.0000       0.905307        24.6347 
 219   0.0000       0.915417        24.9098 
 220   0.0000       0.922470        25.1017 
 221   0.0000       0.925574        25.1861 
 222   0.0000       0.931145        25.3378 
 223   0.0000       0.948348        25.8059 
 224   0.0000       0.967541        26.3281 
 225   0.0000       0.971091        26.4247 
 226   0.0000       0.974725        26.5236 
 227   0.0000       0.977423        26.5970 
 228   0.0000       0.993317        27.0295 
 229   0.0000       1.002396        27.2766 
 230   0.0000       1.008063        27.4308 
 231   0.0000       1.013470        27.5779 
 232   0.0000       1.019927        27.7536 
 233   0.0000       1.033257        28.1163 
 234   0.0000       1.042160        28.3586 
 235   0.0000       1.044826        28.4312 
 236   0.0000       1.051986        28.6260 
 237   0.0000       1.067505        29.0483 
 238   0.0000       1.074498        29.2386 
 239   0.0000       1.081767        29.4364 
 240   0.0000       1.091571        29.7031 
 241   0.0000       1.092920        29.7399 
 242   0.0000       1.101446        29.9719 
 243   0.0000       1.117357        30.4048 
 244   0.0000       1.135746        30.9052 
 245   0.0000       1.137957        30.9654 
 246   0.0000       1.161979        31.6191 
 247   0.0000       1.177298        32.0359 
 248   0.0000       1.180185        32.1145 
 249   0.0000       1.193537        32.4778 
 250   0.0000       1.211807        32.9749 
 251   0.0000       1.219822        33.1930 
 252   0.0000       1.232317        33.5330 
 253   0.0000       1.234787        33.6003 
 254   0.0000       1.242946        33.8223 
 255   0.0000       1.252616        34.0854 
 256   0.0000       1.262143        34.3447 
 257   0.0000       1.279126        34.8068 
 258   0.0000       1.283728        34.9320 
 259   0.0000       1.300502        35.3884 
 260   0.0000       1.315053        35.7844 
 261   0.0000       1.329437        36.1758 
 262   0.0000       1.336971        36.3808 
 263   0.0000       1.352425        36.8013 
 264   0.0000       1.366183        37.1757 
 265   0.0000       1.372475        37.3469 
 266   0.0000       1.374589        37.4045 
 267   0.0000       1.394959        37.9588 
 268   0.0000       1.406727        38.2790 
 269   0.0000       1.413872        38.4734 
 270   0.0000       1.430116        38.9154 
 271   0.0000       1.442051        39.2402 
 272   0.0000       1.443277        39.2736 
 273   0.0000       1.444541        39.3079 
 274   0.0000       1.456787        39.6412 
 275   0.0000       1.463780        39.8315 
 276   0.0000       1.470222        40.0068 
 277   0.0000       1.478504        40.2321 
 278   0.0000       1.486283        40.4438 
 279   0.0000       1.495968        40.7074 
 280   0.0000       1.504466        40.9386 
 281   0.0000       1.516796        41.2741 
 282   0.0000       1.519129        41.3376 
 283   0.0000       1.526934        41.5500 
 284   0.0000       1.528054        41.5805 
 285   0.0000       1.531428        41.6723 
 286   0.0000       1.539819        41.9006 
 287   0.0000       1.541338        41.9419 
 288   0.0000       1.546134        42.0725 
 289   0.0000       1.556589        42.3569 
 290   0.0000       1.566503        42.6267 
 291   0.0000       1.585386        43.1405 
 292   0.0000       1.588168        43.2162 
 293   0.0000       1.595523        43.4164 
 294   0.0000       1.599067        43.5128 
 295   0.0000       1.605128        43.6778 
 296   0.0000       1.608617        43.7727 
 297   0.0000       1.623769        44.1850 
 298   0.0000       1.630503        44.3682 
 299   0.0000       1.650293        44.9068 
 300   0.0000       1.659795        45.1653 
 301   0.0000       1.672503        45.5111 
 302   0.0000       1.679776        45.7090 
 303   0.0000       1.680569        45.7306 
 304   0.0000       1.708249        46.4838 
 305   0.0000       1.716584        46.7106 
 306   0.0000       1.722284        46.8657 
 307   0.0000       1.725642        46.9571 
 308   0.0000       1.730585        47.0916 
 309   0.0000       1.733746        47.1776 
 310   0.0000       1.743534        47.4440 
 311   0.0000       1.745402        47.4948 
 312   0.0000       1.760725        47.9118 
 313   0.0000       1.767116        48.0857 
 314   0.0000       1.780624        48.4532 
 315   0.0000       1.785928        48.5976 
 316   0.0000       1.797103        48.9017 
 317   0.0000       1.833306        49.8868 
 318   0.0000       1.844540        50.1925 
 319   0.0000       1.850709        50.3603 
 320   0.0000       1.862171        50.6722 
 321   0.0000       1.876700        51.0676 
 322   0.0000       1.877352        51.0853 
 323   0.0000       1.890446        51.4417 
 324   0.0000       1.893056        51.5127 
 325   0.0000       1.904284        51.8182 
 326   0.0000       1.911005        52.0011 
 327   0.0000       1.919179        52.2235 
 328   0.0000       1.937015        52.7088 
 329   0.0000       1.938772        52.7567 
 330   0.0000       1.950174        53.0669 
 331   0.0000       1.968805        53.5739 
 332   0.0000       1.977284        53.8046 
 333   0.0000       1.986410        54.0530 
 334   0.0000       1.993097        54.2349 
 335   0.0000       1.994872        54.2832 
 336   0.0000       2.010767        54.7157 
 337   0.0000       2.015588        54.8469 
 338   0.0000       2.019850        54.9629 
 339   0.0000       2.030581        55.2549 
 340   0.0000       2.035330        55.3841 
 341   0.0000       2.043777        55.6140 
 342   0.0000       2.050925        55.8085 
 343   0.0000       2.069531        56.3148 
 344   0.0000       2.076318        56.4995 
 345   0.0000       2.090774        56.8929 
 346   0.0000       2.107141        57.3382 
 347   0.0000       2.112176        57.4752 
 348   0.0000       2.115223        57.5582 
 349   0.0000       2.119289        57.6688 
 350   0.0000       2.129589        57.9491 
 351   0.0000       2.138400        58.1888 
 352   0.0000       2.147929        58.4481 
 353   0.0000       2.151465        58.5443 
 354   0.0000       2.165883        58.9367 
 355   0.0000       2.173676        59.1487 
 356   0.0000       2.189004        59.5658 
 357   0.0000       2.199448        59.8500 
 358   0.0000       2.213304        60.2271 
 359   0.0000       2.225195        60.5506 
 360   0.0000       2.233866        60.7866 
 361   0.0000       2.239431        60.9380 
 362   0.0000       2.254793        61.3560 
 363   0.0000       2.263595        61.5955 
 364   0.0000       2.271279        61.8046 
 365   0.0000       2.275741        61.9261 
 366   0.0000       2.280435        62.0538 
 367   0.0000       2.291723        62.3610 
 368   0.0000       2.300417        62.5975 
 369   0.0000       2.309955        62.8571 
 370   0.0000       2.316632        63.0388 
 371   0.0000       2.332274        63.4644 
 372   0.0000       2.334158        63.5157 
 373   0.0000       2.360468        64.2316 
 374   0.0000       2.360959        64.2450 
 375   0.0000       2.385646        64.9167 
 376   0.0000       2.398116        65.2560 
 377   0.0000       2.408984        65.5518 
 378   0.0000       2.411322        65.6154 
 379   0.0000       2.418856        65.8204 
 380   0.0000       2.427259        66.0491 
 381   0.0000       2.441429        66.4347 
 382   0.0000       2.443439        66.4893 
 383   0.0000       2.460357        66.9497 
 384   0.0000       2.471679        67.2578 
 385   0.0000       2.480685        67.5029 
 386   0.0000       2.504054        68.1388 
 387   0.0000       2.507225        68.2251 
 388   0.0000       2.528538        68.8050 
 389   0.0000       2.530563        68.8601 
 390   0.0000       2.534497        68.9672 
 391   0.0000       2.542443        69.1834 
 392   0.0000       2.550468        69.4018 
 393   0.0000       2.556457        69.5647 
 394   0.0000       2.570903        69.9578 
 395   0.0000       2.575714        70.0887 
 396   0.0000       2.601299        70.7849 
 397   0.0000       2.604339        70.8677 
 398   0.0000       2.611601        71.0653 
 399   0.0000       2.624479        71.4157 
 400   0.0000       2.643086        71.9220 
 401   0.0000       2.647321        72.0373 
 402   0.0000       2.654609        72.2356 
 403   0.0000       2.662877        72.4606 
 404   0.0000       2.674256        72.7702 
 405   0.0000       2.687619        73.1338 
 406   0.0000       2.697404        73.4001 
 407   0.0000       2.709026        73.7163 
 408   0.0000       2.713243        73.8311 
 409   0.0000       2.724408        74.1349 
 410   0.0000       2.734913        74.4208 
 411   0.0000       2.744192        74.6732 
 412   0.0000       2.750388        74.8419 
 413   0.0000       2.754164        74.9446 
 414   0.0000       2.761802        75.1525 
 415   0.0000       2.769820        75.3706 
 416   0.0000       2.773750        75.4776 
 417   0.0000       2.788635        75.8826 
 418   0.0000       2.792394        75.9849 
 419   0.0000       2.806549        76.3701 
 420   0.0000       2.813322        76.5544 
 421   0.0000       2.824901        76.8695 
 422   0.0000       2.836730        77.1913 
 423   0.0000       2.843563        77.3773 
 424   0.0000       2.845367        77.4264 
 425   0.0000       2.851437        77.5915 
 426   0.0000       2.864884        77.9575 
 427   0.0000       2.868013        78.0426 
 428   0.0000       2.876584        78.2758 
 429   0.0000       2.883306        78.4587 
 430   0.0000       2.887940        78.5849 
 431   0.0000       2.897716        78.8509 
 432   0.0000       2.903921        79.0197 
 433   0.0000       2.913642        79.2842 
 434   0.0000       2.926914        79.6454 
 435   0.0000       2.933931        79.8363 
 436   0.0000       2.944841        80.1332 
 437   0.0000       2.966219        80.7149 
 438   0.0000       2.975272        80.9613 
 439   0.0000       2.989986        81.3617 
 440   0.0000       2.999589        81.6230 
 441   0.0000       3.021060        82.2072 
 442   0.0000       3.033323        82.5409 
 443   0.0000       3.038879        82.6921 
 444   0.0000       3.046769        82.9068 
 445   0.0000       3.053577        83.0921 
 446   0.0000       3.056860        83.1814 
 447   0.0000       3.062116        83.3244 
 448   0.0000       3.074594        83.6640 
 449   0.0000       3.083951        83.9186 
 450   0.0000       3.092815        84.1598 
 451   0.0000       3.105846        84.5144 
 452   0.0000       3.112644        84.6993 
 453   0.0000       3.120974        84.9260 
 454   0.0000       3.127755        85.1105 
 455   0.0000       3.140577        85.4594 
 456   0.0000       3.147761        85.6549 
 457   0.0000       3.154360        85.8345 
 458   0.0000       3.164388        86.1074 
 459   0.0000       3.175999        86.4233 
 460   0.0000       3.179460        86.5175 
 461   0.0000       3.189458        86.7896 
 462   0.0000       3.203205        87.1636 
 463   0.0000       3.203704        87.1772 
 464   0.0000       3.208955        87.3201 
 465   0.0000       3.217649        87.5567 
 466   0.0000       3.220590        87.6367 
 467   0.0000       3.226790        87.8054 
 468   0.0000       3.239294        88.1457 
 469   0.0000       3.247361        88.3652 
 470   0.0000       3.254203        88.5514 
 471   0.0000       3.261839        88.7591 
 472   0.0000       3.265186        88.8502 
 473   0.0000       3.274055        89.0916 
 474   0.0000       3.279837        89.2489 
 475   0.0000       3.296744        89.7090 
 476   0.0000       3.303488        89.8925 
 477   0.0000       3.312983        90.1509 
 478   0.0000       3.317864        90.2837 
 479   0.0000       3.324162        90.4551 
 480   0.0000       3.327549        90.5472 
 481   0.0000       3.331419        90.6525 
 482   0.0000       3.336438        90.7891 
 483   0.0000       3.343459        90.9801 
 484   0.0000       3.356439        91.3334 
 485   0.0000       3.365222        91.5723 
[...]
     46      -0.000053   0.000240   0.002486
     47       0.000120  -0.000082   0.000512
     48      -0.000005   0.000080   0.000359
     49       0.000135   0.000017  -0.000179
     50       0.000123   0.000080   0.000102
     51       0.000647   0.000516   0.001764
     52      -0.001140  -0.000768  -0.002084
     53      -0.000628  -0.000364  -0.000789
     54      -0.000019   0.000057  -0.000026
     55       0.000053  -0.000064   0.000018
     56       0.000030   0.000037  -0.000042
     57      -0.000000  -0.000030   0.000024
     58      -0.000003  -0.000002   0.000003
     59      -0.000003  -0.000029   0.000024
     60       0.000627  -0.000661   0.000172
     61      -0.000943   0.000855  -0.000474
     62      -0.001571   0.000814  -0.000962
     63       0.206404  -0.173704   0.025739
     64       0.021586  -0.015547   0.002127
     65       0.169379  -0.140135   0.020589
     66       0.002556  -0.014521   0.002869
     67       0.239788  -0.640045   0.075455
     68       0.224966  -0.606122   0.072289
     69       0.673196   0.272669  -0.182065
     70      -0.570882  -0.228037   0.155794
     71      -0.040216  -0.013312   0.012208
     72      -0.138557  -0.151489  -0.741406
     73      -0.010366  -0.011714  -0.065692
     74      -0.111463  -0.122261  -0.606161
     75      -0.003861  -0.002601  -0.007686
     76       0.010991   0.007102   0.018581
     77       0.007496   0.004760   0.011762
     78       0.000096   0.000041  -0.000128
     79       0.004643   0.004347   0.015372
     80      -0.003064  -0.002719  -0.008859
     81      -0.004929  -0.004476  -0.016121
     82      -0.001156  -0.000923  -0.002583
     83       0.003181   0.002935   0.010683
     84      -0.000003   0.000005   0.000002
     85      -0.000015   0.000016  -0.000007
     86       0.000010  -0.000012   0.000008
     87      -0.000292  -0.000025   0.000016
     88       0.001034   0.000059  -0.000040
     89      -0.000874  -0.000030   0.000016
     90       0.000000   0.000034  -0.000023
     91       0.000004   0.000019  -0.000019
     92      -0.000002  -0.000015   0.000015
     93       0.000005  -0.000021   0.000015
     94       0.000002  -0.000011   0.000009
     95       0.000000  -0.000002   0.000001
     96       0.000007  -0.000012   0.000007
     97      -0.000001  -0.000005   0.000006
     98      -0.000007   0.000015  -0.000009


-----------
IR SPECTRUM
-----------

 Mode   freq       eps      Int      T**2         TX        TY        TZ
       cm**-1   L/(mol*cm) km/mol    a.u.
----------------------------------------------------------------------------
  6:     11.00   0.000090    0.46  0.002558  (-0.013796 -0.018673 -0.044937)
  7:     31.31   0.000197    0.99  0.001960  ( 0.024299  0.024204 -0.028004)
  8:     44.55   0.000348    1.76  0.002440  ( 0.016337  0.033810 -0.032097)
  9:     56.92   0.000330    1.67  0.001810  ( 0.035360 -0.011461 -0.020688)
 10:     67.87   0.000133    0.67  0.000610  (-0.012808 -0.021083  0.001067)
 11:     73.66   0.000296    1.49  0.001252  ( 0.011538 -0.028416 -0.017654)
 12:     96.83   0.001100    5.56  0.003546  (-0.027054 -0.037081  0.037940)
 13:    104.88   0.000175    0.88  0.000520  ( 0.011867  0.000736 -0.019452)
 14:    131.01   0.000195    0.99  0.000465  ( 0.011617 -0.003988 -0.017735)
 15:    143.21   0.000083    0.42  0.000181  ( 0.000201  0.012901 -0.003824)
 16:    151.16   0.000380    1.92  0.000784  ( 0.020648 -0.018330 -0.004704)
 17:    174.39   0.000933    4.71  0.001670  ( 0.014343  0.002373 -0.038187)
 18:    204.10   0.000444    2.24  0.000679  ( 0.001490  0.015850 -0.020629)
 19:    234.57   0.001675    8.47  0.002229  ( 0.030945  0.026914  0.023386)
 20:    248.74   0.000945    4.77  0.001185  ( 0.008434 -0.002705  0.033269)
 21:    259.46   0.002266   11.45  0.002726  ( 0.029102  0.036470 -0.023431)
 22:    297.35   0.000228    1.15  0.000239  ( 0.005001  0.011395 -0.009183)
 23:    309.12   0.001130    5.71  0.001140  ( 0.015089  0.029754  0.005243)
 24:    341.75   0.004008   20.25  0.003660  ( 0.038981  0.038196  0.026097)
 25:    349.39   0.001056    5.34  0.000944  (-0.020197  0.020245  0.011217)
 26:    384.24   0.001492    7.54  0.001211  ( 0.006269 -0.031927 -0.012360)
 27:    418.48   0.000224    1.13  0.000167  (-0.010783  0.006437  0.003037)
 28:    466.60   0.000079    0.40  0.000053  ( 0.004410 -0.001781 -0.005471)
 29:    484.90   0.001575    7.96  0.001014  ( 0.003845  0.021542 -0.023124)
 30:    500.77   0.003386   17.11  0.002110  ( 0.039702 -0.003890 -0.022778)
 31:    564.33   0.000312    1.58  0.000173  ( 0.009186  0.009039  0.002564)
 32:    580.92   0.002745   13.87  0.001475  ( 0.026496 -0.016184 -0.022598)
 33:    606.51   0.004388   22.17  0.002258  ( 0.046010  0.011853 -0.000495)
 34:    623.15   0.003572   18.05  0.001789  (-0.020128 -0.032568  0.017967)
 35:    704.31   0.000269    1.36  0.000119  ( 0.007944 -0.007146 -0.002231)
 36:    716.90   0.003023   15.27  0.001316  ( 0.005354  0.031831  0.016546)
 37:    738.06   0.001518    7.67  0.000642  (-0.017779  0.017236 -0.005366)
 38:    766.49   0.002663   13.46  0.001084  (-0.016605  0.000261  0.028432)
 39:    771.62   0.024838  125.52  0.010045  ( 0.035668  0.066845 -0.065608)
 40:    778.95   0.004240   21.43  0.001699  (-0.039942  0.005107 -0.008784)
 41:    788.04   0.008785   44.40  0.003479  ( 0.048746 -0.012065 -0.030939)
 42:    800.34   0.034450  174.10  0.013433  (-0.053440 -0.102153  0.011896)
 43:    820.37   0.006568   33.19  0.002498  ( 0.040694  0.009260 -0.027507)
 44:    858.83   0.016098   81.35  0.005849  (-0.032918 -0.053382  0.043775)
 45:    876.09   0.000738    3.73  0.000263  ( 0.008619  0.010577 -0.008751)
 46:    905.77   0.006156   31.11  0.002121  ( 0.006714 -0.034042  0.030281)
 47:    956.78   0.004551   23.00  0.001484  (-0.004955 -0.038154  0.002009)
 48:    963.56   0.039806  201.16  0.012892  ( 0.080691  0.079346 -0.009213)
 49:    967.57   0.001565    7.91  0.000505  (-0.016368  0.013820 -0.006778)
 50:    995.01   0.000107    0.54  0.000034  ( 0.003444  0.004344  0.001667)
 51:   1009.22   0.009526   48.14  0.002946  ( 0.011311  0.052942  0.003848)
 52:   1047.58   0.003358   16.97  0.001000  ( 0.005049 -0.029692 -0.009653)
 53:   1071.05   0.015087   76.24  0.004396  ( 0.047755  0.009443  0.045012)
 54:   1087.98   0.009901   50.04  0.002840  ( 0.007566  0.031737  0.042136)
 55:   1093.49   0.009494   47.98  0.002709  (-0.020662 -0.019240 -0.043729)
 56:   1143.06   0.016861   85.21  0.004603  ( 0.033734  0.015102  0.056896)
 57:   1171.17   0.000120    0.61  0.000032  (-0.000964 -0.002603  0.004925)
 58:   1172.28   0.000114    0.58  0.000030  ( 0.001892  0.004490 -0.002596)
 59:   1179.17   0.000799    4.04  0.000211  ( 0.013495  0.002357  0.004881)
 60:   1196.08   0.004735   23.93  0.001235  (-0.003840  0.022115 -0.027048)
 61:   1205.47   0.003616   18.28  0.000936  ( 0.010455  0.024494  0.015065)
 62:   1211.01   0.007283   36.81  0.001877  (-0.011517 -0.035654  0.021747)
 63:   1221.14   0.005598   28.29  0.001431  ( 0.011887 -0.021679  0.028623)
 64:   1244.12   0.041515  209.80  0.010413  (-0.058754 -0.073553 -0.039384)
 65:   1280.77   0.029967  151.44  0.007302  ( 0.015756  0.077998  0.031138)
 66:   1300.47   0.090971  459.73  0.021830  ( 0.068796  0.096450  0.088284)
 67:   1310.58   0.013566   68.56  0.003230  ( 0.020979 -0.012411 -0.051343)
 68:   1333.28   0.007721   39.02  0.001807  (-0.005261 -0.040496 -0.011818)
 69:   1356.69   0.046022  232.58  0.010586  (-0.014037 -0.077617  0.066064)
 70:   1376.77   0.119589  604.35  0.027106  ( 0.029157  0.083653 -0.138775)
 71:   1389.33   0.012816   64.77  0.002879  (-0.009728 -0.052477 -0.005495)
 72:   1402.56   0.047108  238.06  0.010481  (-0.048633 -0.020374 -0.087756)
 73:   1407.97   0.066651  336.83  0.014773  ( 0.047315  0.073202 -0.084707)
 74:   1466.62   0.003724   18.82  0.000792  (-0.006029 -0.013994  0.023670)
 75:   1466.86   0.004504   22.76  0.000958  ( 0.000948 -0.028116 -0.012914)
 76:   1470.96   0.010654   53.84  0.002260  (-0.017361 -0.034575 -0.027629)
 77:   1472.67   0.003684   18.62  0.000781  (-0.019565  0.018515  0.007422)
 78:   1474.08   0.002959   14.95  0.000626  ( 0.012206  0.014670 -0.016195)
 79:   1483.21   0.005330   26.93  0.001121  ( 0.000629  0.023760  0.023590)
 80:   1500.09   0.012616   63.76  0.002624  (-0.009542 -0.035004 -0.036168)
 81:   1541.70   0.038457  194.35  0.007784  ( 0.010870  0.061255  0.062561)
 82:   1588.53   0.071799  362.84  0.014105  ( 0.097156  0.012891  0.067077)
 83:   1650.47   0.008854   44.75  0.001674  (-0.029571 -0.004272 -0.027954)
 84:   1666.27   0.018605   94.02  0.003484  ( 0.005077  0.038080  0.044816)
 85:   1720.94   0.228522  1154.86  0.041439  ( 0.122775 -0.043327  0.156486)
 86:   1809.88   0.103140  521.23  0.017784  ( 0.124135 -0.030718  0.037820)
 87:   3039.25   0.011916   60.22  0.001223  (-0.024725 -0.005544 -0.024112)
 88:   3077.57   0.004665   23.58  0.000473  (-0.001805  0.018387  0.011475)
 89:   3111.74   0.006956   35.15  0.000698  ( 0.013219  0.015749 -0.016579)
 90:   3123.82   0.001495    7.55  0.000149  ( 0.008157 -0.002696  0.008690)
 91:   3158.35   0.000365    1.84  0.000036  (-0.000594  0.002389  0.005475)
 92:   3164.34   0.002872   14.52  0.000283  (-0.004778 -0.009868  0.012770)
 93:   3168.31   0.003582   18.10  0.000353  ( 0.005173 -0.014847 -0.010279)
 94:   3186.52   0.000821    4.15  0.000080  ( 0.007653 -0.001255  0.004504)
 95:   3197.59   0.001566    7.91  0.000153  ( 0.011055  0.001827  0.005219)
 96:   3198.06   0.001346    6.80  0.000131  (-0.009808  0.005676 -0.001705)
 97:   3217.03   0.002353   11.89  0.000228  (-0.002415  0.011816  0.009099)
 98:   3232.54   0.000252    1.27  0.000024  ( 0.003789  0.000170  0.003153)

* The epsilon (eps) is given for a Dirac delta lineshape.
** The dipole moment derivative (T) already includes vibrational overlap.

The first frequency considered to be a vibration is 6
The total number of vibrations considered is 93


--------------------------
THERMOCHEMISTRY AT 298.15K
--------------------------

Temperature         ... 298.15 K
Pressure            ... 1.00 atm
Total Mass          ... 296.24 AMU

Throughout the following assumptions are being made:
  (1) The electronic state is orbitally nondegenerate
  (2) There are no thermally accessible electronically excited states
  (3) Hindered rotations indicated by low frequency modes are not
      treated as such but are treated as vibrations and this may
      cause some error
  (4) All equations used are the standard statistical mechanics
      equations for an ideal gas
  (5) All vibrations are strictly harmonic

freq.      11.00  E(vib)   ...       0.58 
freq.      31.31  E(vib)   ...       0.55 
freq.      44.55  E(vib)   ...       0.53 
freq.      56.92  E(vib)   ...       0.51 
freq.      67.87  E(vib)   ...       0.50 
freq.      73.66  E(vib)   ...       0.49 
freq.      96.83  E(vib)   ...       0.46 
freq.     104.88  E(vib)   ...       0.46 
freq.     131.01  E(vib)   ...       0.42 
freq.     143.21  E(vib)   ...       0.41 
freq.     151.16  E(vib)   ...       0.40 
freq.     174.39  E(vib)   ...       0.38 
freq.     204.10  E(vib)   ...       0.35 
freq.     234.57  E(vib)   ...       0.32 
freq.     248.74  E(vib)   ...       0.31 
freq.     259.46  E(vib)   ...       0.30 
freq.     297.35  E(vib)   ...       0.27 
freq.     309.12  E(vib)   ...       0.26 
freq.     341.75  E(vib)   ...       0.23 
freq.     349.39  E(vib)   ...       0.23 
freq.     384.24  E(vib)   ...       0.20 
freq.     418.48  E(vib)   ...       0.18 
freq.     466.60  E(vib)   ...       0.16 
freq.     484.90  E(vib)   ...       0.15 
freq.     500.77  E(vib)   ...       0.14 
freq.     564.33  E(vib)   ...       0.11 
freq.     580.92  E(vib)   ...       0.11 
freq.     606.51  E(vib)   ...       0.10 
freq.     623.15  E(vib)   ...       0.09 
freq.     704.31  E(vib)   ...       0.07 
freq.     716.90  E(vib)   ...       0.07 
freq.     738.06  E(vib)   ...       0.06 
freq.     766.49  E(vib)   ...       0.06 
freq.     771.62  E(vib)   ...       0.05 
freq.     778.95  E(vib)   ...       0.05 
freq.     788.04  E(vib)   ...       0.05 
freq.     800.34  E(vib)   ...       0.05 
freq.     820.37  E(vib)   ...       0.05 
freq.     858.83  E(vib)   ...       0.04 
freq.     876.09  E(vib)   ...       0.04 
freq.     905.77  E(vib)   ...       0.03 
freq.     956.78  E(vib)   ...       0.03 
freq.     963.56  E(vib)   ...       0.03 
freq.     967.57  E(vib)   ...       0.03 
freq.     995.01  E(vib)   ...       0.02 
freq.    1009.22  E(vib)   ...       0.02 
freq.    1047.58  E(vib)   ...       0.02 
freq.    1071.05  E(vib)   ...       0.02 
freq.    1087.98  E(vib)   ...       0.02 
freq.    1093.49  E(vib)   ...       0.02 
freq.    1143.06  E(vib)   ...       0.01 
freq.    1171.17  E(vib)   ...       0.01 
freq.    1172.28  E(vib)   ...       0.01 
freq.    1179.17  E(vib)   ...       0.01 
freq.    1196.08  E(vib)   ...       0.01 
freq.    1205.47  E(vib)   ...       0.01 
freq.    1211.01  E(vib)   ...       0.01 
freq.    1221.14  E(vib)   ...       0.01 
freq.    1244.12  E(vib)   ...       0.01 
freq.    1280.77  E(vib)   ...       0.01 
freq.    1300.47  E(vib)   ...       0.01 
freq.    1310.58  E(vib)   ...       0.01 
freq.    1333.28  E(vib)   ...       0.01 
freq.    1356.69  E(vib)   ...       0.01 
freq.    1376.77  E(vib)   ...       0.01 
freq.    1389.33  E(vib)   ...       0.00 
freq.    1402.56  E(vib)   ...       0.00 
freq.    1407.97  E(vib)   ...       0.00 
freq.    1466.62  E(vib)   ...       0.00 
freq.    1466.86  E(vib)   ...       0.00 
freq.    1470.96  E(vib)   ...       0.00 
freq.    1472.67  E(vib)   ...       0.00 
freq.    1474.08  E(vib)   ...       0.00 
freq.    1483.21  E(vib)   ...       0.00 
freq.    1500.09  E(vib)   ...       0.00 
freq.    1541.70  E(vib)   ...       0.00 
freq.    1588.53  E(vib)   ...       0.00 
freq.    1650.47  E(vib)   ...       0.00 
freq.    1666.27  E(vib)   ...       0.00 
freq.    1720.94  E(vib)   ...       0.00 
freq.    1809.88  E(vib)   ...       0.00 
freq.    3039.25  E(vib)   ...       0.00 
freq.    3077.57  E(vib)   ...       0.00 
freq.    3111.74  E(vib)   ...       0.00 
freq.    3123.82  E(vib)   ...       0.00 
freq.    3158.35  E(vib)   ...       0.00 
freq.    3164.34  E(vib)   ...       0.00 
freq.    3168.31  E(vib)   ...       0.00 
freq.    3186.52  E(vib)   ...       0.00 
freq.    3197.59  E(vib)   ...       0.00 
freq.    3198.06  E(vib)   ...       0.00 
freq.    3217.03  E(vib)   ...       0.00 
freq.    3232.54  E(vib)   ...       0.00 

------------
INNER ENERGY
------------

The inner energy is: U= E(el) + E(ZPE) + E(vib) + E(rot) + E(trans)
    E(el)   - is the total energy from the electronic structure calculation
              = E(kin-el) + E(nuc-el) + E(el-el) + E(nuc-nuc)
    E(ZPE)  - the the zero temperature vibrational energy from the frequency calculation
    E(vib)  - the the finite temperature correction to E(ZPE) due to population
              of excited vibrational states
    E(rot)  - is the rotational thermal energy
    E(trans)- is the translational thermal energy

Summary of contributions to the inner energy U:
Electronic energy                ...  -1099.63054272 Eh
Zero point energy                ...      0.24551463 Eh     154.06 kcal/mol
Thermal vibrational correction   ...      0.01624514 Eh      10.19 kcal/mol
Thermal rotational correction    ...      0.00141627 Eh       0.89 kcal/mol
Thermal translational correction ...      0.00141627 Eh       0.89 kcal/mol
-----------------------------------------------------------------------
Total thermal energy                  -1099.36595040 Eh


Summary of corrections to the electronic energy:
(perhaps to be used in another calculation)
Total thermal correction                  0.01907769 Eh      11.97 kcal/mol
Non-thermal (ZPE) correction              0.24551463 Eh     154.06 kcal/mol
-----------------------------------------------------------------------
Total correction                          0.26459232 Eh     166.03 kcal/mol


--------
ENTHALPY
--------

The enthalpy is H = U + kB*T
                kB is Boltzmann's constant
Total free energy                 ...  -1099.36595040 Eh 
Thermal Enthalpy correction       ...      0.00094421 Eh       0.59 kcal/mol
-----------------------------------------------------------------------
Total Enthalpy                    ...  -1099.36500619 Eh


Note: Only C1 symmetry has been detected, increase convergence thresholds 
      if your molecule has a higher symmetry. Symmetry factor of 1.0 is   
      used for the rotational entropy correction. 
 

Note: Rotational entropy computed according to Herzberg 
Infrared and Raman Spectra, Chapter V,1, Van Nostrand Reinhold, 1945 
Point Group:  C1, Symmetry Number:   1  
Rotational constants in cm-1:     0.012084     0.010043     0.006873 

Vibrational entropy computed according to the QRRHO of S. Grimme
Chem.Eur.J. 2012 18 9955


-------
ENTROPY
-------

The entropy contributions are T*S = T*(S(el)+S(vib)+S(rot)+S(trans))
     S(el)   - electronic entropy
     S(vib)  - vibrational entropy
     S(rot)  - rotational entropy
     S(trans)- translational entropy
The entropies will be listed as multiplied by the temperature to get
units of energy

Electronic entropy                ...      0.00000000 Eh      0.00 kcal/mol
Vibrational entropy               ...      0.02968695 Eh     18.63 kcal/mol
Rotational entropy                ...      0.01611858 Eh     10.11 kcal/mol
Translational entropy             ...      0.02040929 Eh     12.81 kcal/mol
-----------------------------------------------------------------------
Final entropy term                ...      0.06621482 Eh     41.55 kcal/mol

In case the symmetry of your molecule has not been determined correctly
or in case you have a reason to use a different symmetry number we print 
out the resulting rotational entropy values for sn=1,12 :
 --------------------------------------------------------
|  sn= 1 | S(rot)=       0.01611858 Eh     10.11 kcal/mol|
|  sn= 2 | S(rot)=       0.01546412 Eh      9.70 kcal/mol|
|  sn= 3 | S(rot)=       0.01508129 Eh      9.46 kcal/mol|
|  sn= 4 | S(rot)=       0.01480967 Eh      9.29 kcal/mol|
|  sn= 5 | S(rot)=       0.01459898 Eh      9.16 kcal/mol|
|  sn= 6 | S(rot)=       0.01442683 Eh      9.05 kcal/mol|
|  sn= 7 | S(rot)=       0.01428129 Eh      8.96 kcal/mol|
|  sn= 8 | S(rot)=       0.01415521 Eh      8.88 kcal/mol|
|  sn= 9 | S(rot)=       0.01404400 Eh      8.81 kcal/mol|
|  sn=10 | S(rot)=       0.01394452 Eh      8.75 kcal/mol|
|  sn=11 | S(rot)=       0.01385453 Eh      8.69 kcal/mol|
|  sn=12 | S(rot)=       0.01377238 Eh      8.64 kcal/mol|
 --------------------------------------------------------


-------------------
GIBBS FREE ENERGY
-------------------

The Gibbs free energy is G = H - T*S

Total enthalpy                    ...  -1099.36500619 Eh 
Total entropy correction          ...     -0.06621482 Eh    -41.55 kcal/mol
-----------------------------------------------------------------------
Final Gibbs free energy         ...  -1099.43122101 Eh

For completeness - the Gibbs free energy minus the electronic energy
G-E(el)                           ...      0.19932171 Eh    125.08 kcal/mol


Timings for individual modules:

Sum of individual times         ...     2683.789 sec (=  44.730 min)
GTO integral calculation        ...       35.607 sec (=   0.593 min)   1.3 %
SCF iterations                  ...     1113.445 sec (=  18.557 min)  41.5 %
SCF Gradient evaluation         ...      293.868 sec (=   4.898 min)  10.9 %
Geometry relaxation             ...        1.879 sec (=   0.031 min)   0.1 %
Analytical frequency calculation...     1238.991 sec (=  20.650 min)  46.2 %
                             ****ORCA TERMINATED NORMALLY****
TOTAL RUN TIME: 0 days 0 hours 45 minutes 43 seconds 742 msec
