
                                 *****************
                                 * O   R   C   A *
                                 *****************

                                            #,                                       
                                            ###                                      
                                            ####                                     
                                            #####                                    
                                            ######                                   
                                           ########,                                 
                                     ,,################,,,,,                         
                               ,,#################################,,                 
                          ,,##########################################,,             
                       ,#########################################, ''#####,          
                    ,#############################################,,   '####,        
                  ,##################################################,,,,####,       
                ,###########''''           ''''###############################       
              ,#####''   ,,,,##########,,,,          '''####'''          '####       
            ,##' ,,,,###########################,,,                        '##       
           ' ,,###''''                  '''############,,,                           
         ,,##''                                '''############,,,,        ,,,,,,###''
      ,#''                                            '''#######################'''  
     '                                                          ''''####''''         
             ,#######,   #######,   ,#######,      ##                                
            ,#'     '#,  ##    ##  ,#'     '#,    #''#        ######   ,####,        
            ##       ##  ##   ,#'  ##            #'  '#       #        #'  '#        
            ##       ##  #######   ##           ,######,      #####,   #    #        
            '#,     ,#'  ##    ##  '#,     ,#' ,#      #,         ##   #,  ,#        
             '#######'   ##     ##  '#######'  #'      '#     #####' # '####'        



                  #######################################################
                  #                        -***-                        #
                  #          Department of theory and spectroscopy      #
                  #    Directorship and core code : Frank Neese         #
                  #        Max Planck Institute fuer Kohlenforschung    #
                  #                Kaiser Wilhelm Platz 1               #
                  #                 D-45470 Muelheim/Ruhr               #
                  #                      Germany                        #
                  #                                                     #
                  #                  All rights reserved                #
                  #                        -***-                        #
                  #######################################################


                         Program Version 5.0.4 -  RELEASE  -


 With contributions from (in alphabetic order):
   Daniel Aravena         : Magnetic Suceptibility
   Michael Atanasov       : Ab Initio Ligand Field Theory (pilot matlab implementation)
   Alexander A. Auer      : GIAO ZORA, VPT2 properties, NMR spectrum
   Ute Becker             : Parallelization
   Giovanni Bistoni       : ED, misc. LED, open-shell LED, HFLD
   Martin Brehm           : Molecular dynamics
   Dmytro Bykov           : SCF Hessian
   Vijay G. Chilkuri      : MRCI spin determinant printing, contributions to CSF-ICE
   Dipayan Datta          : RHF DLPNO-CCSD density
   Achintya Kumar Dutta   : EOM-CC, STEOM-CC
   Dmitry Ganyushin       : Spin-Orbit,Spin-Spin,Magnetic field MRCI
   Miquel Garcia          : C-PCM and meta-GGA Hessian, CC/C-PCM, Gaussian charge scheme
   Yang Guo               : DLPNO-NEVPT2, F12-NEVPT2, CIM, IAO-localization
   Andreas Hansen         : Spin unrestricted coupled pair/coupled cluster methods
   Benjamin Helmich-Paris : MC-RPA, TRAH-SCF, COSX integrals
   Lee Huntington         : MR-EOM, pCC
   Robert Izsak           : Overlap fitted RIJCOSX, COSX-SCS-MP3, EOM
   Marcus Kettner         : VPT2
   Christian Kollmar      : KDIIS, OOCD, Brueckner-CCSD(T), CCSD density, CASPT2, CASPT2-K
   Simone Kossmann        : Meta GGA functionals, TD-DFT gradient, OOMP2, MP2 Hessian
   Martin Krupicka        : Initial AUTO-CI
   Lucas Lang             : DCDCAS
   Marvin Lechner         : AUTO-CI (C++ implementation), FIC-MRCC
   Dagmar Lenk            : GEPOL surface, SMD
   Dimitrios Liakos       : Extrapolation schemes; Compound Job, initial MDCI parallelization
   Dimitrios Manganas     : Further ROCIS development; embedding schemes
   Dimitrios Pantazis     : SARC Basis sets
   Anastasios Papadopoulos: AUTO-CI, single reference methods and gradients
   Taras Petrenko         : DFT Hessian,TD-DFT gradient, ASA, ECA, R-Raman, ABS, FL, XAS/XES, NRVS
   Peter Pinski           : DLPNO-MP2, DLPNO-MP2 Gradient
   Christoph Reimann      : Effective Core Potentials
   Marius Retegan         : Local ZFS, SOC
   Christoph Riplinger    : Optimizer, TS searches, QM/MM, DLPNO-CCSD(T), (RO)-DLPNO pert. Triples
   Tobias Risthaus        : Range-separated hybrids, TD-DFT gradient, RPA, STAB
   Michael Roemelt        : Original ROCIS implementation
   Masaaki Saitow         : Open-shell DLPNO-CCSD energy and density
   Barbara Sandhoefer     : DKH picture change effects
   Avijit Sen             : IP-ROCIS
   Kantharuban Sivalingam : CASSCF convergence, NEVPT2, FIC-MRCI
   Bernardo de Souza      : ESD, SOC TD-DFT
   Georgi Stoychev        : AutoAux, RI-MP2 NMR, DLPNO-MP2 response
   Willem Van den Heuvel  : Paramagnetic NMR
   Boris Wezisla          : Elementary symmetry handling
   Frank Wennmohs         : Technical directorship


 We gratefully acknowledge several colleagues who have allowed us to
 interface, adapt or use parts of their codes:
   Stefan Grimme, W. Hujo, H. Kruse, P. Pracht,  : VdW corrections, initial TS optimization,
                  C. Bannwarth, S. Ehlert          DFT functionals, gCP, sTDA/sTD-DF
   Ed Valeev, F. Pavosevic, A. Kumar             : LibInt (2-el integral package), F12 methods
   Garnet Chan, S. Sharma, J. Yang, R. Olivares  : DMRG
   Ulf Ekstrom                                   : XCFun DFT Library
   Mihaly Kallay                                 : mrcc  (arbitrary order and MRCC methods)
   Jiri Pittner, Ondrej Demel                    : Mk-CCSD
   Frank Weinhold                                : gennbo (NPA and NBO analysis)
   Christopher J. Cramer and Donald G. Truhlar   : smd solvation model
   Lars Goerigk                                  : TD-DFT with DH, B97 family of functionals
   V. Asgeirsson, H. Jonsson                     : NEB implementation
   FAccTs GmbH                                   : IRC, NEB, NEB-TS, DLPNO-Multilevel, CI-OPT
                                                   MM, QMMM, 2- and 3-layer-ONIOM, Crystal-QMMM,
                                                   LR-CPCM, SF, NACMEs, symmetry and pop. for TD-DFT,
                                                   nearIR, NL-DFT gradient (VV10), updates on ESD,
                                                   ML-optimized integration grids
   S Lehtola, MJT Oliveira, MAL Marques          : LibXC Library
   Liviu Ungur et al                             : ANISO software


 Your calculation uses the libint2 library for the computation of 2-el integrals
 For citations please refer to: http://libint.valeyev.net

 Your ORCA version has been built with support for libXC version: 5.1.0
 For citations please refer to: https://tddft.org/programs/libxc/

 This ORCA versions uses:
   CBLAS   interface :  Fast vector & matrix operations
   LAPACKE interface :  Fast linear algebra routines
   SCALAPACK package :  Parallel linear algebra routines
   Shared memory     :  Shared parallel matrices
   BLAS/LAPACK       :  OpenBLAS 0.3.15  USE64BITINT DYNAMIC_ARCH NO_AFFINITY Haswell SINGLE_THREADED
        Core in use  :  Haswell
   Copyright (c) 2011-2014, The OpenBLAS Project


Your calculation utilizes the atom-pairwise dispersion correction
with the Becke-Johnson damping scheme (D3BJ)
Cite in your paper:
S.Grimme, S.Ehrlich, L.Goerigk, J Comput Chem, (2011), 32, 1456–1465 
S.Grimme, J.Antony, S.Ehrlich and H.Krieg, J.Chem.Phys., 132, (2010), 154104 
   

================================================================================

----- Orbital basis set information -----
Your calculation utilizes the basis: def2-TZVP
   F. Weigend and R. Ahlrichs, Phys. Chem. Chem. Phys. 7, 3297 (2005).

----- AuxJ basis set information -----
Your calculation utilizes the auxiliary basis: def2/J
   F. Weigend, Phys. Chem. Chem. Phys. 8, 1057 (2006).

================================================================================
                                        WARNINGS
                       Please study these warnings very carefully!
================================================================================


WARNING: Geometry Optimization
  ===> : Switching off AutoStart
         For restart on a previous wavefunction, please use MOREAD

INFO   : the flag for use of the SHARK integral package has been found!

================================================================================
                                       INPUT FILE
================================================================================
NAME = 4_NMe2_free/4_NMe2_free.inp
|  1> %pal nprocs 24 end
|  2> %maxcore 3500
|  3> ! PBE0 D3BJ def2-TZVP TightSCF OPT FREQ TightOpt
|  4> ! CPCM(dmso)
|  5> %scf
|  6> MaxIter 800
|  7> end
|  8> %geom
|  9> MaxIter 800
| 10> MaxStep 0.2
| 11> end
| 12> *xyz 0 1
| 13> C        0.930832801     -1.190766429      0.178340365
| 14> C        1.429221075     -2.171966506     -0.867148330
| 15> O        0.791063395     -2.405310319     -1.865379548
| 16> O        2.592690334     -2.720771185     -0.571060983
| 17> C        3.106725364     -3.657483622     -1.525846529
| 18> H       -0.083279925     -1.491507498      0.462340116
| 19> H        4.056448640     -3.996527996     -1.120796995
| 20> H        3.253655489     -3.170131151     -2.489857884
| 21> C        2.267005198      0.708760103      0.205908509
| 22> C        0.964592629      0.253363635     -0.367441331
| 23> C       -0.191561605      1.116727711      0.070449062
| 24> C       -0.202747648      1.744057103      1.306482806
| 25> C       -1.276932333      2.526972683      1.709177122
| 26> C       -2.355113089      2.684223914      0.854806476
| 27> C       -2.369401421      2.066167348     -0.388744958
| 28> C       -1.293582740      1.277686984     -0.781967034
| 29> O       -1.230683934      0.628999171     -1.964835652
| 30> C       -2.297941332      0.799104668     -2.878101059
| 31> N        2.690469073     -0.130036648      1.109027072
| 32> O        3.695964327     -0.149330054      1.846362111
| 33> H        0.991403727      0.225241800     -1.456310028
| 34> H        0.647546161      1.618700002      1.969018502
| 35> H       -1.266816995      3.007780361      2.679883220
| 36> H       -3.202860935      3.291468282      1.151728881
| 37> H       -3.223544915      2.194008464     -1.039879127
| 38> H       -2.043446079      0.201866208     -3.751279655
| 39> H       -2.404040317      1.848251311     -3.169011731
| 40> H       -3.239535177      0.441297539     -2.453201431
| 41> O        1.729127630     -1.165077150      1.343149025
| 42> H        2.417591943     -4.494505006     -1.638664180
| 43> N        2.941672730      1.840051838     -0.129854634
| 44> C        2.505276170      2.562763381     -1.307050295
| 45> H        3.314064167      3.224999019     -1.618560993
| 46> H        2.296445761      1.875095765     -2.125066247
| 47> H        1.613745830      3.172782447     -1.113875912
| 48> C        3.487208680      2.682540938      0.921347253
| 49> H        4.302998852      3.277181166      0.508044269
| 50> H        2.721187511      3.362470477      1.315456914
| 51> H        3.869738347      2.065757509      1.731972280
| 52> *
| 53> 
| 54>                          ****END OF INPUT****
================================================================================

                       *****************************
                       * Geometry Optimization Run *
                       *****************************

Geometry optimization settings:
Update method            Update   .... BFGS
Choice of coordinates    CoordSys .... Z-matrix Internals
Initial Hessian          InHess   .... Almoef's Model

Convergence Tolerances:
Energy Change            TolE     ....  1.0000e-06 Eh
Max. Gradient            TolMAXG  ....  1.0000e-04 Eh/bohr
RMS Gradient             TolRMSG  ....  3.0000e-05 Eh/bohr
Max. Displacement        TolMAXD  ....  1.0000e-03 bohr
RMS Displacement         TolRMSD  ....  6.0000e-04 bohr
Strict Convergence                ....  False
------------------------------------------------------------------------------
                        ORCA OPTIMIZATION COORDINATE SETUP
------------------------------------------------------------------------------

The optimization will be done in new redundant internal coordinates
Making redundant internal coordinates   ...  (new redundants) done
Evaluating the initial hessian          ...  (Almloef) done
Evaluating the coordinates              ...  done
Calculating the B-matrix                .... done
Calculating the G-matrix                .... done
Diagonalizing the G-matrix              .... done
Small eigenvalue found = 4.722e-03
Small eigenvalue found = 8.251e-03
Small eigenvalue found = 9.996e-03
Small eigenvalue found = 1.365e-02
Small eigenvalue found = 1.757e-02
Small eigenvalue found = 2.248e-02
The first mode is                       ....   84
The number of degrees of freedom        ....  111

    -----------------------------------------------------------------
                    Redundant Internal Coordinates


    -----------------------------------------------------------------
         Definition                    Initial Value    Approx d2E/dq
    -----------------------------------------------------------------
      1. B(C   1,C   0)                  1.5180         0.390474   
      2. B(O   2,C   1)                  1.2075         1.093891   
      3. B(O   3,C   1)                  1.3200         0.723580   
      4. B(C   4,O   3)                  1.4329         0.477958   
      5. B(H   5,C   0)                  1.0952         0.353249   
      6. B(H   6,C   4)                  1.0867         0.364447   
      7. B(H   7,C   4)                  1.0901         0.359907   
      8. B(C   9,C   8)                  1.4941         0.426208   
      9. B(C   9,C   0)                  1.5442         0.354597   
     10. B(C  10,C   9)                  1.5079         0.405132   
     11. B(C  11,C  10)                  1.3862         0.633667   
     12. B(C  12,C  11)                  1.3889         0.627369   
     13. B(C  13,C  12)                  1.3846         0.637286   
     14. B(C  14,C  13)                  1.3887         0.627679   
     15. B(C  15,C  10)                  1.4025         0.596781   
     16. B(C  15,C  14)                  1.3906         0.623468   
     17. B(O  16,C  15)                  1.3505         0.646916   
     18. B(C  17,O  16)                  1.4149         0.510623   
     19. B(N  18,C   8)                  1.3033         0.769556   
     20. B(O  19,N  18)                  1.2470         0.847481   
     21. B(H  20,C   9)                  1.0896         0.360680   
     22. B(H  21,C  11)                  1.0852         0.366501   
     23. B(H  22,C  12)                  1.0833         0.369067   
     24. B(H  23,C  13)                  1.0842         0.367796   
     25. B(H  24,C  14)                  1.0816         0.371372   
     26. B(H  25,C  17)                  1.0881         0.362658   
     27. B(H  26,C  17)                  1.0939         0.354991   
     28. B(H  27,C  17)                  1.0932         0.355845   
     29. B(O  28,N  18)                  1.4319         0.429719   
     30. B(O  28,C   0)                  1.4123         0.515499   
     31. B(H  29,C   4)                  1.0901         0.360017   
     32. B(N  30,C   8)                  1.3593         0.626373   
     33. B(C  31,N  30)                  1.4486         0.451156   
     34. B(H  32,C  31)                  1.0907         0.359111   
     35. B(H  33,C  31)                  1.0889         0.361592   
     36. B(H  34,C  31)                  1.0974         0.350455   
     37. B(C  35,N  30)                  1.4534         0.443299   
     38. B(H  36,C  35)                  1.0908         0.358992   
     39. B(H  37,C  35)                  1.0975         0.350367   
     40. B(H  38,C  35)                  1.0881         0.362682   
     41. A(C   1,C   0,H   5)          107.7650         0.325656   
     42. A(H   5,C   0,O  28)          108.3307         0.338939   
     43. A(C   1,C   0,C   9)          110.7260         0.362862   
     44. A(C   1,C   0,O  28)          113.2168         0.384612   
     45. A(C   9,C   0,O  28)          105.1964         0.378233   
     46. A(H   5,C   0,C   9)          111.6350         0.320549   
     47. A(C   0,C   1,O   2)          121.3830         0.439490   
     48. A(O   2,C   1,O   3)          124.8113         0.488689   
     49. A(C   0,C   1,O   3)          113.8056         0.408192   
     50. A(C   1,O   3,C   4)          116.0083         0.420387   
     51. A(H   6,C   4,H   7)          110.5658         0.291364   
     52. A(H   7,C   4,H  29)          109.6919         0.290804   
     53. A(O   3,C   4,H   6)          105.6106         0.336439   
     54. A(O   3,C   4,H   7)          110.2020         0.335738   
     55. A(O   3,C   4,H  29)          110.1288         0.335755   
     56. A(H   6,C   4,H  29)          110.5794         0.291378   
     57. A(C   9,C   8,N  18)          110.6698         0.419152   
     58. A(N  18,C   8,N  30)          123.0617         0.446250   
     59. A(C   9,C   8,N  30)          126.2652         0.404122   
     60. A(C  10,C   9,H  20)          108.8961         0.328765   
     61. A(C   8,C   9,H  20)          111.7101         0.331533   
     62. A(C   0,C   9,H  20)          109.2455         0.321643   
     63. A(C   0,C   9,C  10)          114.5855         0.365156   
     64. A(C   8,C   9,C  10)          112.4823         0.376896   
     65. A(C   0,C   9,C   8)           99.6989         0.368344   
     66. A(C   9,C  10,C  11)          121.6175         0.403934   
     67. A(C  11,C  10,C  15)          118.9261         0.432790   
     68. A(C   9,C  10,C  15)          119.4505         0.399688   
     69. A(C  10,C  11,C  12)          121.3251         0.436702   
     70. A(C  12,C  11,H  21)          119.6104         0.354673   
     71. A(C  10,C  11,H  21)          119.0645         0.355274   
     72. A(C  13,C  12,H  22)          120.6489         0.356039   
     73. A(C  11,C  12,C  13)          119.1674         0.437150   
     74. A(C  11,C  12,H  22)          120.1837         0.355093   
     75. A(C  14,C  13,H  23)          119.1062         0.354915   
     76. A(C  12,C  13,C  14)          120.6639         0.437189   
     77. A(C  12,C  13,H  23)          120.2296         0.355831   
     78. A(C  13,C  14,C  15)          119.8413         0.435466   
     79. A(C  15,C  14,H  24)          120.5130         0.355092   
     80. A(C  13,C  14,H  24)          119.6425         0.355498   
     81. A(C  14,C  15,O  16)          123.7832         0.434971   
     82. A(C  10,C  15,O  16)          116.1431         0.431562   
     83. A(C  10,C  15,C  14)          120.0734         0.431530   
     84. A(C  15,O  16,C  17)          118.1931         0.416963   
     85. A(H  26,C  17,H  27)          109.4952         0.289647   
     86. A(H  25,C  17,H  27)          109.4938         0.290620   
     87. A(O  16,C  17,H  27)          111.0663         0.338815   
     88. A(H  25,C  17,H  26)          109.6159         0.290510   
     89. A(O  16,C  17,H  26)          111.1073         0.338680   
     90. A(O  16,C  17,H  25)          105.9954         0.339890   
     91. A(C   8,N  18,O  19)          132.9752         0.468340   
     92. A(O  19,N  18,O  28)          115.6890         0.418680   
     93. A(C   8,N  18,O  28)          111.1240         0.414291   
     94. A(C   0,O  28,N  18)          104.9385         0.386089   
     95. A(C   8,N  30,C  35)          119.3450         0.404322   
     96. A(C  31,N  30,C  35)          114.3069         0.381752   
     97. A(C   8,N  30,C  31)          117.8016         0.405579   
     98. A(H  33,C  31,H  34)          109.1169         0.289791   
     99. A(H  32,C  31,H  34)          108.3714         0.289478   
    100. A(N  30,C  31,H  34)          112.2726         0.331074   
    101. A(H  32,C  31,H  33)          108.1249         0.290903   
    102. A(N  30,C  31,H  33)          110.6824         0.332794   
    103. A(N  30,C  31,H  32)          108.1558         0.332414   
    104. A(H  37,C  35,H  38)          109.2113         0.289916   
    105. A(H  36,C  35,H  38)          109.1696         0.291025   
    106. A(N  30,C  35,H  38)          110.0120         0.331992   
    107. A(H  36,C  35,H  37)          108.6830         0.289452   
    108. A(N  30,C  35,H  37)          110.9081         0.330099   
    109. A(N  30,C  35,H  36)          108.8237         0.331430   
    110. D(O   3,C   1,C   0,H   5)   -126.6938         0.011342   
    111. D(O   2,C   1,C   0,H   5)     53.2067         0.011342   
    112. D(O   3,C   1,C   0,C   9)    110.9505         0.011342   
    113. D(O   2,C   1,C   0,C   9)    -69.1490         0.011342   
    114. D(O   3,C   1,C   0,O  28)     -6.9067         0.011342   
    115. D(O   2,C   1,C   0,O  28)    172.9938         0.011342   
    116. D(C   4,O   3,C   1,C   0)    179.8900         0.039466   
    117. D(C   4,O   3,C   1,O   2)     -0.0066         0.039466   
    118. D(H   7,C   4,O   3,C   1)     60.3818         0.018018   
    119. D(H   6,C   4,O   3,C   1)    179.8182         0.018018   
    120. D(H  29,C   4,O   3,C   1)    -60.7678         0.018018   
    121. D(C  10,C   9,C   0,C   1)    142.4841         0.010110   
    122. D(H  20,C   9,C   8,N  18)   -128.1817         0.013422   
    123. D(C   8,C   9,C   0,O  28)     25.4558         0.010110   
    124. D(C  10,C   9,C   8,N  30)    -70.3579         0.013422   
    125. D(C   8,C   9,C   0,C   1)    -97.1966         0.010110   
    126. D(C   0,C   9,C   8,N  30)    167.8031         0.013422   
    127. D(C   0,C   9,C   8,N  18)    -12.8425         0.013422   
    128. D(H  20,C   9,C   0,O  28)    142.6597         0.010110   
    129. D(H  20,C   9,C   0,H   5)   -100.0608         0.010110   
    130. D(H  20,C   9,C   0,C   1)     20.0074         0.010110   
    131. D(C  10,C   9,C   8,N  18)    108.9966         0.013422   
    132. D(C  10,C   9,C   0,O  28)    -94.8635         0.010110   
    133. D(C  10,C   9,C   0,H   5)     22.4159         0.010110   
    134. D(H  20,C   9,C   8,N  30)     52.4638         0.013422   
    135. D(C   8,C   9,C   0,H   5)    142.7353         0.010110   
    136. D(C  15,C  10,C   9,C   0)    -97.2850         0.012168   
    137. D(C  11,C  10,C   9,H  20)   -155.5165         0.012168   
    138. D(C  11,C  10,C   9,C   8)    -31.1280         0.012168   
    139. D(C  15,C  10,C   9,C   8)    149.7694         0.012168   
    140. D(C  11,C  10,C   9,C   0)     81.8176         0.012168   
    141. D(C  15,C  10,C   9,H  20)     25.3809         0.012168   
    142. D(H  21,C  11,C  10,C  15)    179.8250         0.027861   
    143. D(H  21,C  11,C  10,C   9)      0.7178         0.027861   
    144. D(C  12,C  11,C  10,C  15)     -0.2301         0.027861   
    145. D(C  12,C  11,C  10,C   9)   -179.3373         0.027861   
    146. D(H  22,C  12,C  11,H  21)     -0.1364         0.027275   
    147. D(H  22,C  12,C  11,C  10)    179.9190         0.027275   
    148. D(C  13,C  12,C  11,H  21)    179.7909         0.027275   
    149. D(C  13,C  12,C  11,C  10)     -0.1537         0.027275   
    150. D(H  23,C  13,C  12,H  22)     -0.0831         0.028202   
    151. D(H  23,C  13,C  12,C  11)    179.9900         0.028202   
    152. D(C  14,C  13,C  12,H  22)   -179.8910         0.028202   
    153. D(C  14,C  13,C  12,C  11)      0.1821         0.028202   
    154. D(H  24,C  14,C  13,H  23)     -0.2835         0.027304   
    155. D(H  24,C  14,C  13,C  12)    179.5265         0.027304   
    156. D(C  15,C  14,C  13,H  23)   -179.6329         0.027304   
    157. D(C  15,C  14,C  13,C  12)      0.1772         0.027304   
    158. D(O  16,C  15,C  14,H  24)     -0.1134         0.026916   
    159. D(C  10,C  15,C  14,H  24)   -179.9098         0.026916   
    160. D(C  10,C  15,C  14,C  13)     -0.5662         0.026916   
    161. D(O  16,C  15,C  10,C  11)   -179.2219         0.024538   
    162. D(O  16,C  15,C  10,C   9)     -0.0950         0.024538   
    163. D(O  16,C  15,C  14,C  13)    179.2303         0.026916   
    164. D(C  14,C  15,C  10,C  11)      0.5896         0.024538   
    165. D(C  14,C  15,C  10,C   9)    179.7165         0.024538   
    166. D(C  17,O  16,C  15,C  14)      2.3892         0.030905   
    167. D(C  17,O  16,C  15,C  10)   -177.8070         0.030905   
    168. D(H  27,C  17,O  16,C  15)    -61.4447         0.020643   
    169. D(H  26,C  17,O  16,C  15)     60.6986         0.020643   
    170. D(H  25,C  17,O  16,C  15)    179.7114         0.020643   
    171. D(O  19,N  18,C   8,N  30)      0.5022         0.050024   
    172. D(O  19,N  18,C   8,C   9)   -178.8767         0.050024   
    173. D(O  28,N  18,C   8,N  30)    174.8423         0.050024   
    174. D(O  28,N  18,C   8,C   9)     -4.5367         0.050024   
    175. D(C   0,O  28,N  18,O  19)   -162.7135         0.015342   
    176. D(C   0,O  28,N  18,C   8)     21.8792         0.015342   
    177. D(N  18,O  28,C   0,C   9)    -28.9316         0.021054   
    178. D(N  18,O  28,C   0,H   5)   -148.4344         0.021054   
    179. D(N  18,O  28,C   0,C   1)     92.1027         0.021054   
    180. D(C  35,N  30,C   8,N  18)    -44.9049         0.031821   
    181. D(C  35,N  30,C   8,C   9)    134.3745         0.031821   
    182. D(C  31,N  30,C   8,N  18)    168.9679         0.031821   
    183. D(C  31,N  30,C   8,C   9)    -11.7528         0.031821   
    184. D(H  34,C  31,N  30,C  35)    -69.1177         0.017365   
    185. D(H  34,C  31,N  30,C   8)     78.6678         0.017365   
    186. D(H  33,C  31,N  30,C  35)    168.6807         0.017365   
    187. D(H  33,C  31,N  30,C   8)    -43.5338         0.017365   
    188. D(H  32,C  31,N  30,C  35)     50.4033         0.017365   
    189. D(H  32,C  31,N  30,C   8)   -161.8112         0.017365   
    190. D(H  38,C  35,N  30,C  31)   -175.1600         0.016759   
    191. D(H  38,C  35,N  30,C   8)     37.5896         0.016759   
    192. D(H  37,C  35,N  30,C  31)     63.9082         0.016759   
    193. D(H  37,C  35,N  30,C   8)    -83.3422         0.016759   
    194. D(H  36,C  35,N  30,C  31)    -55.5979         0.016759   
    195. D(H  36,C  35,N  30,C   8)    157.1517         0.016759   
    -----------------------------------------------------------------

Number of atoms                         .... 39
Number of degrees of freedom            .... 195

         *************************************************************
         *                GEOMETRY OPTIMIZATION CYCLE   1            *
         *************************************************************
---------------------------------
CARTESIAN COORDINATES (ANGSTROEM)
---------------------------------
  C      0.930833   -1.190766    0.178340
  C      1.429221   -2.171967   -0.867148
  O      0.791063   -2.405310   -1.865380
  O      2.592690   -2.720771   -0.571061
  C      3.106725   -3.657484   -1.525847
  H     -0.083280   -1.491507    0.462340
  H      4.056449   -3.996528   -1.120797
  H      3.253655   -3.170131   -2.489858
  C      2.267005    0.708760    0.205909
  C      0.964593    0.253364   -0.367441
  C     -0.191562    1.116728    0.070449
  C     -0.202748    1.744057    1.306483
  C     -1.276932    2.526973    1.709177
  C     -2.355113    2.684224    0.854806
  C     -2.369401    2.066167   -0.388745
  C     -1.293583    1.277687   -0.781967
  O     -1.230684    0.628999   -1.964836
  C     -2.297941    0.799105   -2.878101
  N      2.690469   -0.130037    1.109027
  O      3.695964   -0.149330    1.846362
  H      0.991404    0.225242   -1.456310
  H      0.647546    1.618700    1.969019
  H     -1.266817    3.007780    2.679883
  H     -3.202861    3.291468    1.151729
  H     -3.223545    2.194008   -1.039879
  H     -2.043446    0.201866   -3.751280
  H     -2.404040    1.848251   -3.169012
  H     -3.239535    0.441298   -2.453201
  O      1.729128   -1.165077    1.343149
  H      2.417592   -4.494505   -1.638664
  N      2.941673    1.840052   -0.129855
  C      2.505276    2.562763   -1.307050
  H      3.314064    3.224999   -1.618561
  H      2.296446    1.875096   -2.125066
  H      1.613746    3.172782   -1.113876
  C      3.487209    2.682541    0.921347
  H      4.302999    3.277181    0.508044
  H      2.721188    3.362470    1.315457
  H      3.869738    2.065758    1.731972

----------------------------
CARTESIAN COORDINATES (A.U.)
----------------------------
  NO LB      ZA    FRAG     MASS         X           Y           Z
   0 C     6.0000    0    12.011    1.759019   -2.250222    0.337014
   1 C     6.0000    0    12.011    2.700836   -4.104422   -1.638673
   2 O     8.0000    0    15.999    1.494893   -4.545378   -3.525056
   3 O     8.0000    0    15.999    4.899475   -5.141512   -1.079149
   4 C     6.0000    0    12.011    5.870860   -6.911642   -2.883432
   5 H     1.0000    0     1.008   -0.157376   -2.818541    0.873696
   6 H     1.0000    0     1.008    7.665577   -7.552343   -2.117999
   7 H     1.0000    0     1.008    6.148518   -5.990680   -4.705150
   8 C     6.0000    0    12.011    4.284019    1.339362    0.389111
   9 C     6.0000    0    12.011    1.822816    0.478788   -0.694363
  10 C     6.0000    0    12.011   -0.361999    2.110310    0.133129
  11 C     6.0000    0    12.011   -0.383138    3.295790    2.468895
  12 C     6.0000    0    12.011   -2.413052    4.775286    3.229877
  13 C     6.0000    0    12.011   -4.450519    5.072448    1.615350
  14 C     6.0000    0    12.011   -4.477520    3.904490   -0.734622
  15 C     6.0000    0    12.011   -2.444517    2.414478   -1.477704
  16 O     8.0000    0    15.999   -2.325656    1.188636   -3.713001
  17 C     6.0000    0    12.011   -4.342480    1.510089   -5.438823
  18 N     7.0000    0    14.007    5.084250   -0.245734    2.095757
  19 O     8.0000    0    15.999    6.984360   -0.282193    3.489119
  20 H     1.0000    0     1.008    1.873482    0.425645   -2.752027
  21 H     1.0000    0     1.008    1.223685    3.058900    3.720906
  22 H     1.0000    0     1.008   -2.393937    5.683881    5.064245
  23 H     1.0000    0     1.008   -6.052530    6.219974    2.176452
  24 H     1.0000    0     1.008   -6.091617    4.146075   -1.965087
  25 H     1.0000    0     1.008   -3.861553    0.381472   -7.088891
  26 H     1.0000    0     1.008   -4.542978    3.492689   -5.988564
  27 H     1.0000    0     1.008   -6.121834    0.833931   -4.635879
  28 O     8.0000    0    15.999    3.267578   -2.201677    2.538184
  29 H     1.0000    0     1.008    4.568587   -8.493384   -3.096627
  30 N     7.0000    0    14.007    5.558956    3.477194   -0.245390
  31 C     6.0000    0    12.011    4.734286    4.842921   -2.469967
  32 H     1.0000    0     1.008    6.262674    6.094365   -3.058637
  33 H     1.0000    0     1.008    4.339654    3.543417   -4.015793
  34 H     1.0000    0     1.008    3.049538    5.995690   -2.104920
  35 C     6.0000    0    12.011    6.589869    5.069268    1.741094
  36 H     1.0000    0     1.008    8.131489    6.192975    0.960065
  37 H     1.0000    0     1.008    5.142299    6.354148    2.485853
  38 H     1.0000    0     1.008    7.312746    3.903716    3.272953

--------------------------------
INTERNAL COORDINATES (ANGSTROEM)
--------------------------------
 C      0   0   0     0.000000000000     0.00000000     0.00000000
 C      1   0   0     1.517956216147     0.00000000     0.00000000
 O      2   1   0     1.207543011324   121.38303882     0.00000000
 O      2   1   3     1.320043563442   113.80560572   180.09950444
 C      4   2   1     1.432926250910   116.00829723   179.88995016
 H      1   2   3     1.095228592663   107.76496732    53.20671107
 H      5   4   2     1.086733874281   105.61062689   179.81821396
 H      5   4   2     1.090146221931   110.20204009    60.38177393
 C      1   2   3     2.322567054541   110.36177476   248.70321164
 C      9   1   2     1.494119969073    40.94704452    98.20597745
 C     10   9   1     1.507925109813   112.48234742   121.83908202
 C     11  10   9     1.386162584235   121.61747789   328.87204779
 C     12  11  10     1.388881656238   121.32505294   180.66273959
 C     13  12  11     1.384612181445   119.16740615   359.84627647
 C     14  13  12     1.388747005113   120.66391012     0.18210476
 C     15  14  13     1.390579274927   119.84131233     0.17715772
 O     16  15  14     1.350529639060   123.78318286   179.23025211
 C     17  16  15     1.414930364830   118.19314839     2.38917069
 N      9   1   2     1.303274637885    70.65686452   265.47314959
 O     19   9   1     1.247018805419   132.97522532   172.24227907
 H     10   9   1     1.089561706323   111.71008188   244.66076533
 H     12  11  10     1.085203903821   119.06450545     0.71784811
 H     13  12  11     1.083304514890   120.18366651   179.91901977
 H     14  13  12     1.084243998119   120.22963975   179.99000293
 H     15  14  13     1.081609987621   119.64249980   179.52652600
 H     18  17  16     1.088072824959   105.99541526   179.71136267
 H     18  17  16     1.093889707521   111.10730643    60.69864524
 H     18  17  16     1.093235841152   111.06625352   298.55533757
 O      1   2   3     1.412343367413   113.21679162   172.99381582
 H      5   4   2     1.090063067712   110.12877930   299.23217050
 N      9   1   2     1.359313855080   164.42270665    58.83436334
 C     31   9   1     1.448635066620   117.80160518    19.28519925
 H     32  31   9     1.090748815859   108.15582778   198.18882524
 H     32  31   9     1.088874183524   110.68244051   316.46624223
 H     32  31   9     1.097390518581   112.27258289    78.66782795
 C     31   9   1     1.453417615000   119.34499493   165.41246176
 H     36  31   9     1.090839109159   108.82372522   157.15173932
 H     36  31   9     1.097458443065   110.90805588   276.65783691
 H     36  31   9     1.088054998069   110.01198584    37.58962069

---------------------------
INTERNAL COORDINATES (A.U.)
---------------------------
 C      0   0   0     0.000000000000     0.00000000     0.00000000
 C      1   0   0     2.868521531801     0.00000000     0.00000000
 O      2   1   0     2.281925586333   121.38303882     0.00000000
 O      2   1   3     2.494520819750   113.80560572   180.09950444
 C      4   2   1     2.707838184327   116.00829723   179.88995016
 H      1   2   3     2.069682094173   107.76496732    53.20671107
 H      5   4   2     2.053629402847   105.61062689   179.81821396
 H      5   4   2     2.060077805379   110.20204009    60.38177393
 C      1   2   3     4.389015660751   110.36177476   248.70321164
 C      9   1   2     2.823477552772    40.94704452    98.20597745
 C     10   9   1     2.849565488010   112.48234742   121.83908202
 C     11  10   9     2.619467661292   121.61747789   328.87204779
 C     12  11  10     2.624605962716   121.32505294   180.66273959
 C     13  12  11     2.616537824623   119.16740615   359.84627647
 C     14  13  12     2.624351508967   120.66391012     0.18210476
 C     15  14  13     2.627813997118   119.84131233     0.17715772
 O     16  15  14     2.552131153567   123.78318286   179.23025211
 C     17  16  15     2.673830888098   118.19314839     2.38917069
 N      9   1   2     2.462832142887    70.65686452   265.47314959
 O     19   9   1     2.356524026092   132.97522532   172.24227907
 H     10   9   1     2.058973230959   111.71008188   244.66076533
 H     12  11  10     2.050738177685   119.06450545     0.71784811
 H     13  12  11     2.047148852782   120.18366651   179.91901977
 H     14  13  12     2.048924218792   120.22963975   179.99000293
 H     15  14  13     2.043946660318   119.64249980   179.52652600
 H     18  17  16     2.056159652935   105.99541526   179.71136267
 H     18  17  16     2.067151967929   111.10730643    60.69864524
 H     18  17  16     2.065916339565   111.06625352   298.55533757
 O      1   2   3     2.668942171470   113.21679162   172.99381582
 H      5   4   2     2.059920666678   110.12877930   299.23217050
 N      9   1   2     2.568730916145   164.42270665    58.83436334
 C     31   9   1     2.737523543907   117.80160518    19.28519925
 H     32  31   9     2.061216542872   108.15582778   198.18882524
 H     32  31   9     2.057674001157   110.68244051   316.46624223
 H     32  31   9     2.073767542080   112.27258289    78.66782795
 C     31   9   1     2.746561250568   119.34499493   165.41246176
 H     36  31   9     2.061387172481   108.82372522   157.15173932
 H     36  31   9     2.073895900752   110.90805588   276.65783691
 H     36  31   9     2.056125964995   110.01198584    37.58962069

---------------------
BASIS SET INFORMATION
---------------------
There are 4 groups of distinct atoms

 Group   1 Type C   : 11s6p2d1f contracted to 5s3p2d1f pattern {62111/411/11/1}
 Group   2 Type O   : 11s6p2d1f contracted to 5s3p2d1f pattern {62111/411/11/1}
 Group   3 Type H   : 5s1p contracted to 3s1p pattern {311/1}
 Group   4 Type N   : 11s6p2d1f contracted to 5s3p2d1f pattern {62111/411/11/1}

Atom   0C    basis set group =>   1
Atom   1C    basis set group =>   1
Atom   2O    basis set group =>   2
Atom   3O    basis set group =>   2
Atom   4C    basis set group =>   1
Atom   5H    basis set group =>   3
Atom   6H    basis set group =>   3
Atom   7H    basis set group =>   3
Atom   8C    basis set group =>   1
Atom   9C    basis set group =>   1
Atom  10C    basis set group =>   1
Atom  11C    basis set group =>   1
Atom  12C    basis set group =>   1
Atom  13C    basis set group =>   1
Atom  14C    basis set group =>   1
Atom  15C    basis set group =>   1
Atom  16O    basis set group =>   2
Atom  17C    basis set group =>   1
Atom  18N    basis set group =>   4
Atom  19O    basis set group =>   2
Atom  20H    basis set group =>   3
Atom  21H    basis set group =>   3
Atom  22H    basis set group =>   3
Atom  23H    basis set group =>   3
Atom  24H    basis set group =>   3
Atom  25H    basis set group =>   3
Atom  26H    basis set group =>   3
Atom  27H    basis set group =>   3
Atom  28O    basis set group =>   2
Atom  29H    basis set group =>   3
Atom  30N    basis set group =>   4
Atom  31C    basis set group =>   1
Atom  32H    basis set group =>   3
Atom  33H    basis set group =>   3
Atom  34H    basis set group =>   3
Atom  35C    basis set group =>   1
Atom  36H    basis set group =>   3
Atom  37H    basis set group =>   3
Atom  38H    basis set group =>   3
---------------------------------
AUXILIARY/J BASIS SET INFORMATION
---------------------------------
There are 4 groups of distinct atoms

 Group   1 Type C   : 12s5p4d2f1g contracted to 6s4p3d1f1g pattern {711111/2111/211/2/1}
 Group   2 Type O   : 12s5p4d2f1g contracted to 6s4p3d1f1g pattern {711111/2111/211/2/1}
 Group   3 Type H   : 5s2p1d contracted to 3s1p1d pattern {311/2/1}
 Group   4 Type N   : 12s5p4d2f1g contracted to 6s4p3d1f1g pattern {711111/2111/211/2/1}

Atom   0C    basis set group =>   1
Atom   1C    basis set group =>   1
Atom   2O    basis set group =>   2
Atom   3O    basis set group =>   2
Atom   4C    basis set group =>   1
Atom   5H    basis set group =>   3
Atom   6H    basis set group =>   3
Atom   7H    basis set group =>   3
Atom   8C    basis set group =>   1
Atom   9C    basis set group =>   1
Atom  10C    basis set group =>   1
Atom  11C    basis set group =>   1
Atom  12C    basis set group =>   1
Atom  13C    basis set group =>   1
Atom  14C    basis set group =>   1
Atom  15C    basis set group =>   1
Atom  16O    basis set group =>   2
Atom  17C    basis set group =>   1
Atom  18N    basis set group =>   4
Atom  19O    basis set group =>   2
Atom  20H    basis set group =>   3
Atom  21H    basis set group =>   3
Atom  22H    basis set group =>   3
Atom  23H    basis set group =>   3
Atom  24H    basis set group =>   3
Atom  25H    basis set group =>   3
Atom  26H    basis set group =>   3
Atom  27H    basis set group =>   3
Atom  28O    basis set group =>   2
Atom  29H    basis set group =>   3
Atom  30N    basis set group =>   4
Atom  31C    basis set group =>   1
Atom  32H    basis set group =>   3
Atom  33H    basis set group =>   3
Atom  34H    basis set group =>   3
Atom  35C    basis set group =>   1
Atom  36H    basis set group =>   3
Atom  37H    basis set group =>   3
Atom  38H    basis set group =>   3


           ************************************************************
           *        Program running with 24 parallel MPI-processes    *
           *              working on a common directory               *
           ************************************************************
------------------------------------------------------------------------------
                           ORCA GTO INTEGRAL CALCULATION
                           -- RI-GTO INTEGRALS CHOSEN --
------------------------------------------------------------------------------
------------------------------------------------------------------------------
                   ___                                                        
                  /   \      - P O W E R E D   B Y -                         
                 /     \                                                     
                 |  |  |   _    _      __       _____    __    __             
                 |  |  |  | |  | |    /  \     |  _  \  |  |  /  |          
                  \  \/   | |  | |   /    \    | | | |  |  | /  /          
                 / \  \   | |__| |  /  /\  \   | |_| |  |  |/  /          
                |  |  |   |  __  | /  /__\  \  |    /   |      \           
                |  |  |   | |  | | |   __   |  |    \   |  |\   \          
                \     /   | |  | | |  |  |  |  | |\  \  |  | \   \       
                 \___/    |_|  |_| |__|  |__|  |_| \__\ |__|  \__/        
                                                                              
                      - O R C A' S   B I G   F R I E N D -                    
                                      &                                       
                       - I N T E G R A L  F E E D E R -                       
                                                                              
 v1 FN, 2020, v2 2021                                                         
------------------------------------------------------------------------------


Reading SHARK input file 4_NMe2_free/4_NMe2_free.SHARKINP.tmp ... ok
----------------------
SHARK INTEGRAL PACKAGE
----------------------

Number of atoms                             ...     39
Number of basis functions                   ...    759
Number of shells                            ...    303
Maximum angular momentum                    ...      3
Integral batch strategy                     ... SHARK/LIBINT Hybrid
RI-J (if used) integral strategy            ... SPLIT-RIJ (Revised 2003 algorithm where possible)
Printlevel                                  ...      1
Contraction scheme used                     ... SEGMENTED contraction
Coulomb Range Separation                    ... NOT USED
Exchange Range Separation                   ... NOT USED
Finite Nucleus Model                        ... NOT USED
Auxiliary Coulomb fitting basis             ... AVAILABLE
   # of basis functions in Aux-J            ...   1227
   # of shells in Aux-J                     ...    405
   Maximum angular momentum in Aux-J        ...      4
Auxiliary J/K fitting basis                 ... NOT available
Auxiliary Correlation fitting basis         ... NOT available
Auxiliary 'external' fitting basis          ... NOT available
Integral threshold                          ...     2.500000e-11
Primitive cut-off                           ...     2.500000e-12
Primitive pair pre-selection threshold      ...     2.500000e-12

Calculating pre-screening integrals         ... done (  0.1 sec) Dimension = 303
Organizing shell pair data                  ... done (  0.9 sec)
Shell pair information
Total number of shell pairs                 ...     46056
Shell pairs after pre-screening             ...     34063
Total number of primitive shell pairs       ...    140172
Primitive shell pairs kept                  ...     69156
          la=0 lb=0:   9073 shell pairs
          la=1 lb=0:   9821 shell pairs
          la=1 lb=1:   2687 shell pairs
          la=2 lb=0:   4807 shell pairs
          la=2 lb=1:   2665 shell pairs
          la=2 lb=2:    694 shell pairs
          la=3 lb=0:   2269 shell pairs
          la=3 lb=1:   1269 shell pairs
          la=3 lb=2:    614 shell pairs
          la=3 lb=3:    164 shell pairs

Calculating one electron integrals          ... done (  0.1 sec)
Calculating RI/J V-Matrix + Cholesky decomp.... done (  0.2 sec)
Calculating Nuclear repulsion               ... done (  0.0 sec) ENN=   1827.329056532387 Eh

SHARK setup successfully completed in   2.1 seconds

Maximum memory used throughout the entire GTOINT-calculation: 51.8 MB


           ************************************************************
           *        Program running with 24 parallel MPI-processes    *
           *              working on a common directory               *
           ************************************************************
-------------------------------------------------------------------------------
                                 ORCA SCF
-------------------------------------------------------------------------------

------------
SCF SETTINGS
------------
Hamiltonian:
 Density Functional     Method          .... DFT(GTOs)
 Exchange Functional    Exchange        .... PBE
   PBE kappa parameter   XKappa         ....  0.804000
   PBE mue parameter    XMuePBE         ....  0.219520
 Correlation Functional Correlation     .... PBE
   PBE beta parameter  CBetaPBE         ....  0.066725
 LDA part of GGA corr.  LDAOpt          .... PW91-LDA
 Gradients option       PostSCFGGA      .... off
 Hybrid DFT is turned on
   Fraction HF Exchange ScalHFX         ....  0.250000
   Scaling of DF-GGA-X  ScalDFX         ....  0.750000
   Scaling of DF-GGA-C  ScalDFC         ....  1.000000
   Scaling of DF-LDA-C  ScalLDAC        ....  1.000000
   Perturbative correction              ....  0.000000
   Density functional embedding theory  .... OFF
   NL short-range parameter             ....  6.900000
 RI-approximation to the Coulomb term is turned on
   Number of AuxJ basis functions       .... 1227
   RIJ-COSX (HFX calculated with COS-X)).... on


General Settings:
 Integral files         IntName         .... 4_NMe2_free/4_NMe2_free
 Hartree-Fock type      HFTyp           .... RHF
 Total Charge           Charge          ....    0
 Multiplicity           Mult            ....    1
 Number of Electrons    NEL             ....  156
 Basis Dimension        Dim             ....  759
 Nuclear Repulsion      ENuc            ....   1827.3290565324 Eh

Convergence Acceleration:
 DIIS                   CNVDIIS         .... on
   Start iteration      DIISMaxIt       ....    12
   Startup error        DIISStart       ....  0.200000
   # of expansion vecs  DIISMaxEq       ....     5
   Bias factor          DIISBfac        ....   1.050
   Max. coefficient     DIISMaxC        ....  10.000
 Trust-Rad. Augm. Hess. CNVTRAH         .... auto
   Auto Start mean grad. ratio tolernc. ....  1.125000
   Auto Start start iteration           ....    20
   Auto Start num. interpolation iter.  ....    10
   Max. Number of Micro iterations      ....    16
   Max. Number of Macro iterations      .... Maxiter - #DIIS iter
   Number of Davidson start vectors     ....     2
   Converg. threshold I  (grad. norm)   ....   1.000e-05
   Converg. threshold II (energy diff.) ....   1.000e-08
   Grad. Scal. Fac. for Micro threshold ....   0.100
   Minimum threshold for Micro iter.    ....   0.010
   NR start threshold (gradient norm)   ....   0.001
   Initial trust radius                 ....   0.400
   Minimum AH scaling param. (alpha)    ....   1.000
   Maximum AH scaling param. (alpha)    .... 1000.000
   Orbital update algorithm             .... Taylor
   White noise on init. David. guess    .... on
   Maximum white noise                  ....   0.010
   Quad. conv. algorithm                .... NR
 SOSCF                  CNVSOSCF        .... on
   Start iteration      SOSCFMaxIt      ....   150
   Startup grad/error   SOSCFStart      ....  0.003300
 Level Shifting         CNVShift        .... on
   Level shift para.    LevelShift      ....    0.2500
   Turn off err/grad.   ShiftErr        ....    0.0010
 Zerner damping         CNVZerner       .... off
 Static damping         CNVDamp         .... on
   Fraction old density DampFac         ....    0.7000
   Max. Damping (<1)    DampMax         ....    0.9800
   Min. Damping (>=0)   DampMin         ....    0.0000
   Turn off err/grad.   DampErr         ....    0.1000
 Fernandez-Rico         CNVRico         .... off

SCF Procedure:
 Maximum # iterations   MaxIter         ....   800
 SCF integral mode      SCFMode         .... Direct
   Integral package                     .... SHARK and LIBINT hybrid scheme
 Reset frequency        DirectResetFreq ....    20
 Integral Threshold     Thresh          ....  2.500e-11 Eh
 Primitive CutOff       TCut            ....  2.500e-12 Eh

Convergence Tolerance:
 Convergence Check Mode ConvCheckMode   .... Total+1el-Energy
 Convergence forced     ConvForced      .... 0
 Energy Change          TolE            ....  1.000e-08 Eh
 1-El. energy change                    ....  1.000e-05 Eh
 Orbital Gradient       TolG            ....  1.000e-05
 Orbital Rotation angle TolX            ....  1.000e-05
 DIIS Error             TolErr          ....  5.000e-07


Diagonalization of the overlap matrix:
Smallest eigenvalue                        ... 6.150e-06
Time for diagonalization                   ...    0.164 sec
Threshold for overlap eigenvalues          ... 1.000e-08
Number of eigenvalues below threshold      ... 0
Time for construction of square roots      ...    0.095 sec
Total time needed                          ...    0.264 sec

Time for model grid setup =    0.289 sec

------------------------------
INITIAL GUESS: MODEL POTENTIAL
------------------------------
Loading Hartree-Fock densities                     ... done
Calculating cut-offs                               ... done
Initializing the effective Hamiltonian             ... done
Setting up the integral package (SHARK)            ... done
Starting the Coulomb interaction                   ... done (   0.4 sec)
Reading the grid                                   ... done
Mapping shells                                     ... done
Starting the XC term evaluation                    ... done (   0.2 sec)
  promolecular density results
     # of electrons  =    155.990344738
     EX              =   -130.878198012
     EC              =     -5.282298961
     EX+EC           =   -136.160496973
Transforming the Hamiltonian                       ... done (   0.1 sec)
Diagonalizing the Hamiltonian                      ... done (   0.2 sec)
Back transforming the eigenvectors                 ... done (   0.0 sec)
Now organizing SCF variables                       ... done
                      ------------------
                      INITIAL GUESS DONE (   1.3 sec)
                      ------------------
-------------------
DFT GRID GENERATION
-------------------

General Integration Accuracy     IntAcc      ... 4.388
Radial Grid Type                 RadialGrid  ... OptM3 with GC (2021)
Angular Grid (max. ang.)         AngularGrid ... 4 (Lebedev-302)
Angular grid pruning method      GridPruning ... 4 (adaptive)
Weight generation scheme         WeightScheme... Becke
Basis function cutoff            BFCut       ... 1.0000e-11
Integration weight cutoff        WCut        ... 1.0000e-14
Angular grids for H and He will be reduced by one unit
Partially contracted basis set               ... off
Rotationally invariant grid construction     ... off

Total number of grid points                  ...   182899
Total number of batches                      ...     2878
Average number of points per batch           ...       63
Average number of grid points per atom       ...     4690
Time for grid setup =    1.226 sec

--------------------
COSX GRID GENERATION
--------------------

GRIDX 1
-------
General Integration Accuracy     IntAcc      ... 3.816
Radial Grid Type                 RadialGrid  ... OptM3 with GC (2021)
Angular Grid (max. ang.)         AngularGrid ... 1 (Lebedev-50)
Angular grid pruning method      GridPruning ... 4 (adaptive)
Weight generation scheme         WeightScheme... Becke
Basis function cutoff            BFCut       ... 1.0000e-11
Integration weight cutoff        WCut        ... 1.0000e-14
Angular grids for H and He will be reduced by one unit
Partially contracted basis set               ... on
Rotationally invariant grid construction     ... off

Total number of grid points                  ...    23244
Total number of batches                      ...      386
Average number of points per batch           ...       60
Average number of grid points per atom       ...      596
UseSFitting                                  ... on

GRIDX 2
-------
General Integration Accuracy     IntAcc      ... 4.020
Radial Grid Type                 RadialGrid  ... OptM3 with GC (2021)
Angular Grid (max. ang.)         AngularGrid ... 2 (Lebedev-110)
Angular grid pruning method      GridPruning ... 4 (adaptive)
Weight generation scheme         WeightScheme... Becke
Basis function cutoff            BFCut       ... 1.0000e-11
Integration weight cutoff        WCut        ... 1.0000e-14
Angular grids for H and He will be reduced by one unit
Partially contracted basis set               ... on
Rotationally invariant grid construction     ... off

Total number of grid points                  ...    50105
Total number of batches                      ...      803
Average number of points per batch           ...       62
Average number of grid points per atom       ...     1285
UseSFitting                                  ... on

GRIDX 3
-------
General Integration Accuracy     IntAcc      ... 4.338
Radial Grid Type                 RadialGrid  ... OptM3 with GC (2021)
Angular Grid (max. ang.)         AngularGrid ... 3 (Lebedev-194)
Angular grid pruning method      GridPruning ... 4 (adaptive)
Weight generation scheme         WeightScheme... Becke
Basis function cutoff            BFCut       ... 1.0000e-11
Integration weight cutoff        WCut        ... 1.0000e-14
Angular grids for H and He will be reduced by one unit
Partially contracted basis set               ... on
Rotationally invariant grid construction     ... off

Total number of grid points                  ...   109402
Total number of batches                      ...     1727
Average number of points per batch           ...       63
Average number of grid points per atom       ...     2805
UseSFitting                                  ... on

Time for X-Grid setup             =    2.046 sec


--------------------
CPCM SOLVATION MODEL
--------------------
CPCM parameters:
  Epsilon                                         ...      47.2000
  Refrac                                          ...       1.4790
  Rsolv                                           ...       1.3000
  Surface type                                    ... GAUSSIAN VDW
  Epsilon function type                           ...         CPCM
Radii:
 Radius for C  used is    3.8550 Bohr (=   2.0400 Ang.)
 Radius for O  used is    3.4469 Bohr (=   1.8240 Ang.)
 Radius for H  used is    2.4944 Bohr (=   1.3200 Ang.)
 Radius for N  used is    3.5149 Bohr (=   1.8600 Ang.)
Calculating surface                               ...        done! (  0.0s)
GEPOL surface points                              ...         2037
GEPOL Volume                                      ...    2285.5361
GEPOL Surface-area                                ...    1186.5964
Calculating surface distance matrix               ...        done! (  0.1s)
Performing Cholesky decomposition & store         ...        done! (  0.3s)
Overall time for CPCM initialization              ...                 0.3s
--------------
SCF ITERATIONS
--------------
ITER       Energy         Delta-E        Max-DP      RMS-DP      [F,P]     Damp
               ***  Starting incremental Fock matrix formation  ***
  0  -1028.6113546179   0.000000000000 0.62446104  0.00147616  0.2718316 0.7000
  1  -1028.8245659016  -0.213211283645 0.62312906  0.00143185  0.1080874 0.7000
                               ***Turning on DIIS***
  2  -1028.9091280402  -0.084562138603 1.01052270  0.00247498  0.0314023 0.0000
  3  -1029.0508816864  -0.141753646274 0.44629731  0.00100705  0.0511894 0.0000
  4  -1029.0755607167  -0.024679030314 0.08934603  0.00025660  0.0153905 0.0000
  5  -1029.0773519871  -0.001791270402 0.04331590  0.00010961  0.0053739 0.0000
                      *** Initiating the SOSCF procedure ***
                           *** Shutting down DIIS ***
                      *** Re-Reading the Fockian *** 
                      *** Removing any level shift *** 
ITER      Energy       Delta-E        Grad      Rot      Max-DP    RMS-DP
  6  -1029.07747175  -0.0001197669  0.000183  0.000183  0.002924  0.000021
               *** Restarting incremental Fock matrix formation ***
  7  -1029.07744648   0.0000252768  0.000207  0.001007  0.003184  0.000033
  8  -1029.07744534   0.0000011334  0.000260  0.000421  0.002861  0.000010
  9  -1029.07744888  -0.0000035361  0.000051  0.000168  0.001327  0.000006
 10  -1029.07744871   0.0000001748  0.000063  0.000089  0.000996  0.000002
 11  -1029.07744897  -0.0000002649  0.000005  0.000017  0.000438  0.000002
 12  -1029.07744899  -0.0000000226  0.000006  0.000010  0.000162  0.000001
                  ***Gradient check signals convergence***
              ***Rediagonalizing the Fockian in SOSCF/NRSCF***

               *****************************************************
               *                     SUCCESS                       *
               *           SCF CONVERGED AFTER  13 CYCLES          *
               *****************************************************

Old exchange energy                            =    -33.357767134 Eh
New exchange energy                            =    -33.357790716 Eh
Exchange energy change after final integration =     -0.000023581 Eh
Total energy after final integration           =  -1029.077472540 Eh
Final COS-X integration done in                =    12.075 sec

----------------
TOTAL SCF ENERGY
----------------

Total Energy       :        -1029.07747254 Eh          -28002.62165 eV

Components:
Nuclear Repulsion  :         1827.32905653 Eh           49724.15156 eV
Electronic Energy  :        -2856.40652907 Eh          -77726.77321 eV
One Electron Energy:        -5036.09499687 Eh         -137039.11180 eV
Two Electron Energy:         2179.68846780 Eh           59312.33859 eV
Max COSX asymmetry :            0.00000274 Eh               0.00007 eV
CPCM Dielectric    :           -0.03212695 Eh              -0.87422 eV

Virial components:
Potential Energy   :        -2053.64186155 Eh          -55882.43606 eV
Kinetic Energy     :         1024.56438901 Eh           27879.81441 eV
Virial Ratio       :            2.00440488


DFT components:
N(Alpha)           :       78.000011317285 electrons
N(Beta)            :       78.000011317285 electrons
N(Total)           :      156.000022634569 electrons
E(X)               :      -99.901228057426 Eh       
E(C)               :       -5.275905696162 Eh       
E(XC)              :     -105.177133753588 Eh       
DFET-embed. en.    :        0.000000000000 Eh       
CPCM Solvation Model Properties:
Surface-charge          :           -0.02994987
Charge-correction       :           -0.00034672 Eh              -0.00943 eV
Free-energy (cav+disp)  :  This term is not implemented in the current solvation scheme

---------------
SCF CONVERGENCE
---------------

  Last Energy change         ...    3.3932e-08  Tolerance :   1.0000e-08
  Last MAX-Density change    ...    1.9984e-15  Tolerance :   1.0000e-07
  Last RMS-Density change    ...    1.4274e-17  Tolerance :   5.0000e-09
  Last Orbital Gradient      ...    1.5232e-06  Tolerance :   1.0000e-05
  Last Orbital Rotation      ...    3.6267e-06  Tolerance :   1.0000e-05

             **** THE GBW FILE WAS UPDATED (4_NMe2_free/4_NMe2_free.gbw) ****
             **** DENSITY 4_NMe2_free/4_NMe2_free.scfp WAS UPDATED ****
             **** ENERGY FILE WAS UPDATED (4_NMe2_free/4_NMe2_free.en.tmp) ****
             **** THE GBW FILE WAS UPDATED (4_NMe2_free/4_NMe2_free.gbw) ****
             **** DENSITY 4_NMe2_free/4_NMe2_free.scfp WAS UPDATED ****
----------------
ORBITAL ENERGIES
----------------

  NO   OCC          E(Eh)            E(eV) 
   0   2.0000     -19.272346      -524.4272 
   1   2.0000     -19.270129      -524.3669 
   2   2.0000     -19.247431      -523.7492 
   3   2.0000     -19.207405      -522.6601 
   4   2.0000     -19.197379      -522.3872 
   5   2.0000     -14.552799      -396.0018 
   6   2.0000     -14.421592      -392.4315 
   7   2.0000     -10.363114      -281.9947 
   8   2.0000     -10.311544      -280.5914 
   9   2.0000     -10.310027      -280.5501 
  10   2.0000     -10.293494      -280.1002 
  11   2.0000     -10.272800      -279.5371 
  12   2.0000     -10.267681      -279.3978 
  13   2.0000     -10.267292      -279.3872 
  14   2.0000     -10.247091      -278.8375 
  15   2.0000     -10.243032      -278.7271 
  16   2.0000     -10.242279      -278.7066 
  17   2.0000     -10.232847      -278.4499 
  18   2.0000     -10.231223      -278.4057 
  19   2.0000     -10.227459      -278.3033 
  20   2.0000     -10.223171      -278.1866 
  21   2.0000      -1.206130       -32.8205 
  22   2.0000      -1.158471       -31.5236 
  23   2.0000      -1.110195       -30.2099 
  24   2.0000      -1.079659       -29.3790 
  25   2.0000      -1.065184       -28.9851 
  26   2.0000      -1.000466       -27.2241 
  27   2.0000      -0.899320       -24.4717 
  28   2.0000      -0.878601       -23.9079 
  29   2.0000      -0.837620       -22.7928 
  30   2.0000      -0.791157       -21.5285 
  31   2.0000      -0.780360       -21.2347 
  32   2.0000      -0.757097       -20.6017 
  33   2.0000      -0.744899       -20.2697 
  34   2.0000      -0.721647       -19.6370 
  35   2.0000      -0.707226       -19.2446 
  36   2.0000      -0.690779       -18.7970 
  37   2.0000      -0.631419       -17.1818 
  38   2.0000      -0.625373       -17.0173 
  39   2.0000      -0.612771       -16.6744 
  40   2.0000      -0.591550       -16.0969 
  41   2.0000      -0.568099       -15.4588 
  42   2.0000      -0.558385       -15.1944 
  43   2.0000      -0.544408       -14.8141 
  44   2.0000      -0.535230       -14.5644 
  45   2.0000      -0.518693       -14.1144 
  46   2.0000      -0.511264       -13.9122 
  47   2.0000      -0.508804       -13.8453 
  48   2.0000      -0.502082       -13.6624 
  49   2.0000      -0.494716       -13.4619 
  50   2.0000      -0.487419       -13.2633 
  51   2.0000      -0.486564       -13.2401 
  52   2.0000      -0.479454       -13.0466 
  53   2.0000      -0.465329       -12.6622 
  54   2.0000      -0.457528       -12.4500 
  55   2.0000      -0.451796       -12.2940 
  56   2.0000      -0.441825       -12.0227 
  57   2.0000      -0.432489       -11.7686 
  58   2.0000      -0.431237       -11.7346 
  59   2.0000      -0.420809       -11.4508 
  60   2.0000      -0.410746       -11.1770 
  61   2.0000      -0.404660       -11.0113 
  62   2.0000      -0.401892       -10.9360 
  63   2.0000      -0.393639       -10.7115 
  64   2.0000      -0.386593       -10.5197 
  65   2.0000      -0.384849       -10.4723 
  66   2.0000      -0.379989       -10.3400 
  67   2.0000      -0.368841       -10.0367 
  68   2.0000      -0.353396        -9.6164 
  69   2.0000      -0.346950        -9.4410 
  70   2.0000      -0.343934        -9.3589 
  71   2.0000      -0.334924        -9.1138 
  72   2.0000      -0.306677        -8.3451 
  73   2.0000      -0.300286        -8.1712 
  74   2.0000      -0.294580        -8.0159 
  75   2.0000      -0.273158        -7.4330 
  76   2.0000      -0.242633        -6.6024 
  77   2.0000      -0.209452        -5.6995 
  78   0.0000      -0.021562        -0.5867 
  79   0.0000      -0.004169        -0.1134 
  80   0.0000      -0.003756        -0.1022 
  81   0.0000       0.008906         0.2423 
  82   0.0000       0.043749         1.1905 
  83   0.0000       0.060100         1.6354 
  84   0.0000       0.061617         1.6767 
  85   0.0000       0.067696         1.8421 
  86   0.0000       0.068486         1.8636 
  87   0.0000       0.080491         2.1903 
  88   0.0000       0.084357         2.2955 
  89   0.0000       0.091039         2.4773 
  90   0.0000       0.097613         2.6562 
  91   0.0000       0.107534         2.9262 
  92   0.0000       0.109955         2.9920 
  93   0.0000       0.116151         3.1606 
  94   0.0000       0.118163         3.2154 
  95   0.0000       0.118859         3.2343 
  96   0.0000       0.127649         3.4735 
  97   0.0000       0.130834         3.5602 
  98   0.0000       0.134040         3.6474 
  99   0.0000       0.138675         3.7735 
 100   0.0000       0.142545         3.8788 
 101   0.0000       0.145961         3.9718 
 102   0.0000       0.149951         4.0804 
 103   0.0000       0.158575         4.3150 
 104   0.0000       0.159077         4.3287 
 105   0.0000       0.164373         4.4728 
 106   0.0000       0.171318         4.6618 
 107   0.0000       0.184194         5.0122 
 108   0.0000       0.192357         5.2343 
 109   0.0000       0.198831         5.4105 
 110   0.0000       0.202131         5.5003 
 111   0.0000       0.205841         5.6012 
 112   0.0000       0.207751         5.6532 
 113   0.0000       0.214364         5.8331 
 114   0.0000       0.219676         5.9777 
 115   0.0000       0.222850         6.0641 
 116   0.0000       0.224483         6.1085 
 117   0.0000       0.230828         6.2812 
 118   0.0000       0.243686         6.6310 
 119   0.0000       0.245174         6.6715 
 120   0.0000       0.247279         6.7288 
 121   0.0000       0.249137         6.7793 
 122   0.0000       0.265358         7.2208 
 123   0.0000       0.270068         7.3489 
 124   0.0000       0.270931         7.3724 
 125   0.0000       0.276766         7.5312 
 126   0.0000       0.279350         7.6015 
 127   0.0000       0.289300         7.8722 
 128   0.0000       0.293603         7.9893 
 129   0.0000       0.296822         8.0769 
 130   0.0000       0.303719         8.2646 
 131   0.0000       0.304084         8.2745 
 132   0.0000       0.311636         8.4800 
 133   0.0000       0.317777         8.6472 
 134   0.0000       0.322408         8.7732 
 135   0.0000       0.327830         8.9207 
 136   0.0000       0.329227         8.9587 
 137   0.0000       0.338024         9.1981 
 138   0.0000       0.340815         9.2740 
 139   0.0000       0.346015         9.4155 
 140   0.0000       0.357281         9.7221 
 141   0.0000       0.363036         9.8787 
 142   0.0000       0.363667         9.8959 
 143   0.0000       0.369650        10.0587 
 144   0.0000       0.370110        10.0712 
 145   0.0000       0.381251        10.3744 
 146   0.0000       0.385612        10.4930 
 147   0.0000       0.391136        10.6434 
 148   0.0000       0.396952        10.8016 
 149   0.0000       0.402730        10.9588 
 150   0.0000       0.405972        11.0471 
 151   0.0000       0.410594        11.1728 
 152   0.0000       0.412674        11.2294 
 153   0.0000       0.416836        11.3427 
 154   0.0000       0.422427        11.4948 
 155   0.0000       0.424793        11.5592 
 156   0.0000       0.431162        11.7325 
 157   0.0000       0.433531        11.7970 
 158   0.0000       0.435091        11.8394 
 159   0.0000       0.441507        12.0140 
 160   0.0000       0.450938        12.2707 
 161   0.0000       0.456320        12.4171 
 162   0.0000       0.463902        12.6234 
 163   0.0000       0.464792        12.6476 
 164   0.0000       0.466911        12.7053 
 165   0.0000       0.469841        12.7850 
 166   0.0000       0.475284        12.9331 
 167   0.0000       0.477126        12.9833 
 168   0.0000       0.480321        13.0702 
 169   0.0000       0.482316        13.1245 
 170   0.0000       0.484429        13.1820 
 171   0.0000       0.492486        13.4012 
 172   0.0000       0.495042        13.4708 
 173   0.0000       0.498111        13.5543 
 174   0.0000       0.503454        13.6997 
 175   0.0000       0.506926        13.7942 
 176   0.0000       0.511037        13.9060 
 177   0.0000       0.513647        13.9771 
 178   0.0000       0.522130        14.2079 
 179   0.0000       0.522558        14.2195 
 180   0.0000       0.535116        14.5612 
 181   0.0000       0.542774        14.7696 
 182   0.0000       0.546687        14.8761 
 183   0.0000       0.550507        14.9800 
 184   0.0000       0.558312        15.1925 
 185   0.0000       0.563393        15.3307 
 186   0.0000       0.568737        15.4761 
 187   0.0000       0.583795        15.8859 
 188   0.0000       0.590206        16.0603 
 189   0.0000       0.593527        16.1507 
 190   0.0000       0.596454        16.2303 
 191   0.0000       0.600865        16.3504 
 192   0.0000       0.618410        16.8278 
 193   0.0000       0.624983        17.0067 
 194   0.0000       0.628171        17.0934 
 195   0.0000       0.640216        17.4212 
 196   0.0000       0.647361        17.6156 
 197   0.0000       0.651387        17.7251 
 198   0.0000       0.657422        17.8894 
 199   0.0000       0.665760        18.1162 
 200   0.0000       0.671370        18.2689 
 201   0.0000       0.679970        18.5029 
 202   0.0000       0.686242        18.6736 
 203   0.0000       0.690141        18.7797 
 204   0.0000       0.693412        18.8687 
 205   0.0000       0.696386        18.9496 
 206   0.0000       0.701609        19.0917 
 207   0.0000       0.710917        19.3450 
 208   0.0000       0.719995        19.5921 
 209   0.0000       0.733298        19.9541 
 210   0.0000       0.743374        20.2282 
 211   0.0000       0.743878        20.2419 
 212   0.0000       0.745622        20.2894 
 213   0.0000       0.754593        20.5335 
 214   0.0000       0.765747        20.8370 
 215   0.0000       0.766460        20.8564 
 216   0.0000       0.772907        21.0319 
 217   0.0000       0.780079        21.2270 
 218   0.0000       0.796314        21.6688 
 219   0.0000       0.804145        21.8819 
 220   0.0000       0.815644        22.1948 
 221   0.0000       0.829811        22.5803 
 222   0.0000       0.832724        22.6596 
 223   0.0000       0.835767        22.7424 
 224   0.0000       0.839848        22.8534 
 225   0.0000       0.848404        23.0863 
 226   0.0000       0.851768        23.1778 
 227   0.0000       0.861358        23.4387 
 228   0.0000       0.862614        23.4729 
 229   0.0000       0.882500        24.0141 
 230   0.0000       0.884855        24.0781 
 231   0.0000       0.891166        24.2499 
 232   0.0000       0.904873        24.6228 
 233   0.0000       0.911648        24.8072 
 234   0.0000       0.923620        25.1330 
 235   0.0000       0.927935        25.2504 
 236   0.0000       0.935707        25.4619 
 237   0.0000       0.938337        25.5335 
 238   0.0000       0.945323        25.7236 
 239   0.0000       0.948888        25.8206 
 240   0.0000       0.959788        26.1171 
 241   0.0000       0.970050        26.3964 
 242   0.0000       0.982772        26.7426 
 243   0.0000       0.984938        26.8015 
 244   0.0000       0.991601        26.9828 
 245   0.0000       1.001526        27.2529 
 246   0.0000       1.005476        27.3604 
 247   0.0000       1.018286        27.7090 
 248   0.0000       1.030283        28.0354 
 249   0.0000       1.039918        28.2976 
 250   0.0000       1.045122        28.4392 
 251   0.0000       1.050580        28.5877 
 252   0.0000       1.059751        28.8373 
 253   0.0000       1.062014        28.8989 
 254   0.0000       1.068027        29.0625 
 255   0.0000       1.069071        29.0909 
 256   0.0000       1.085061        29.5260 
 257   0.0000       1.088889        29.6302 
 258   0.0000       1.106309        30.1042 
 259   0.0000       1.108194        30.1555 
 260   0.0000       1.117316        30.4037 
 261   0.0000       1.131155        30.7803 
 262   0.0000       1.136631        30.9293 
 263   0.0000       1.150890        31.3173 
 264   0.0000       1.164064        31.6758 
 265   0.0000       1.167617        31.7725 
 266   0.0000       1.178937        32.0805 
 267   0.0000       1.191873        32.4325 
 268   0.0000       1.200930        32.6790 
 269   0.0000       1.214419        33.0460 
 270   0.0000       1.223102        33.2823 
 271   0.0000       1.227291        33.3963 
 272   0.0000       1.231541        33.5119 
 273   0.0000       1.244798        33.8727 
 274   0.0000       1.253582        34.1117 
 275   0.0000       1.265028        34.4232 
 276   0.0000       1.270891        34.5827 
 277   0.0000       1.278077        34.7782 
 278   0.0000       1.295127        35.2422 
 279   0.0000       1.305069        35.5127 
 280   0.0000       1.326615        36.0990 
 281   0.0000       1.333957        36.2988 
 282   0.0000       1.347688        36.6725 
 283   0.0000       1.356743        36.9189 
 284   0.0000       1.365302        37.1518 
 285   0.0000       1.385133        37.6914 
 286   0.0000       1.397057        38.0158 
 287   0.0000       1.409111        38.3439 
 288   0.0000       1.412856        38.4458 
 289   0.0000       1.430463        38.9249 
 290   0.0000       1.436955        39.1015 
 291   0.0000       1.449963        39.4555 
 292   0.0000       1.454872        39.5891 
 293   0.0000       1.463491        39.8236 
 294   0.0000       1.475322        40.1456 
 295   0.0000       1.479011        40.2459 
 296   0.0000       1.480913        40.2977 
 297   0.0000       1.489555        40.5329 
 298   0.0000       1.496539        40.7229 
 299   0.0000       1.509676        41.0804 
 300   0.0000       1.510745        41.1095 
 301   0.0000       1.514556        41.2132 
 302   0.0000       1.523115        41.4461 
 303   0.0000       1.528186        41.5840 
 304   0.0000       1.530521        41.6476 
 305   0.0000       1.535750        41.7899 
 306   0.0000       1.541280        41.9403 
 307   0.0000       1.549687        42.1691 
 308   0.0000       1.555451        42.3260 
 309   0.0000       1.564220        42.5646 
 310   0.0000       1.567417        42.6516 
 311   0.0000       1.574620        42.8476 
 312   0.0000       1.579324        42.9756 
 313   0.0000       1.586979        43.1839 
 314   0.0000       1.593994        43.3748 
 315   0.0000       1.595735        43.4222 
 316   0.0000       1.600639        43.5556 
 317   0.0000       1.603950        43.6457 
 318   0.0000       1.615466        43.9591 
 319   0.0000       1.619530        44.0696 
 320   0.0000       1.629677        44.3458 
 321   0.0000       1.639090        44.6019 
 322   0.0000       1.643222        44.7144 
 323   0.0000       1.656651        45.0798 
 324   0.0000       1.660396        45.1817 
 325   0.0000       1.663725        45.2723 
 326   0.0000       1.667309        45.3698 
 327   0.0000       1.680763        45.7359 
 328   0.0000       1.690631        46.0044 
 329   0.0000       1.705322        46.4042 
 330   0.0000       1.713134        46.6167 
 331   0.0000       1.720103        46.8064 
 332   0.0000       1.731146        47.1069 
 333   0.0000       1.734317        47.1932 
 334   0.0000       1.737200        47.2716 
 335   0.0000       1.749661        47.6107 
 336   0.0000       1.757780        47.8316 
 337   0.0000       1.763872        47.9974 
 338   0.0000       1.778034        48.3828 
 339   0.0000       1.793426        48.8016 
 340   0.0000       1.804002        49.0894 
 341   0.0000       1.809396        49.2362 
 342   0.0000       1.814934        49.3869 
 343   0.0000       1.829780        49.7909 
 344   0.0000       1.843891        50.1748 
 345   0.0000       1.855558        50.4923 
 346   0.0000       1.869330        50.8670 
 347   0.0000       1.882237        51.2183 
 348   0.0000       1.888090        51.3775 
 349   0.0000       1.895032        51.5665 
 350   0.0000       1.902746        51.7764 
 351   0.0000       1.913353        52.0650 
 352   0.0000       1.921613        52.2897 
 353   0.0000       1.931438        52.5571 
 354   0.0000       1.935029        52.6548 
 355   0.0000       1.943433        52.8835 
 356   0.0000       1.946982        52.9801 
 357   0.0000       1.964004        53.4433 
 358   0.0000       1.978382        53.8345 
 359   0.0000       1.986710        54.0611 
 360   0.0000       1.990777        54.1718 
 361   0.0000       1.995385        54.2972 
 362   0.0000       2.001702        54.4691 
 363   0.0000       2.012277        54.7568 
 364   0.0000       2.017899        54.9098 
 365   0.0000       2.033178        55.3256 
 366   0.0000       2.037336        55.4387 
 367   0.0000       2.048263        55.7361 
 368   0.0000       2.062676        56.1283 
 369   0.0000       2.066725        56.2385 
 370   0.0000       2.075846        56.4866 
 371   0.0000       2.080214        56.6055 
 372   0.0000       2.087070        56.7921 
 373   0.0000       2.100769        57.1648 
 374   0.0000       2.108581        57.3774 
 375   0.0000       2.111983        57.4700 
 376   0.0000       2.118678        57.6522 
 377   0.0000       2.132617        58.0314 
 378   0.0000       2.136682        58.1421 
 379   0.0000       2.144783        58.3625 
 380   0.0000       2.156443        58.6798 
 381   0.0000       2.163760        58.8789 
 382   0.0000       2.171417        59.0872 
 383   0.0000       2.183964        59.4287 
 384   0.0000       2.186021        59.4847 
 385   0.0000       2.196820        59.7785 
 386   0.0000       2.203264        59.9539 
 387   0.0000       2.222119        60.4669 
 388   0.0000       2.238576        60.9147 
 389   0.0000       2.243610        61.0517 
 390   0.0000       2.251432        61.2646 
 391   0.0000       2.258310        61.4518 
[...]
    112      -0.001128   0.000533   0.000098
    113      -0.000622   0.000305   0.000060
    114       0.000600  -0.000248   0.000008
    115      -0.001046   0.000382  -0.000048
    116       0.001391  -0.000533   0.000038


-----------
IR SPECTRUM
-----------

 Mode   freq       eps      Int      T**2         TX        TY        TZ
       cm**-1   L/(mol*cm) km/mol    a.u.
----------------------------------------------------------------------------
  6:     18.23   0.000090    0.45  0.001535  ( 0.033842 -0.008480  0.017835)
  7:     19.20   0.000895    4.52  0.014542  ( 0.056889  0.088211 -0.059369)
  8:     41.24   0.000415    2.10  0.003137  ( 0.043316  0.023046 -0.027011)
  9:     58.77   0.000397    2.01  0.002108  (-0.028534  0.033683  0.012627)
 10:     62.91   0.000506    2.56  0.002508  ( 0.015368  0.047317 -0.005720)
 11:     85.56   0.000228    1.15  0.000830  ( 0.009034  0.022995  0.014823)
 12:     98.93   0.000867    4.38  0.002734  ( 0.000246  0.040777  0.032729)
 13:    100.11   0.002432   12.29  0.007581  (-0.043213 -0.028410  0.070049)
 14:    137.26   0.000061    0.31  0.000139  (-0.009006  0.005155  0.005639)
 15:    145.65   0.000350    1.77  0.000751  (-0.021547 -0.007347  0.015251)
 16:    152.81   0.000132    0.67  0.000270  ( 0.009300  0.012925 -0.004115)
 17:    171.23   0.000503    2.54  0.000916  (-0.020926 -0.014414  0.016439)
 18:    180.97   0.000070    0.35  0.000120  ( 0.006304  0.005836  0.006818)
 19:    194.32   0.001296    6.55  0.002081  ( 0.024647  0.037351 -0.008840)
 20:    215.00   0.001023    5.17  0.001484  (-0.026391 -0.022742  0.016447)
 21:    237.83   0.001483    7.50  0.001947  ( 0.040845  0.015341  0.006547)
 22:    241.63   0.002325   11.75  0.003003  ( 0.036543  0.016272 -0.037453)
 23:    250.84   0.001033    5.22  0.001285  (-0.000658  0.029038 -0.021007)
 24:    268.19   0.004422   22.35  0.005145  (-0.005265 -0.070572  0.011699)
 25:    303.20   0.000365    1.84  0.000375  (-0.004526 -0.018764  0.001658)
 26:    311.83   0.000533    2.69  0.000533  ( 0.016529  0.013251  0.009180)
 27:    337.61   0.005203   26.29  0.004809  (-0.053814  0.041808  0.012862)
 28:    367.06   0.004368   22.07  0.003713  (-0.033910 -0.024952  0.044055)
 29:    383.59   0.000871    4.40  0.000709  (-0.008918 -0.003723  0.024803)
 30:    432.22   0.002082   10.52  0.001503  ( 0.024631 -0.028511  0.009146)
 31:    450.86   0.000562    2.84  0.000389  (-0.010329 -0.016177  0.004548)
 32:    477.42   0.000721    3.65  0.000471  ( 0.010293  0.018900 -0.002883)
 33:    496.38   0.001190    6.01  0.000748  (-0.026071  0.002843  0.007761)
 34:    533.22   0.007689   38.86  0.004500  ( 0.035652  0.032056 -0.046918)
 35:    557.78   0.000885    4.47  0.000495  ( 0.011370 -0.018649 -0.004268)
 36:    567.06   0.001439    7.27  0.000792  ( 0.015645 -0.006781 -0.022388)
 37:    599.80   0.000605    3.06  0.000315  ( 0.011671  0.004688  0.012514)
 38:    607.42   0.004653   23.52  0.002391  ( 0.042535  0.018324  0.015676)
 39:    652.21   0.002866   14.49  0.001371  ( 0.002711 -0.036372 -0.006418)
 40:    692.79   0.003376   17.06  0.001521  ( 0.027642 -0.027464  0.001580)
 41:    719.98   0.003295   16.65  0.001428  (-0.028189 -0.021504 -0.013075)
 42:    765.04   0.003956   19.99  0.001614  ( 0.020849  0.020848 -0.027281)
 43:    771.71   0.022083  111.60  0.008930  (-0.035808 -0.076177  0.042952)
 44:    784.76   0.000791    4.00  0.000315  ( 0.006562  0.003638  0.016074)
 45:    818.31   0.006078   30.72  0.002318  ( 0.004329  0.032408  0.035341)
 46:    845.83   0.006215   31.41  0.002293  (-0.011182  0.046489  0.002588)
 47:    874.65   0.011026   55.72  0.003934  ( 0.052842  0.026416  0.021071)
 48:    880.02   0.016577   83.77  0.005878  ( 0.066528  0.019388  0.032809)
 49:    907.28   0.010160   51.35  0.003495  ( 0.019913  0.054302 -0.012227)
 50:    928.09   0.003419   17.28  0.001150  (-0.007622  0.023224  0.023500)
 51:    966.83   0.000467    2.36  0.000151  (-0.007631 -0.009333  0.002302)
 52:    995.14   0.000355    1.79  0.000111  ( 0.003608  0.009775  0.001633)
 53:   1001.71   0.029125  147.19  0.009073  (-0.048788 -0.078896 -0.021647)
 54:   1039.78   0.020572  103.96  0.006174  ( 0.022614  0.073908  0.014154)
 55:   1061.89   0.013739   69.43  0.004037  ( 0.039963 -0.035298 -0.034561)
 56:   1071.26   0.014374   72.64  0.004187  ( 0.055072 -0.010207  0.032408)
 57:   1081.11   0.002871   14.51  0.000829  ( 0.007413 -0.007056  0.026907)
 58:   1083.74   0.009583   48.43  0.002759  ( 0.009633  0.021260  0.047058)
 59:   1095.35   0.007346   37.12  0.002093  ( 0.022892  0.013703  0.037161)
 60:   1119.47   0.000502    2.54  0.000140  ( 0.000518  0.011704 -0.001675)
 61:   1137.01   0.008543   43.17  0.002345  ( 0.028187  0.011164  0.037756)
 62:   1160.64   0.012935   65.37  0.003478  ( 0.003592 -0.037260  0.045569)
 63:   1171.45   0.000219    1.11  0.000058  ( 0.002343  0.006129 -0.003907)
 64:   1171.87   0.000193    0.98  0.000051  ( 0.001397  0.005376 -0.004541)
 65:   1175.61   0.002047   10.35  0.000544  ( 0.018292 -0.002437  0.014247)
 66:   1193.26   0.001446    7.31  0.000378  ( 0.000886 -0.001178 -0.019387)
 67:   1203.41   0.004571   23.10  0.001185  (-0.006344 -0.000515 -0.033834)
 68:   1209.69   0.000607    3.07  0.000157  ( 0.010404 -0.002699 -0.006418)
 69:   1214.92   0.003354   16.95  0.000861  ( 0.025233 -0.002673  0.014749)
 70:   1233.55   0.018081   91.37  0.004574  ( 0.046240 -0.002603  0.049288)
 71:   1250.53   0.005995   30.30  0.001496  ( 0.022256 -0.001490  0.031600)
 72:   1286.49   0.009154   46.26  0.002221  (-0.013203  0.044343  0.008940)
 73:   1294.05   0.078002  394.19  0.018810  ( 0.084059 -0.013130  0.107574)
 74:   1304.68   0.022109  111.73  0.005288  (-0.006535 -0.037904 -0.061715)
 75:   1320.14   0.054289  274.35  0.012833  ( 0.063740 -0.074950 -0.056150)
 76:   1322.03   0.074376  375.87  0.017556  (-0.104134  0.078221 -0.024369)
 77:   1341.11   0.015516   78.41  0.003610  ( 0.034492 -0.029770  0.039171)
 78:   1364.82   0.019476   98.42  0.004453  (-0.057380  0.023875 -0.024304)
 79:   1388.30   0.010076   50.92  0.002265  (-0.016804  0.003824 -0.044362)
 80:   1429.70   0.009525   48.14  0.002079  (-0.001038 -0.040253  0.021393)
 81:   1441.85   0.015750   79.59  0.003409  ( 0.003723 -0.054713  0.020035)
 82:   1466.00   0.003605   18.22  0.000767  ( 0.014418  0.018558 -0.014668)
 83:   1466.11   0.004580   23.15  0.000975  (-0.002526 -0.020081 -0.023775)
 84:   1469.50   0.011419   57.70  0.002425  ( 0.032045 -0.034382 -0.014691)
 85:   1470.64   0.000205    1.04  0.000044  (-0.003130  0.004566  0.003593)
 86:   1471.89   0.005716   28.89  0.001212  ( 0.007730  0.014021 -0.030911)
 87:   1472.80   0.002655   13.42  0.000563  ( 0.018505 -0.003100  0.014511)
 88:   1474.22   0.003308   16.72  0.000700  ( 0.011414  0.017408 -0.016339)
 89:   1480.04   0.009573   48.38  0.002018  (-0.043077 -0.005631 -0.011451)
 90:   1480.44   0.003771   19.06  0.000795  ( 0.011698 -0.005957 -0.024950)
 91:   1483.77   0.004816   24.34  0.001013  ( 0.001586 -0.018610 -0.025771)
 92:   1498.45   0.012676   64.06  0.002640  (-0.011612 -0.020751 -0.045546)
 93:   1534.06   0.055048  278.19  0.011198  (-0.019325  0.099454 -0.030551)
 94:   1536.99   0.043585  220.26  0.008849  ( 0.015820  0.002811  0.092688)
 95:   1649.10   0.006333   32.01  0.001199  ( 0.025166  0.002116  0.023680)
 96:   1663.42   0.015321   77.42  0.002874  (-0.002241 -0.024420 -0.047674)
 97:   1768.36   0.067167  339.44  0.011853  ( 0.095941  0.028355  0.042946)
 98:   1787.64   0.081926  414.02  0.014302  (-0.078245 -0.016096 -0.088997)
 99:   3015.04   0.013773   69.60  0.001426  ( 0.002108  0.030781  0.021763)
100:   3018.95   0.023081  116.64  0.002386  ( 0.021325 -0.041429  0.014653)
101:   3037.68   0.012064   60.97  0.001239  (-0.025557  0.001769 -0.024146)
102:   3075.48   0.005274   26.65  0.000535  ( 0.010481 -0.015960 -0.013059)
103:   3109.34   0.007851   39.68  0.000788  ( 0.013447  0.021572 -0.011908)
104:   3109.38   0.009662   48.83  0.000970  (-0.028900 -0.006149  0.009833)
105:   3113.02   0.001758    8.88  0.000176  ( 0.005674 -0.003776 -0.011391)
106:   3125.52   0.001187    6.00  0.000118  ( 0.010439  0.003062 -0.000342)
107:   3132.25   0.000854    4.31  0.000085  (-0.005505 -0.003906 -0.006284)
108:   3160.41   0.003232   16.33  0.000319  (-0.007914 -0.013370  0.008816)
109:   3160.63   0.002860   14.45  0.000282  (-0.006474 -0.013633 -0.007387)
110:   3167.24   0.003743   18.91  0.000369  (-0.005019  0.010914  0.014983)
111:   3168.53   0.000399    2.02  0.000039  ( 0.002195 -0.000810 -0.005818)
112:   3187.37   0.000505    2.55  0.000049  (-0.005869  0.001496 -0.003578)
113:   3194.73   0.001898    9.59  0.000185  (-0.011455  0.003334 -0.006558)
114:   3196.42   0.001536    7.76  0.000150  ( 0.010813 -0.005750  0.000099)
115:   3215.11   0.002765   13.97  0.000268  ( 0.002567 -0.008888 -0.013520)
116:   3231.06   0.000396    2.00  0.000038  ( 0.005098 -0.001106  0.003322)

* The epsilon (eps) is given for a Dirac delta lineshape.
** The dipole moment derivative (T) already includes vibrational overlap.

The first frequency considered to be a vibration is 6
The total number of vibrations considered is 111


--------------------------
THERMOCHEMISTRY AT 298.15K
--------------------------

Temperature         ... 298.15 K
Pressure            ... 1.00 atm
Total Mass          ... 294.31 AMU

Throughout the following assumptions are being made:
  (1) The electronic state is orbitally nondegenerate
  (2) There are no thermally accessible electronically excited states
  (3) Hindered rotations indicated by low frequency modes are not
      treated as such but are treated as vibrations and this may
      cause some error
  (4) All equations used are the standard statistical mechanics
      equations for an ideal gas
  (5) All vibrations are strictly harmonic

freq.      18.23  E(vib)   ...       0.57 
freq.      19.20  E(vib)   ...       0.57 
freq.      41.24  E(vib)   ...       0.54 
freq.      58.77  E(vib)   ...       0.51 
freq.      62.91  E(vib)   ...       0.51 
freq.      85.56  E(vib)   ...       0.48 
freq.      98.93  E(vib)   ...       0.46 
freq.     100.11  E(vib)   ...       0.46 
freq.     137.26  E(vib)   ...       0.42 
freq.     145.65  E(vib)   ...       0.41 
freq.     152.81  E(vib)   ...       0.40 
freq.     171.23  E(vib)   ...       0.38 
freq.     180.97  E(vib)   ...       0.37 
freq.     194.32  E(vib)   ...       0.36 
freq.     215.00  E(vib)   ...       0.34 
freq.     237.83  E(vib)   ...       0.32 
freq.     241.63  E(vib)   ...       0.31 
freq.     250.84  E(vib)   ...       0.30 
freq.     268.19  E(vib)   ...       0.29 
freq.     303.20  E(vib)   ...       0.26 
freq.     311.83  E(vib)   ...       0.25 
freq.     337.61  E(vib)   ...       0.24 
freq.     367.06  E(vib)   ...       0.22 
freq.     383.59  E(vib)   ...       0.20 
freq.     432.22  E(vib)   ...       0.18 
freq.     450.86  E(vib)   ...       0.17 
freq.     477.42  E(vib)   ...       0.15 
freq.     496.38  E(vib)   ...       0.14 
freq.     533.22  E(vib)   ...       0.13 
freq.     557.78  E(vib)   ...       0.12 
freq.     567.06  E(vib)   ...       0.11 
freq.     599.80  E(vib)   ...       0.10 
freq.     607.42  E(vib)   ...       0.10 
freq.     652.21  E(vib)   ...       0.08 
freq.     692.79  E(vib)   ...       0.07 
freq.     719.98  E(vib)   ...       0.07 
freq.     765.04  E(vib)   ...       0.06 
freq.     771.71  E(vib)   ...       0.05 
freq.     784.76  E(vib)   ...       0.05 
freq.     818.31  E(vib)   ...       0.05 
freq.     845.83  E(vib)   ...       0.04 
freq.     874.65  E(vib)   ...       0.04 
freq.     880.02  E(vib)   ...       0.04 
freq.     907.28  E(vib)   ...       0.03 
freq.     928.09  E(vib)   ...       0.03 
freq.     966.83  E(vib)   ...       0.03 
freq.     995.14  E(vib)   ...       0.02 
freq.    1001.71  E(vib)   ...       0.02 
freq.    1039.78  E(vib)   ...       0.02 
freq.    1061.89  E(vib)   ...       0.02 
freq.    1071.26  E(vib)   ...       0.02 
freq.    1081.11  E(vib)   ...       0.02 
freq.    1083.74  E(vib)   ...       0.02 
freq.    1095.35  E(vib)   ...       0.02 
freq.    1119.47  E(vib)   ...       0.01 
freq.    1137.01  E(vib)   ...       0.01 
freq.    1160.64  E(vib)   ...       0.01 
freq.    1171.45  E(vib)   ...       0.01 
freq.    1171.87  E(vib)   ...       0.01 
freq.    1175.61  E(vib)   ...       0.01 
freq.    1193.26  E(vib)   ...       0.01 
freq.    1203.41  E(vib)   ...       0.01 
freq.    1209.69  E(vib)   ...       0.01 
freq.    1214.92  E(vib)   ...       0.01 
freq.    1233.55  E(vib)   ...       0.01 
freq.    1250.53  E(vib)   ...       0.01 
freq.    1286.49  E(vib)   ...       0.01 
freq.    1294.05  E(vib)   ...       0.01 
freq.    1304.68  E(vib)   ...       0.01 
freq.    1320.14  E(vib)   ...       0.01 
freq.    1322.03  E(vib)   ...       0.01 
freq.    1341.11  E(vib)   ...       0.01 
freq.    1364.82  E(vib)   ...       0.01 
freq.    1388.30  E(vib)   ...       0.00 
freq.    1429.70  E(vib)   ...       0.00 
freq.    1441.85  E(vib)   ...       0.00 
freq.    1466.00  E(vib)   ...       0.00 
freq.    1466.11  E(vib)   ...       0.00 
freq.    1469.50  E(vib)   ...       0.00 
freq.    1470.64  E(vib)   ...       0.00 
freq.    1471.89  E(vib)   ...       0.00 
freq.    1472.80  E(vib)   ...       0.00 
freq.    1474.22  E(vib)   ...       0.00 
freq.    1480.04  E(vib)   ...       0.00 
freq.    1480.44  E(vib)   ...       0.00 
freq.    1483.77  E(vib)   ...       0.00 
freq.    1498.45  E(vib)   ...       0.00 
freq.    1534.06  E(vib)   ...       0.00 
freq.    1536.99  E(vib)   ...       0.00 
freq.    1649.10  E(vib)   ...       0.00 
freq.    1663.42  E(vib)   ...       0.00 
freq.    1768.36  E(vib)   ...       0.00 
freq.    1787.64  E(vib)   ...       0.00 
freq.    3015.04  E(vib)   ...       0.00 
freq.    3018.95  E(vib)   ...       0.00 
freq.    3037.68  E(vib)   ...       0.00 
freq.    3075.48  E(vib)   ...       0.00 
freq.    3109.34  E(vib)   ...       0.00 
freq.    3109.38  E(vib)   ...       0.00 
freq.    3113.02  E(vib)   ...       0.00 
freq.    3125.52  E(vib)   ...       0.00 
freq.    3132.25  E(vib)   ...       0.00 
freq.    3160.41  E(vib)   ...       0.00 
freq.    3160.63  E(vib)   ...       0.00 
freq.    3167.24  E(vib)   ...       0.00 
freq.    3168.53  E(vib)   ...       0.00 
freq.    3187.37  E(vib)   ...       0.00 
freq.    3194.73  E(vib)   ...       0.00 
freq.    3196.42  E(vib)   ...       0.00 
freq.    3215.11  E(vib)   ...       0.00 
freq.    3231.06  E(vib)   ...       0.00 

------------
INNER ENERGY
------------

The inner energy is: U= E(el) + E(ZPE) + E(vib) + E(rot) + E(trans)
    E(el)   - is the total energy from the electronic structure calculation
              = E(kin-el) + E(nuc-el) + E(el-el) + E(nuc-nuc)
    E(ZPE)  - the the zero temperature vibrational energy from the frequency calculation
    E(vib)  - the the finite temperature correction to E(ZPE) due to population
              of excited vibrational states
    E(rot)  - is the rotational thermal energy
    E(trans)- is the translational thermal energy

Summary of contributions to the inner energy U:
Electronic energy                ...  -1029.12071229 Eh
Zero point energy                ...      0.31545747 Eh     197.95 kcal/mol
Thermal vibrational correction   ...      0.01812160 Eh      11.37 kcal/mol
Thermal rotational correction    ...      0.00141627 Eh       0.89 kcal/mol
Thermal translational correction ...      0.00141627 Eh       0.89 kcal/mol
-----------------------------------------------------------------------
Total thermal energy                  -1028.78430067 Eh


Summary of corrections to the electronic energy:
(perhaps to be used in another calculation)
Total thermal correction                  0.02095414 Eh      13.15 kcal/mol
Non-thermal (ZPE) correction              0.31545747 Eh     197.95 kcal/mol
-----------------------------------------------------------------------
Total correction                          0.33641162 Eh     211.10 kcal/mol


--------
ENTHALPY
--------

The enthalpy is H = U + kB*T
                kB is Boltzmann's constant
Total free energy                 ...  -1028.78430067 Eh 
Thermal Enthalpy correction       ...      0.00094421 Eh       0.59 kcal/mol
-----------------------------------------------------------------------
Total Enthalpy                    ...  -1028.78335646 Eh


Note: Only C1 symmetry has been detected, increase convergence thresholds 
      if your molecule has a higher symmetry. Symmetry factor of 1.0 is   
      used for the rotational entropy correction. 
 

Note: Rotational entropy computed according to Herzberg 
Infrared and Raman Spectra, Chapter V,1, Van Nostrand Reinhold, 1945 
Point Group:  C1, Symmetry Number:   1  
Rotational constants in cm-1:     0.013389     0.009027     0.006702 

Vibrational entropy computed according to the QRRHO of S. Grimme
Chem.Eur.J. 2012 18 9955


-------
ENTROPY
-------

The entropy contributions are T*S = T*(S(el)+S(vib)+S(rot)+S(trans))
     S(el)   - electronic entropy
     S(vib)  - vibrational entropy
     S(rot)  - rotational entropy
     S(trans)- translational entropy
The entropies will be listed as multiplied by the temperature to get
units of energy

Electronic entropy                ...      0.00000000 Eh      0.00 kcal/mol
Vibrational entropy               ...      0.03288623 Eh     20.64 kcal/mol
Rotational entropy                ...      0.01613248 Eh     10.12 kcal/mol
Translational entropy             ...      0.02040004 Eh     12.80 kcal/mol
-----------------------------------------------------------------------
Final entropy term                ...      0.06941875 Eh     43.56 kcal/mol

In case the symmetry of your molecule has not been determined correctly
or in case you have a reason to use a different symmetry number we print 
out the resulting rotational entropy values for sn=1,12 :
 --------------------------------------------------------
|  sn= 1 | S(rot)=       0.01613248 Eh     10.12 kcal/mol|
|  sn= 2 | S(rot)=       0.01547802 Eh      9.71 kcal/mol|
|  sn= 3 | S(rot)=       0.01509519 Eh      9.47 kcal/mol|
|  sn= 4 | S(rot)=       0.01482356 Eh      9.30 kcal/mol|
|  sn= 5 | S(rot)=       0.01461288 Eh      9.17 kcal/mol|
|  sn= 6 | S(rot)=       0.01444073 Eh      9.06 kcal/mol|
|  sn= 7 | S(rot)=       0.01429519 Eh      8.97 kcal/mol|
|  sn= 8 | S(rot)=       0.01416911 Eh      8.89 kcal/mol|
|  sn= 9 | S(rot)=       0.01405790 Eh      8.82 kcal/mol|
|  sn=10 | S(rot)=       0.01395842 Eh      8.76 kcal/mol|
|  sn=11 | S(rot)=       0.01386843 Eh      8.70 kcal/mol|
|  sn=12 | S(rot)=       0.01378628 Eh      8.65 kcal/mol|
 --------------------------------------------------------


-------------------
GIBBS FREE ENERGY
-------------------

The Gibbs free energy is G = H - T*S

Total enthalpy                    ...  -1028.78335646 Eh 
Total entropy correction          ...     -0.06941875 Eh    -43.56 kcal/mol
-----------------------------------------------------------------------
Final Gibbs free energy         ...  -1028.85277521 Eh

For completeness - the Gibbs free energy minus the electronic energy
G-E(el)                           ...      0.26793707 Eh    168.13 kcal/mol


Timings for individual modules:

Sum of individual times         ...     2721.151 sec (=  45.353 min)
GTO integral calculation        ...       21.875 sec (=   0.365 min)   0.8 %
SCF iterations                  ...      782.392 sec (=  13.040 min)  28.8 %
SCF Gradient evaluation         ...      219.715 sec (=   3.662 min)   8.1 %
Geometry relaxation             ...        1.240 sec (=   0.021 min)   0.0 %
Analytical frequency calculation...     1695.929 sec (=  28.265 min)  62.3 %
                             ****ORCA TERMINATED NORMALLY****
TOTAL RUN TIME: 0 days 0 hours 45 minutes 46 seconds 953 msec
