
                                 *****************
                                 * O   R   C   A *
                                 *****************

                                            #,                                       
                                            ###                                      
                                            ####                                     
                                            #####                                    
                                            ######                                   
                                           ########,                                 
                                     ,,################,,,,,                         
                               ,,#################################,,                 
                          ,,##########################################,,             
                       ,#########################################, ''#####,          
                    ,#############################################,,   '####,        
                  ,##################################################,,,,####,       
                ,###########''''           ''''###############################       
              ,#####''   ,,,,##########,,,,          '''####'''          '####       
            ,##' ,,,,###########################,,,                        '##       
           ' ,,###''''                  '''############,,,                           
         ,,##''                                '''############,,,,        ,,,,,,###''
      ,#''                                            '''#######################'''  
     '                                                          ''''####''''         
             ,#######,   #######,   ,#######,      ##                                
            ,#'     '#,  ##    ##  ,#'     '#,    #''#        ######   ,####,        
            ##       ##  ##   ,#'  ##            #'  '#       #        #'  '#        
            ##       ##  #######   ##           ,######,      #####,   #    #        
            '#,     ,#'  ##    ##  '#,     ,#' ,#      #,         ##   #,  ,#        
             '#######'   ##     ##  '#######'  #'      '#     #####' # '####'        



                  #######################################################
                  #                        -***-                        #
                  #          Department of theory and spectroscopy      #
                  #    Directorship and core code : Frank Neese         #
                  #        Max Planck Institute fuer Kohlenforschung    #
                  #                Kaiser Wilhelm Platz 1               #
                  #                 D-45470 Muelheim/Ruhr               #
                  #                      Germany                        #
                  #                                                     #
                  #                  All rights reserved                #
                  #                        -***-                        #
                  #######################################################


                         Program Version 5.0.4 -  RELEASE  -


 With contributions from (in alphabetic order):
   Daniel Aravena         : Magnetic Suceptibility
   Michael Atanasov       : Ab Initio Ligand Field Theory (pilot matlab implementation)
   Alexander A. Auer      : GIAO ZORA, VPT2 properties, NMR spectrum
   Ute Becker             : Parallelization
   Giovanni Bistoni       : ED, misc. LED, open-shell LED, HFLD
   Martin Brehm           : Molecular dynamics
   Dmytro Bykov           : SCF Hessian
   Vijay G. Chilkuri      : MRCI spin determinant printing, contributions to CSF-ICE
   Dipayan Datta          : RHF DLPNO-CCSD density
   Achintya Kumar Dutta   : EOM-CC, STEOM-CC
   Dmitry Ganyushin       : Spin-Orbit,Spin-Spin,Magnetic field MRCI
   Miquel Garcia          : C-PCM and meta-GGA Hessian, CC/C-PCM, Gaussian charge scheme
   Yang Guo               : DLPNO-NEVPT2, F12-NEVPT2, CIM, IAO-localization
   Andreas Hansen         : Spin unrestricted coupled pair/coupled cluster methods
   Benjamin Helmich-Paris : MC-RPA, TRAH-SCF, COSX integrals
   Lee Huntington         : MR-EOM, pCC
   Robert Izsak           : Overlap fitted RIJCOSX, COSX-SCS-MP3, EOM
   Marcus Kettner         : VPT2
   Christian Kollmar      : KDIIS, OOCD, Brueckner-CCSD(T), CCSD density, CASPT2, CASPT2-K
   Simone Kossmann        : Meta GGA functionals, TD-DFT gradient, OOMP2, MP2 Hessian
   Martin Krupicka        : Initial AUTO-CI
   Lucas Lang             : DCDCAS
   Marvin Lechner         : AUTO-CI (C++ implementation), FIC-MRCC
   Dagmar Lenk            : GEPOL surface, SMD
   Dimitrios Liakos       : Extrapolation schemes; Compound Job, initial MDCI parallelization
   Dimitrios Manganas     : Further ROCIS development; embedding schemes
   Dimitrios Pantazis     : SARC Basis sets
   Anastasios Papadopoulos: AUTO-CI, single reference methods and gradients
   Taras Petrenko         : DFT Hessian,TD-DFT gradient, ASA, ECA, R-Raman, ABS, FL, XAS/XES, NRVS
   Peter Pinski           : DLPNO-MP2, DLPNO-MP2 Gradient
   Christoph Reimann      : Effective Core Potentials
   Marius Retegan         : Local ZFS, SOC
   Christoph Riplinger    : Optimizer, TS searches, QM/MM, DLPNO-CCSD(T), (RO)-DLPNO pert. Triples
   Tobias Risthaus        : Range-separated hybrids, TD-DFT gradient, RPA, STAB
   Michael Roemelt        : Original ROCIS implementation
   Masaaki Saitow         : Open-shell DLPNO-CCSD energy and density
   Barbara Sandhoefer     : DKH picture change effects
   Avijit Sen             : IP-ROCIS
   Kantharuban Sivalingam : CASSCF convergence, NEVPT2, FIC-MRCI
   Bernardo de Souza      : ESD, SOC TD-DFT
   Georgi Stoychev        : AutoAux, RI-MP2 NMR, DLPNO-MP2 response
   Willem Van den Heuvel  : Paramagnetic NMR
   Boris Wezisla          : Elementary symmetry handling
   Frank Wennmohs         : Technical directorship


 We gratefully acknowledge several colleagues who have allowed us to
 interface, adapt or use parts of their codes:
   Stefan Grimme, W. Hujo, H. Kruse, P. Pracht,  : VdW corrections, initial TS optimization,
                  C. Bannwarth, S. Ehlert          DFT functionals, gCP, sTDA/sTD-DF
   Ed Valeev, F. Pavosevic, A. Kumar             : LibInt (2-el integral package), F12 methods
   Garnet Chan, S. Sharma, J. Yang, R. Olivares  : DMRG
   Ulf Ekstrom                                   : XCFun DFT Library
   Mihaly Kallay                                 : mrcc  (arbitrary order and MRCC methods)
   Jiri Pittner, Ondrej Demel                    : Mk-CCSD
   Frank Weinhold                                : gennbo (NPA and NBO analysis)
   Christopher J. Cramer and Donald G. Truhlar   : smd solvation model
   Lars Goerigk                                  : TD-DFT with DH, B97 family of functionals
   V. Asgeirsson, H. Jonsson                     : NEB implementation
   FAccTs GmbH                                   : IRC, NEB, NEB-TS, DLPNO-Multilevel, CI-OPT
                                                   MM, QMMM, 2- and 3-layer-ONIOM, Crystal-QMMM,
                                                   LR-CPCM, SF, NACMEs, symmetry and pop. for TD-DFT,
                                                   nearIR, NL-DFT gradient (VV10), updates on ESD,
                                                   ML-optimized integration grids
   S Lehtola, MJT Oliveira, MAL Marques          : LibXC Library
   Liviu Ungur et al                             : ANISO software


 Your calculation uses the libint2 library for the computation of 2-el integrals
 For citations please refer to: http://libint.valeyev.net

 Your ORCA version has been built with support for libXC version: 5.1.0
 For citations please refer to: https://tddft.org/programs/libxc/

 This ORCA versions uses:
   CBLAS   interface :  Fast vector & matrix operations
   LAPACKE interface :  Fast linear algebra routines
   SCALAPACK package :  Parallel linear algebra routines
   Shared memory     :  Shared parallel matrices
   BLAS/LAPACK       :  OpenBLAS 0.3.15  USE64BITINT DYNAMIC_ARCH NO_AFFINITY Haswell SINGLE_THREADED
        Core in use  :  Haswell
   Copyright (c) 2011-2014, The OpenBLAS Project


Your calculation utilizes the atom-pairwise dispersion correction
with the Becke-Johnson damping scheme (D3BJ)
Cite in your paper:
S.Grimme, S.Ehrlich, L.Goerigk, J Comput Chem, (2011), 32, 1456–1465 
S.Grimme, J.Antony, S.Ehrlich and H.Krieg, J.Chem.Phys., 132, (2010), 154104 
   

================================================================================

----- Orbital basis set information -----
Your calculation utilizes the basis: def2-TZVP
   F. Weigend and R. Ahlrichs, Phys. Chem. Chem. Phys. 7, 3297 (2005).

----- AuxJ basis set information -----
Your calculation utilizes the auxiliary basis: def2/J
   F. Weigend, Phys. Chem. Chem. Phys. 8, 1057 (2006).

================================================================================
                                        WARNINGS
                       Please study these warnings very carefully!
================================================================================


WARNING: Geometry Optimization
  ===> : Switching off AutoStart
         For restart on a previous wavefunction, please use MOREAD

INFO   : the flag for use of the SHARK integral package has been found!

================================================================================
                                       INPUT FILE
================================================================================
NAME = pyridine/pyridine.inp
|  1> %pal nprocs 24 end
|  2> %maxcore 3500
|  3> ! PBE0 D3BJ def2-TZVP TightSCF OPT FREQ TightOpt
|  4> ! CPCM(dmso)
|  5> %scf
|  6> MaxIter 800
|  7> end
|  8> %geom
|  9> MaxIter 800
| 10> MaxStep 0.2
| 11> end
| 12> *xyz 0 1
| 13> C       -0.344811000      3.800450000     -0.798393000
| 14> C        0.280641000      3.467094000      0.392030000
| 15> C        1.255364000      2.480748000      0.374214000
| 16> N        1.622364000      1.832454000     -0.729675000
| 17> C        1.013770000      2.160774000     -1.868248000
| 18> C        0.030363000      3.134241000     -1.955041000
| 19> H       -1.117175000      4.560718000     -0.823831000
| 20> H        1.760307000      2.189084000      1.290556000
| 21> H        1.323872000      1.614657000     -2.754785000
| 22> H       -0.433321000      3.356273000     -2.908491000
| 23> H        0.016751000      3.953998000      1.322808000
| 24> *
| 25> 
| 26>                          ****END OF INPUT****
================================================================================

                       *****************************
                       * Geometry Optimization Run *
                       *****************************

Geometry optimization settings:
Update method            Update   .... BFGS
Choice of coordinates    CoordSys .... Z-matrix Internals
Initial Hessian          InHess   .... Almoef's Model

Convergence Tolerances:
Energy Change            TolE     ....  1.0000e-06 Eh
Max. Gradient            TolMAXG  ....  1.0000e-04 Eh/bohr
RMS Gradient             TolRMSG  ....  3.0000e-05 Eh/bohr
Max. Displacement        TolMAXD  ....  1.0000e-03 bohr
RMS Displacement         TolRMSD  ....  6.0000e-04 bohr
Strict Convergence                ....  False
------------------------------------------------------------------------------
                        ORCA OPTIMIZATION COORDINATE SETUP
------------------------------------------------------------------------------

The optimization will be done in new redundant internal coordinates
Making redundant internal coordinates   ...  (new redundants) done
Evaluating the initial hessian          ...  (Almloef) done
Evaluating the coordinates              ...  done
Calculating the B-matrix                .... done
Calculating the G-matrix                .... done
Diagonalizing the G-matrix              .... done
The first mode is                       ....   20
The number of degrees of freedom        ....   27

    -----------------------------------------------------------------
                    Redundant Internal Coordinates


    -----------------------------------------------------------------
         Definition                    Initial Value    Approx d2E/dq
    -----------------------------------------------------------------
      1. B(C   1,C   0)                  1.3854         0.635368   
      2. B(C   2,C   1)                  1.3868         0.632129   
      3. B(N   3,C   2)                  1.3317         0.693134   
      4. B(C   4,N   3)                  1.3321         0.692194   
      5. B(C   5,C   4)                  1.3865         0.632984   
      6. B(C   5,C   0)                  1.3865         0.632846   
      7. B(H   6,C   0)                  1.0841         0.368035   
      8. B(H   7,C   2)                  1.0861         0.365232   
      9. B(H   8,C   4)                  1.0864         0.364839   
     10. B(H   9,C   5)                  1.0832         0.369180   
     11. B(H  10,C   1)                  1.0831         0.369372   
     12. A(C   5,C   0,H   6)          120.6761         0.355448   
     13. A(C   1,C   0,H   6)          120.7006         0.355688   
     14. A(C   1,C   0,C   5)          118.6215         0.437598   
     15. A(C   0,C   1,C   2)          118.5152         0.437509   
     16. A(C   2,C   1,H  10)          120.1339         0.355598   
     17. A(C   0,C   1,H  10)          121.3492         0.355907   
     18. A(C   1,C   2,N   3)          123.4056         0.441516   
     19. A(N   3,C   2,H   7)          116.1345         0.358288   
     20. A(C   1,C   2,H   7)          120.4573         0.354919   
     21. A(C   2,N   3,C   4)          117.5545         0.445873   
     22. A(C   5,C   4,H   8)          120.2853         0.354936   
     23. A(N   3,C   4,H   8)          116.3052         0.358140   
     24. A(N   3,C   4,C   5)          123.4086         0.441516   
     25. A(C   4,C   5,H   9)          120.1748         0.355649   
     26. A(C   0,C   5,H   9)          121.3293         0.355635   
     27. A(C   0,C   5,C   4)          118.4942         0.437301   
     28. D(C   2,C   1,C   0,H   6)    179.5118         0.028021   
     29. D(H  10,C   1,C   0,C   5)   -179.5311         0.028021   
     30. D(H  10,C   1,C   0,H   6)     -0.0188         0.028021   
     31. D(C   2,C   1,C   0,C   5)     -0.0005         0.028021   
     32. D(N   3,C   2,C   1,H  10)    179.4130         0.027718   
     33. D(H   7,C   2,C   1,C   0)   -179.5162         0.027718   
     34. D(N   3,C   2,C   1,C   0)     -0.1235         0.027718   
     35. D(H   7,C   2,C   1,H  10)      0.0202         0.027718   
     36. D(C   4,N   3,C   2,H   7)    179.5058         0.035911   
     37. D(C   4,N   3,C   2,C   1)      0.0889         0.035911   
     38. D(H   8,C   4,N   3,C   2)   -179.5943         0.035804   
     39. D(C   5,C   4,N   3,C   2)      0.0709         0.035804   
     40. D(H   9,C   5,C   0,C   1)    179.6808         0.027785   
     41. D(C   4,C   5,C   0,H   6)   -179.3668         0.027785   
     42. D(C   4,C   5,C   0,C   1)      0.1456         0.027785   
     43. D(H   9,C   5,C   4,H   8)     -0.0771         0.027797   
     44. D(H   9,C   5,C   4,N   3)   -179.7295         0.027797   
     45. D(C   0,C   5,C   4,H   8)    179.4637         0.027797   
     46. D(C   0,C   5,C   4,N   3)     -0.1888         0.027797   
     47. D(H   9,C   5,C   0,H   6)      0.1684         0.027785   
    -----------------------------------------------------------------

Number of atoms                         .... 11
Number of degrees of freedom            .... 47

         *************************************************************
         *                GEOMETRY OPTIMIZATION CYCLE   1            *
         *************************************************************
---------------------------------
CARTESIAN COORDINATES (ANGSTROEM)
---------------------------------
  C     -0.344811    3.800450   -0.798393
  C      0.280641    3.467094    0.392030
  C      1.255364    2.480748    0.374214
  N      1.622364    1.832454   -0.729675
  C      1.013770    2.160774   -1.868248
  C      0.030363    3.134241   -1.955041
  H     -1.117175    4.560718   -0.823831
  H      1.760307    2.189084    1.290556
  H      1.323872    1.614657   -2.754785
  H     -0.433321    3.356273   -2.908491
  H      0.016751    3.953998    1.322808

----------------------------
CARTESIAN COORDINATES (A.U.)
----------------------------
  NO LB      ZA    FRAG     MASS         X           Y           Z
   0 C     6.0000    0    12.011   -0.651598    7.181810   -1.508744
   1 C     6.0000    0    12.011    0.530335    6.551858    0.740829
   2 C     6.0000    0    12.011    2.372294    4.687934    0.707162
   3 N     7.0000    0    14.007    3.065824    3.462836   -1.378886
   4 C     6.0000    0    12.011    1.915748    4.083271   -3.530477
   5 C     6.0000    0    12.011    0.057378    5.922857   -3.694492
   6 H     1.0000    0     1.008   -2.111155    8.618508   -1.556815
   7 H     1.0000    0     1.008    3.326498    4.136769    2.438797
   8 H     1.0000    0     1.008    2.501756    3.051260   -5.205789
   9 H     1.0000    0     1.008   -0.818858    6.342437   -5.496251
  10 H     1.0000    0     1.008    0.031655    7.471973    2.499745

--------------------------------
INTERNAL COORDINATES (ANGSTROEM)
--------------------------------
 C      0   0   0     0.000000000000     0.00000000     0.00000000
 C      1   0   0     1.385432548329     0.00000000     0.00000000
 C      2   1   0     1.386823986056   118.51522759     0.00000000
 N      3   2   1     1.331745108779   123.40563773   359.87652035
 C      4   3   2     1.332114542960   117.55452748     0.08887783
 C      5   4   3     1.386456040626   123.40860369     0.07090927
 H      1   2   3     1.084066728649   120.70059454   179.51175578
 H      3   2   1     1.086148232567   120.45729395   180.48375508
 H      5   4   3     1.086441383813   116.30523730   180.40568506
 H      6   5   4     1.083221105490   120.17479874   180.27045968
 H      2   1   3     1.083079462736   121.34920432   180.46939659

---------------------------
INTERNAL COORDINATES (A.U.)
---------------------------
 C      0   0   0     0.000000000000     0.00000000     0.00000000
 C      1   0   0     2.618088093362     0.00000000     0.00000000
 C      2   1   0     2.620717529599   118.51522759     0.00000000
 N      3   2   1     2.516633535782   123.40563773   359.87652035
 C      4   3   2     2.517331665208   117.55452748     0.08887783
 C      5   4   3     2.620022213503   123.40860369     0.07090927
 H      1   2   3     2.048589228043   120.70059454   179.51175578
 H      3   2   1     2.052522700395   120.45729395   180.48375508
 H      5   4   3     2.053076675965   116.30523730   180.40568506
 H      6   5   4     2.046991231860   120.17479874   180.27045968
 H      2   1   3     2.046723565845   121.34920432   180.46939659

---------------------
BASIS SET INFORMATION
---------------------
There are 3 groups of distinct atoms

 Group   1 Type C   : 11s6p2d1f contracted to 5s3p2d1f pattern {62111/411/11/1}
 Group   2 Type N   : 11s6p2d1f contracted to 5s3p2d1f pattern {62111/411/11/1}
 Group   3 Type H   : 5s1p contracted to 3s1p pattern {311/1}

Atom   0C    basis set group =>   1
Atom   1C    basis set group =>   1
Atom   2C    basis set group =>   1
Atom   3N    basis set group =>   2
Atom   4C    basis set group =>   1
Atom   5C    basis set group =>   1
Atom   6H    basis set group =>   3
Atom   7H    basis set group =>   3
Atom   8H    basis set group =>   3
Atom   9H    basis set group =>   3
Atom  10H    basis set group =>   3
---------------------------------
AUXILIARY/J BASIS SET INFORMATION
---------------------------------
There are 3 groups of distinct atoms

 Group   1 Type C   : 12s5p4d2f1g contracted to 6s4p3d1f1g pattern {711111/2111/211/2/1}
 Group   2 Type N   : 12s5p4d2f1g contracted to 6s4p3d1f1g pattern {711111/2111/211/2/1}
 Group   3 Type H   : 5s2p1d contracted to 3s1p1d pattern {311/2/1}

Atom   0C    basis set group =>   1
Atom   1C    basis set group =>   1
Atom   2C    basis set group =>   1
Atom   3N    basis set group =>   2
Atom   4C    basis set group =>   1
Atom   5C    basis set group =>   1
Atom   6H    basis set group =>   3
Atom   7H    basis set group =>   3
Atom   8H    basis set group =>   3
Atom   9H    basis set group =>   3
Atom  10H    basis set group =>   3


           ************************************************************
           *        Program running with 24 parallel MPI-processes    *
           *              working on a common directory               *
           ************************************************************
------------------------------------------------------------------------------
                           ORCA GTO INTEGRAL CALCULATION
                           -- RI-GTO INTEGRALS CHOSEN --
------------------------------------------------------------------------------
------------------------------------------------------------------------------
                   ___                                                        
                  /   \      - P O W E R E D   B Y -                         
                 /     \                                                     
                 |  |  |   _    _      __       _____    __    __             
                 |  |  |  | |  | |    /  \     |  _  \  |  |  /  |          
                  \  \/   | |  | |   /    \    | | | |  |  | /  /          
                 / \  \   | |__| |  /  /\  \   | |_| |  |  |/  /          
                |  |  |   |  __  | /  /__\  \  |    /   |      \           
                |  |  |   | |  | | |   __   |  |    \   |  |\   \          
                \     /   | |  | | |  |  |  |  | |\  \  |  | \   \       
                 \___/    |_|  |_| |__|  |__|  |_| \__\ |__|  \__/        
                                                                              
                      - O R C A' S   B I G   F R I E N D -                    
                                      &                                       
                       - I N T E G R A L  F E E D E R -                       
                                                                              
 v1 FN, 2020, v2 2021                                                         
------------------------------------------------------------------------------


Reading SHARK input file pyridine/pyridine.SHARKINP.tmp ... ok
----------------------
SHARK INTEGRAL PACKAGE
----------------------

Number of atoms                             ...     11
Number of basis functions                   ...    216
Number of shells                            ...     86
Maximum angular momentum                    ...      3
Integral batch strategy                     ... SHARK/LIBINT Hybrid
RI-J (if used) integral strategy            ... SPLIT-RIJ (Revised 2003 algorithm where possible)
Printlevel                                  ...      1
Contraction scheme used                     ... SEGMENTED contraction
Coulomb Range Separation                    ... NOT USED
Exchange Range Separation                   ... NOT USED
Finite Nucleus Model                        ... NOT USED
Auxiliary Coulomb fitting basis             ... AVAILABLE
   # of basis functions in Aux-J            ...    349
   # of shells in Aux-J                     ...    115
   Maximum angular momentum in Aux-J        ...      4
Auxiliary J/K fitting basis                 ... NOT available
Auxiliary Correlation fitting basis         ... NOT available
Auxiliary 'external' fitting basis          ... NOT available
Integral threshold                          ...     2.500000e-11
Primitive cut-off                           ...     2.500000e-12
Primitive pair pre-selection threshold      ...     2.500000e-12

Calculating pre-screening integrals         ... done (  0.1 sec) Dimension = 86
Organizing shell pair data                  ... done (  0.1 sec)
Shell pair information
Total number of shell pairs                 ...      3741
Shell pairs after pre-screening             ...      3626
Total number of primitive shell pairs       ...     11472
Primitive shell pairs kept                  ...      8846
          la=0 lb=0:    958 shell pairs
          la=1 lb=0:   1003 shell pairs
          la=1 lb=1:    274 shell pairs
          la=2 lb=0:    536 shell pairs
          la=2 lb=1:    276 shell pairs
          la=2 lb=2:     78 shell pairs
          la=3 lb=0:    270 shell pairs
          la=3 lb=1:    138 shell pairs
          la=3 lb=2:     72 shell pairs
          la=3 lb=3:     21 shell pairs

Calculating one electron integrals          ... done (  0.0 sec)
Calculating RI/J V-Matrix + Cholesky decomp.... done (  0.1 sec)
Calculating Nuclear repulsion               ... done (  0.0 sec) ENN=    207.005137615162 Eh

SHARK setup successfully completed in   0.5 seconds

Maximum memory used throughout the entire GTOINT-calculation: 17.3 MB


           ************************************************************
           *        Program running with 24 parallel MPI-processes    *
           *              working on a common directory               *
           ************************************************************
-------------------------------------------------------------------------------
                                 ORCA SCF
-------------------------------------------------------------------------------

------------
SCF SETTINGS
------------
Hamiltonian:
 Density Functional     Method          .... DFT(GTOs)
 Exchange Functional    Exchange        .... PBE
   PBE kappa parameter   XKappa         ....  0.804000
   PBE mue parameter    XMuePBE         ....  0.219520
 Correlation Functional Correlation     .... PBE
   PBE beta parameter  CBetaPBE         ....  0.066725
 LDA part of GGA corr.  LDAOpt          .... PW91-LDA
 Gradients option       PostSCFGGA      .... off
 Hybrid DFT is turned on
   Fraction HF Exchange ScalHFX         ....  0.250000
   Scaling of DF-GGA-X  ScalDFX         ....  0.750000
   Scaling of DF-GGA-C  ScalDFC         ....  1.000000
   Scaling of DF-LDA-C  ScalLDAC        ....  1.000000
   Perturbative correction              ....  0.000000
   Density functional embedding theory  .... OFF
   NL short-range parameter             ....  6.900000
 RI-approximation to the Coulomb term is turned on
   Number of AuxJ basis functions       .... 349
   RIJ-COSX (HFX calculated with COS-X)).... on


General Settings:
 Integral files         IntName         .... pyridine/pyridine
 Hartree-Fock type      HFTyp           .... RHF
 Total Charge           Charge          ....    0
 Multiplicity           Mult            ....    1
 Number of Electrons    NEL             ....   42
 Basis Dimension        Dim             ....  216
 Nuclear Repulsion      ENuc            ....    207.0051376152 Eh

Convergence Acceleration:
 DIIS                   CNVDIIS         .... on
   Start iteration      DIISMaxIt       ....    12
   Startup error        DIISStart       ....  0.200000
   # of expansion vecs  DIISMaxEq       ....     5
   Bias factor          DIISBfac        ....   1.050
   Max. coefficient     DIISMaxC        ....  10.000
 Trust-Rad. Augm. Hess. CNVTRAH         .... auto
   Auto Start mean grad. ratio tolernc. ....  1.125000
   Auto Start start iteration           ....    20
   Auto Start num. interpolation iter.  ....    10
   Max. Number of Micro iterations      ....    16
   Max. Number of Macro iterations      .... Maxiter - #DIIS iter
   Number of Davidson start vectors     ....     2
   Converg. threshold I  (grad. norm)   ....   1.000e-05
   Converg. threshold II (energy diff.) ....   1.000e-08
   Grad. Scal. Fac. for Micro threshold ....   0.100
   Minimum threshold for Micro iter.    ....   0.010
   NR start threshold (gradient norm)   ....   0.001
   Initial trust radius                 ....   0.400
   Minimum AH scaling param. (alpha)    ....   1.000
   Maximum AH scaling param. (alpha)    .... 1000.000
   Orbital update algorithm             .... Taylor
   White noise on init. David. guess    .... on
   Maximum white noise                  ....   0.010
   Quad. conv. algorithm                .... NR
 SOSCF                  CNVSOSCF        .... on
   Start iteration      SOSCFMaxIt      ....   150
   Startup grad/error   SOSCFStart      ....  0.003300
 Level Shifting         CNVShift        .... on
   Level shift para.    LevelShift      ....    0.2500
   Turn off err/grad.   ShiftErr        ....    0.0010
 Zerner damping         CNVZerner       .... off
 Static damping         CNVDamp         .... on
   Fraction old density DampFac         ....    0.7000
   Max. Damping (<1)    DampMax         ....    0.9800
   Min. Damping (>=0)   DampMin         ....    0.0000
   Turn off err/grad.   DampErr         ....    0.1000
 Fernandez-Rico         CNVRico         .... off

SCF Procedure:
 Maximum # iterations   MaxIter         ....   800
 SCF integral mode      SCFMode         .... Direct
   Integral package                     .... SHARK and LIBINT hybrid scheme
 Reset frequency        DirectResetFreq ....    20
 Integral Threshold     Thresh          ....  2.500e-11 Eh
 Primitive CutOff       TCut            ....  2.500e-12 Eh

Convergence Tolerance:
 Convergence Check Mode ConvCheckMode   .... Total+1el-Energy
 Convergence forced     ConvForced      .... 0
 Energy Change          TolE            ....  1.000e-08 Eh
 1-El. energy change                    ....  1.000e-05 Eh
 Orbital Gradient       TolG            ....  1.000e-05
 Orbital Rotation angle TolX            ....  1.000e-05
 DIIS Error             TolErr          ....  5.000e-07


Diagonalization of the overlap matrix:
Smallest eigenvalue                        ... 5.959e-05
Time for diagonalization                   ...    0.015 sec
Threshold for overlap eigenvalues          ... 1.000e-08
Number of eigenvalues below threshold      ... 0
Time for construction of square roots      ...    0.016 sec
Total time needed                          ...    0.033 sec

Time for model grid setup =    0.101 sec

------------------------------
INITIAL GUESS: MODEL POTENTIAL
------------------------------
Loading Hartree-Fock densities                     ... done
Calculating cut-offs                               ... done
Initializing the effective Hamiltonian             ... done
Setting up the integral package (SHARK)            ... done
Starting the Coulomb interaction                   ... done (   0.1 sec)
Reading the grid                                   ... done
Mapping shells                                     ... done
Starting the XC term evaluation                    ... done (   0.0 sec)
  promolecular density results
     # of electrons  =     41.996841836
     EX              =    -33.564111026
     EC              =     -1.381487455
     EX+EC           =    -34.945598481
Transforming the Hamiltonian                       ... done (   0.0 sec)
Diagonalizing the Hamiltonian                      ... done (   0.0 sec)
Back transforming the eigenvectors                 ... done (   0.0 sec)
Now organizing SCF variables                       ... done
                      ------------------
                      INITIAL GUESS DONE (   0.3 sec)
                      ------------------
-------------------
DFT GRID GENERATION
-------------------

General Integration Accuracy     IntAcc      ... 4.388
Radial Grid Type                 RadialGrid  ... OptM3 with GC (2021)
Angular Grid (max. ang.)         AngularGrid ... 4 (Lebedev-302)
Angular grid pruning method      GridPruning ... 4 (adaptive)
Weight generation scheme         WeightScheme... Becke
Basis function cutoff            BFCut       ... 1.0000e-11
Integration weight cutoff        WCut        ... 1.0000e-14
Angular grids for H and He will be reduced by one unit
Partially contracted basis set               ... off
Rotationally invariant grid construction     ... off

Total number of grid points                  ...    52479
Total number of batches                      ...      825
Average number of points per batch           ...       63
Average number of grid points per atom       ...     4771
Time for grid setup =    0.290 sec

--------------------
COSX GRID GENERATION
--------------------

GRIDX 1
-------
General Integration Accuracy     IntAcc      ... 3.816
Radial Grid Type                 RadialGrid  ... OptM3 with GC (2021)
Angular Grid (max. ang.)         AngularGrid ... 1 (Lebedev-50)
Angular grid pruning method      GridPruning ... 4 (adaptive)
Weight generation scheme         WeightScheme... Becke
Basis function cutoff            BFCut       ... 1.0000e-11
Integration weight cutoff        WCut        ... 1.0000e-14
Angular grids for H and He will be reduced by one unit
Partially contracted basis set               ... on
Rotationally invariant grid construction     ... off

Total number of grid points                  ...     6693
Total number of batches                      ...      108
Average number of points per batch           ...       61
Average number of grid points per atom       ...      608
UseSFitting                                  ... on

GRIDX 2
-------
General Integration Accuracy     IntAcc      ... 4.020
Radial Grid Type                 RadialGrid  ... OptM3 with GC (2021)
Angular Grid (max. ang.)         AngularGrid ... 2 (Lebedev-110)
Angular grid pruning method      GridPruning ... 4 (adaptive)
Weight generation scheme         WeightScheme... Becke
Basis function cutoff            BFCut       ... 1.0000e-11
Integration weight cutoff        WCut        ... 1.0000e-14
Angular grids for H and He will be reduced by one unit
Partially contracted basis set               ... on
Rotationally invariant grid construction     ... off

Total number of grid points                  ...    14814
Total number of batches                      ...      236
Average number of points per batch           ...       62
Average number of grid points per atom       ...     1347
UseSFitting                                  ... on

GRIDX 3
-------
General Integration Accuracy     IntAcc      ... 4.338
Radial Grid Type                 RadialGrid  ... OptM3 with GC (2021)
Angular Grid (max. ang.)         AngularGrid ... 3 (Lebedev-194)
Angular grid pruning method      GridPruning ... 4 (adaptive)
Weight generation scheme         WeightScheme... Becke
Basis function cutoff            BFCut       ... 1.0000e-11
Integration weight cutoff        WCut        ... 1.0000e-14
Angular grids for H and He will be reduced by one unit
Partially contracted basis set               ... on
Rotationally invariant grid construction     ... off

Total number of grid points                  ...    32632
Total number of batches                      ...      515
Average number of points per batch           ...       63
Average number of grid points per atom       ...     2967
UseSFitting                                  ... on

Time for X-Grid setup             =    0.449 sec


--------------------
CPCM SOLVATION MODEL
--------------------
CPCM parameters:
  Epsilon                                         ...      47.2000
  Refrac                                          ...       1.4790
  Rsolv                                           ...       1.3000
  Surface type                                    ... GAUSSIAN VDW
  Epsilon function type                           ...         CPCM
Radii:
 Radius for C  used is    3.8550 Bohr (=   2.0400 Ang.)
 Radius for N  used is    3.5149 Bohr (=   1.8600 Ang.)
 Radius for H  used is    2.4944 Bohr (=   1.3200 Ang.)
Calculating surface                               ...        done! (  0.0s)
GEPOL surface points                              ...          662
GEPOL Volume                                      ...     719.3268
GEPOL Surface-area                                ...     425.1073
Calculating surface distance matrix               ...        done! (  0.0s)
Performing Cholesky decomposition & store         ...        done! (  0.0s)
Overall time for CPCM initialization              ...                 0.1s
--------------
SCF ITERATIONS
--------------
ITER       Energy         Delta-E        Max-DP      RMS-DP      [F,P]     Damp
               ***  Starting incremental Fock matrix formation  ***
  0   -247.9553202650   0.000000000000 0.03430154  0.00105221  0.1743948 0.7000
  1   -248.0111922617  -0.055871996653 0.04625990  0.00101410  0.0885413 0.7000
                               ***Turning on DIIS***
  2   -248.0367636738  -0.025571412136 0.08990305  0.00208113  0.0333984 0.0000
  3   -248.0745236080  -0.037759934162 0.04301162  0.00071404  0.0435968 0.0000
  4   -248.0831256338  -0.008602025836 0.01529715  0.00026625  0.0058839 0.0000
  5   -248.0834446130  -0.000318979132 0.00789174  0.00013092  0.0035758 0.0000
                      *** Initiating the SOSCF procedure ***
                           *** Shutting down DIIS ***
                      *** Re-Reading the Fockian *** 
                      *** Removing any level shift *** 
ITER      Energy       Delta-E        Grad      Rot      Max-DP    RMS-DP
  6   -248.08347313  -0.0000285139  0.000162  0.000162  0.003644  0.000068
               *** Restarting incremental Fock matrix formation ***
  7   -248.08349775  -0.0000246208  0.000074  0.000281  0.000186  0.000008
  8   -248.08349769   0.0000000589  0.000141  0.000230  0.000072  0.000002
  9   -248.08349791  -0.0000002182  0.000012  0.000041  0.000045  0.000001
 10   -248.08349791  -0.0000000041  0.000014  0.000020  0.000033  0.000001
                  ***Gradient check signals convergence***
              ***Rediagonalizing the Fockian in SOSCF/NRSCF***

               *****************************************************
               *                     SUCCESS                       *
               *           SCF CONVERGED AFTER  11 CYCLES          *
               *****************************************************

Old exchange energy                            =     -8.579316492 Eh
New exchange energy                            =     -8.579318067 Eh
Exchange energy change after final integration =     -0.000001575 Eh
Total energy after final integration           =   -248.083499481 Eh
Final COS-X integration done in                =     0.675 sec

----------------
TOTAL SCF ENERGY
----------------

Total Energy       :         -248.08349948 Eh           -6750.69522 eV

Components:
Nuclear Repulsion  :          207.00513762 Eh            5632.89617 eV
Electronic Energy  :         -455.08863710 Eh          -12383.59139 eV
One Electron Energy:         -743.79835418 Eh          -20239.78219 eV
Two Electron Energy:          288.70971709 Eh            7856.19080 eV
Max COSX asymmetry :            0.00000078 Eh               0.00002 eV
CPCM Dielectric    :           -0.00920877 Eh              -0.25058 eV

Virial components:
Potential Energy   :         -495.00300160 Eh          -13469.71646 eV
Kinetic Energy     :          246.91950212 Eh            6719.02124 eV
Virial Ratio       :            2.00471408


DFT components:
N(Alpha)           :       21.000006967378 electrons
N(Beta)            :       21.000006967378 electrons
N(Total)           :       42.000013934757 electrons
E(X)               :      -25.668442883115 Eh       
E(C)               :       -1.388381628095 Eh       
E(XC)              :      -27.056824511210 Eh       
DFET-embed. en.    :        0.000000000000 Eh       
CPCM Solvation Model Properties:
Surface-charge          :           -0.02059007
Charge-correction       :           -0.00013493 Eh              -0.00367 eV
Free-energy (cav+disp)  :  This term is not implemented in the current solvation scheme

---------------
SCF CONVERGENCE
---------------

  Last Energy change         ...    5.3400e-09  Tolerance :   1.0000e-08
  Last MAX-Density change    ...    1.1102e-15  Tolerance :   1.0000e-07
  Last RMS-Density change    ...    1.4720e-17  Tolerance :   5.0000e-09
  Last Orbital Gradient      ...    1.8025e-06  Tolerance :   1.0000e-05
  Last Orbital Rotation      ...    4.4582e-06  Tolerance :   1.0000e-05

             **** THE GBW FILE WAS UPDATED (pyridine/pyridine.gbw) ****
             **** DENSITY pyridine/pyridine.scfp WAS UPDATED ****
             **** ENERGY FILE WAS UPDATED (pyridine/pyridine.en.tmp) ****
             **** THE GBW FILE WAS UPDATED (pyridine/pyridine.gbw) ****
             **** DENSITY pyridine/pyridine.scfp WAS UPDATED ****
----------------
ORBITAL ENERGIES
----------------

  NO   OCC          E(Eh)            E(eV) 
   0   2.0000     -14.387728      -391.5100 
   1   2.0000     -10.259773      -279.1826 
   2   2.0000     -10.259745      -279.1819 
   3   2.0000     -10.243986      -278.7530 
   4   2.0000     -10.233992      -278.4811 
   5   2.0000     -10.233943      -278.4797 
   6   2.0000      -0.978405       -26.6238 
   7   2.0000      -0.832839       -22.6627 
   8   2.0000      -0.789218       -21.4757 
   9   2.0000      -0.653035       -17.7700 
  10   2.0000      -0.649250       -17.6670 
  11   2.0000      -0.547939       -14.9102 
  12   2.0000      -0.500819       -13.6280 
  13   2.0000      -0.481750       -13.1091 
  14   2.0000      -0.442460       -12.0400 
  15   2.0000      -0.424110       -11.5406 
  16   2.0000      -0.417782       -11.3684 
  17   2.0000      -0.375526       -10.2186 
  18   2.0000      -0.308451        -8.3934 
  19   2.0000      -0.281480        -7.6595 
  20   2.0000      -0.280115        -7.6223 
  21   0.0000      -0.031166        -0.8481 
  22   0.0000      -0.016483        -0.4485 
  23   0.0000       0.069114         1.8807 
  24   0.0000       0.098183         2.6717 
  25   0.0000       0.105132         2.8608 
  26   0.0000       0.117981         3.2104 
  27   0.0000       0.125738         3.4215 
  28   0.0000       0.138337         3.7643 
  29   0.0000       0.145347         3.9551 
  30   0.0000       0.186089         5.0637 
  31   0.0000       0.208674         5.6783 
  32   0.0000       0.212526         5.7831 
  33   0.0000       0.235942         6.4203 
  34   0.0000       0.239859         6.5269 
  35   0.0000       0.241064         6.5597 
  36   0.0000       0.251420         6.8415 
  37   0.0000       0.262650         7.1471 
  38   0.0000       0.282443         7.6857 
  39   0.0000       0.303961         8.2712 
  40   0.0000       0.334704         9.1078 
  41   0.0000       0.335784         9.1372 
  42   0.0000       0.349760         9.5175 
  43   0.0000       0.361974         9.8498 
  44   0.0000       0.368099        10.0165 
  45   0.0000       0.405608        11.0371 
  46   0.0000       0.425403        11.5758 
  47   0.0000       0.433717        11.8020 
  48   0.0000       0.444348        12.0913 
  49   0.0000       0.446609        12.1528 
  50   0.0000       0.459722        12.5097 
  51   0.0000       0.465563        12.6686 
  52   0.0000       0.479349        13.0438 
  53   0.0000       0.498614        13.5680 
  54   0.0000       0.506336        13.7781 
  55   0.0000       0.512963        13.9584 
  56   0.0000       0.541417        14.7327 
  57   0.0000       0.573242        15.5987 
  58   0.0000       0.614026        16.7085 
  59   0.0000       0.646308        17.5869 
  60   0.0000       0.661242        17.9933 
  61   0.0000       0.661563        18.0020 
  62   0.0000       0.683411        18.5965 
  63   0.0000       0.686955        18.6930 
  64   0.0000       0.754592        20.5335 
  65   0.0000       0.763368        20.7723 
  66   0.0000       0.774429        21.0733 
  67   0.0000       0.779514        21.2117 
  68   0.0000       0.817906        22.2564 
  69   0.0000       0.868596        23.6357 
  70   0.0000       0.882647        24.0180 
  71   0.0000       0.905577        24.6420 
  72   0.0000       0.934023        25.4161 
  73   0.0000       1.008323        27.4379 
  74   0.0000       1.009774        27.4774 
  75   0.0000       1.066087        29.0097 
  76   0.0000       1.104472        30.0542 
  77   0.0000       1.111920        30.2569 
  78   0.0000       1.131586        30.7920 
  79   0.0000       1.155424        31.4407 
  80   0.0000       1.208160        32.8757 
  81   0.0000       1.241361        33.7791 
  82   0.0000       1.255041        34.1514 
  83   0.0000       1.260796        34.3080 
  84   0.0000       1.297317        35.3018 
  85   0.0000       1.308231        35.5988 
  86   0.0000       1.322726        35.9932 
  87   0.0000       1.352378        36.8001 
  88   0.0000       1.404303        38.2130 
  89   0.0000       1.433764        39.0147 
  90   0.0000       1.460835        39.7513 
  91   0.0000       1.477210        40.1969 
  92   0.0000       1.489848        40.5408 
  93   0.0000       1.512235        41.1500 
  94   0.0000       1.533432        41.7268 
  95   0.0000       1.548109        42.1262 
  96   0.0000       1.591936        43.3188 
  97   0.0000       1.615152        43.9505 
  98   0.0000       1.635070        44.4925 
  99   0.0000       1.678809        45.6827 
 100   0.0000       1.709017        46.5047 
 101   0.0000       1.709317        46.5129 
 102   0.0000       1.723332        46.8943 
 103   0.0000       1.754686        47.7474 
 104   0.0000       1.780714        48.4557 
 105   0.0000       1.789381        48.6915 
 106   0.0000       1.802499        49.0485 
 107   0.0000       1.921885        52.2971 
 108   0.0000       1.927847        52.4594 
 109   0.0000       1.963098        53.4186 
 110   0.0000       1.991183        54.1828 
 111   0.0000       2.066072        56.2207 
 112   0.0000       2.072734        56.4020 
 113   0.0000       2.096659        57.0530 
 114   0.0000       2.156652        58.6855 
 115   0.0000       2.202034        59.9204 
 116   0.0000       2.223496        60.5044 
 117   0.0000       2.242501        61.0216 
 118   0.0000       2.243116        61.0383 
 119   0.0000       2.284713        62.1702 
 120   0.0000       2.348973        63.9188 
 121   0.0000       2.400595        65.3235 
 122   0.0000       2.450185        66.6729 
 123   0.0000       2.458914        66.9104 
 124   0.0000       2.513356        68.3919 
 125   0.0000       2.563482        69.7559 
 126   0.0000       2.599587        70.7384 
 127   0.0000       2.613313        71.1119 
 128   0.0000       2.614524        71.1448 
 129   0.0000       2.642947        71.9182 
 130   0.0000       2.671527        72.6959 
 131   0.0000       2.685240        73.0691 
 132   0.0000       2.689932        73.1968 
 133   0.0000       2.696969        73.3883 
 134   0.0000       2.751064        74.8603 
 135   0.0000       2.783681        75.7478 
 136   0.0000       2.787307        75.8465 
 137   0.0000       2.798776        76.1586 
 138   0.0000       2.817557        76.6696 
 139   0.0000       2.833854        77.1131 
 140   0.0000       2.881400        78.4069 
 141   0.0000       2.901468        78.9530 
 142   0.0000       2.914323        79.3028 
 143   0.0000       2.925107        79.5962 
 144   0.0000       2.961351        80.5825 
 145   0.0000       2.975766        80.9747 
 146   0.0000       3.045948        82.8845 
 147   0.0000       3.077321        83.7382 
 148   0.0000       3.081265        83.8455 
 149   0.0000       3.111518        84.6687 
 150   0.0000       3.122036        84.9549 
 151   0.0000       3.158906        85.9582 
 152   0.0000       3.169162        86.2373 
 153   0.0000       3.174839        86.3918 
 154   0.0000       3.175340        86.4054 
 155   0.0000       3.218351        87.5758 
 156   0.0000       3.221502        87.6615 
 157   0.0000       3.234220        88.0076 
 158   0.0000       3.261834        88.7590 
 159   0.0000       3.275523        89.1315 
 160   0.0000       3.356007        91.3216 
 161   0.0000       3.398563        92.4796 
 162   0.0000       3.403248        92.6071 
 163   0.0000       3.412192        92.8505 
 164   0.0000       3.426837        93.2490 
 165   0.0000       3.451063        93.9082 
 166   0.0000       3.482636        94.7673 
 167   0.0000       3.503374        95.3317 
 168   0.0000       3.536811        96.2415 
 169   0.0000       3.572030        97.1999 
 170   0.0000       3.686070       100.3031 
 171   0.0000       3.732869       101.5765 
 172   0.0000       3.743481       101.8653 
 173   0.0000       3.782793       102.9350 
 174   0.0000       3.838133       104.4409 
 175   0.0000       3.910228       106.4027 
 176   0.0000       3.927714       106.8785 
 177   0.0000       3.969841       108.0249 
 178   0.0000       4.049040       110.1800 
 179   0.0000       4.070931       110.7757 
 180   0.0000       4.084496       111.1448 
 181   0.0000       4.122104       112.1682 
 182   0.0000       4.143131       112.7403 
 183   0.0000       4.203140       114.3733 
 184   0.0000       4.276153       116.3600 
 185   0.0000       4.310630       117.2982 
 186   0.0000       4.344989       118.2332 
 187   0.0000       4.387325       119.3852 
 188   0.0000       4.424662       120.4012 
 189   0.0000       4.469156       121.6119 
 190   0.0000       4.524382       123.1147 
 191   0.0000       4.544326       123.6574 
 192   0.0000       4.695657       127.7753 
 193   0.0000       4.729568       128.6981 
 194   0.0000       4.835836       131.5898 
 195   0.0000       4.870049       132.5208 
 196   0.0000       4.927594       134.0866 
 197   0.0000       4.932206       134.2121 
 198   0.0000       4.948843       134.6649 
 199   0.0000       5.055216       137.5594 
 200   0.0000       5.073584       138.0592 
 201   0.0000       5.131235       139.6280 
 202   0.0000       5.250341       142.8691 
 203   0.0000       5.305025       144.3571 
 204   0.0000       5.384483       146.5192 
 205   0.0000       5.429181       147.7355 
 206   0.0000       5.601601       152.4273 
 207   0.0000       5.635571       153.3517 
 208   0.0000       5.788123       157.5028 
 209   0.0000       6.017190       163.7361 
 210   0.0000      22.298084       606.7617 
 211   0.0000      22.631009       615.8211 
 212   0.0000      22.702014       617.7532 
 213   0.0000      22.834981       621.3714 
 214   0.0000      23.077510       627.9710 
 215   0.0000      32.448365       882.9649 

                    ********************************
                    * MULLIKEN POPULATION ANALYSIS *
                    ********************************

-----------------------
MULLIKEN ATOMIC CHARGES
-----------------------
   0 C :   -0.161545
   1 C :   -0.116605
   2 C :   -0.063119
   3 N :   -0.278952
   4 C :   -0.063451
   5 C :   -0.116784
   6 H :    0.164598
   7 H :    0.154937
   8 H :    0.154956
   9 H :    0.163039
  10 H :    0.162924
Sum of atomic charges:    0.0000000

--------------------------------
MULLIKEN REDUCED ORBITAL CHARGES
--------------------------------
  0 C s       :     3.200560  s :     3.200560
      pz      :     0.930952  p :     2.858298
      px      :     0.963322
      py      :     0.964023
      dz2     :     0.031911  d :     0.095406
      dxz     :     0.022166
      dyz     :     0.022367
      dx2y2   :     0.006682
      dxy     :     0.012280
      f0      :     0.001800  f :     0.007279
      f+1     :     0.000979
      f-1     :     0.001038
      f+2     :     0.001118
      f-2     :     0.001136
      f+3     :     0.000590
      f-3     :     0.000618
  1 C s       :     3.145374  s :     3.145374
      pz      :     0.965058  p :     2.874693
      px      :     0.951235
      py      :     0.958400
      dz2     :     0.020573  d :     0.089286
      dxz     :     0.018925
      dyz     :     0.023263
      dx2y2   :     0.014998
      dxy     :     0.011526
      f0      :     0.001514  f :     0.007251
      f+1     :     0.000705
      f-1     :     0.001027
      f+2     :     0.000418
      f-2     :     0.001492
      f+3     :     0.001051
      f-3     :     0.001045
  2 C s       :     3.180563  s :     3.180563
      pz      :     0.942308  p :     2.761643
      px      :     0.925155
      py      :     0.894179
      dz2     :     0.021662  d :     0.110641
      dxz     :     0.030536
      dyz     :     0.025655
      dx2y2   :     0.021477
      dxy     :     0.011311
      f0      :     0.002243  f :     0.010273
      f+1     :     0.001382
      f-1     :     0.001367
      f+2     :     0.000924
      f-2     :     0.002098
      f+3     :     0.001120
      f-3     :     0.001139
  3 N s       :     3.522922  s :     3.522922
      pz      :     0.999229  p :     3.685791
      px      :     1.342350
      py      :     1.344212
      dz2     :     0.016330  d :     0.066376
      dxz     :     0.017004
      dyz     :     0.017032
      dx2y2   :     0.009517
      dxy     :     0.006492
      f0      :     0.001024  f :     0.003863
      f+1     :     0.000744
      f-1     :     0.000766
      f+2     :     0.000646
      f-2     :     0.000449
      f+3     :     0.000115
      f-3     :     0.000120
  4 C s       :     3.180473  s :     3.180473
      pz      :     0.933446  p :     2.762094
      px      :     0.898340
      py      :     0.930308
      dz2     :     0.020462  d :     0.110616
      dxz     :     0.026723
      dyz     :     0.032278
      dx2y2   :     0.020582
      dxy     :     0.010570
      f0      :     0.002306  f :     0.010268
      f+1     :     0.001414
      f-1     :     0.001493
      f+2     :     0.000840
      f-2     :     0.002048
      f+3     :     0.001085
      f-3     :     0.001080
  5 C s       :     3.145922  s :     3.145922
      pz      :     0.966646  p :     2.874398
      px      :     0.957467
      py      :     0.950286
      dz2     :     0.021729  d :     0.089214
      dxz     :     0.021991
      dyz     :     0.017792
      dx2y2   :     0.015527
      dxy     :     0.012174
      f0      :     0.001488  f :     0.007249
      f+1     :     0.000994
      f-1     :     0.000700
      f+2     :     0.000485
      f-2     :     0.001465
      f+3     :     0.001051
      f-3     :     0.001067
  6 H s       :     0.813452  s :     0.813452
      pz      :     0.003683  p :     0.021950
      px      :     0.009216
      py      :     0.009051
  7 H s       :     0.823618  s :     0.823618
      pz      :     0.010867  p :     0.021445
      px      :     0.006120
      py      :     0.004458
  8 H s       :     0.823611  s :     0.823611
      pz      :     0.010345  p :     0.021433
      px      :     0.004578
      py      :     0.006510
  9 H s       :     0.814747  s :     0.814747
      pz      :     0.011654  p :     0.022214
      px      :     0.006015
      py      :     0.004545
 10 H s       :     0.814855  s :     0.814855
      pz      :     0.011278  p :     0.022220
      px      :     0.004734
      py      :     0.006209


                     *******************************
                     * LOEWDIN POPULATION ANALYSIS *
                     *******************************

----------------------
LOEWDIN ATOMIC CHARGES
----------------------
   0 C :   -0.117803
   1 C :   -0.149519
   2 C :   -0.217098
   3 N :    0.089434
   4 C :   -0.217312
   5 C :   -0.149369
   6 H :    0.158256
   7 H :    0.144642
   8 H :    0.144721
   9 H :    0.157013
  10 H :    0.157036

-------------------------------
LOEWDIN REDUCED ORBITAL CHARGES
-------------------------------
  0 C s       :     2.768639  s :     2.768639
      pz      :     1.067772  p :     2.910080
      px      :     0.920887
      py      :     0.921421
      dz2     :     0.140005  d :     0.394766
      dxz     :     0.089740
      dyz     :     0.090848
      dx2y2   :     0.015880
      dxy     :     0.058294
      f0      :     0.011915  f :     0.044318
      f+1     :     0.006124
      f-1     :     0.006476
      f+2     :     0.007898
      f-2     :     0.008284
      f+3     :     0.001771
      f-3     :     0.001849
  1 C s       :     2.770342  s :     2.770342
      pz      :     1.012106  p :     2.959054
      px      :     0.978254
      py      :     0.968694
      dz2     :     0.092509  d :     0.376780
      dxz     :     0.079427
      dyz     :     0.091858
      dx2y2   :     0.055427
      dxy     :     0.057559
      f0      :     0.010511  f :     0.043343
      f+1     :     0.005607
      f-1     :     0.005639
      f+2     :     0.002872
      f-2     :     0.008486
      f+3     :     0.004966
      f-3     :     0.005263
  2 C s       :     2.779657  s :     2.779657
      pz      :     0.965292  p :     2.879010
      px      :     0.955732
      py      :     0.957986
      dz2     :     0.115740  d :     0.496485
      dxz     :     0.124399
      dyz     :     0.112943
      dx2y2   :     0.072667
      dxy     :     0.070737
      f0      :     0.016055  f :     0.061946
      f+1     :     0.007743
      f-1     :     0.008795
      f+2     :     0.005660
      f-2     :     0.013294
      f+3     :     0.005574
      f-3     :     0.004824
  3 N s       :     3.043035  s :     3.043035
      pz      :     1.159439  p :     3.624934
      px      :     1.231038
      py      :     1.234457
      dz2     :     0.074853  d :     0.224154
      dxz     :     0.060804
      dyz     :     0.061246
      dx2y2   :     0.011754
      dxy     :     0.015496
      f0      :     0.004694  f :     0.018443
      f+1     :     0.002674
      f-1     :     0.002803
      f+2     :     0.003480
      f-2     :     0.003885
      f+3     :     0.000455
      f-3     :     0.000452
  4 C s       :     2.779672  s :     2.779672
      pz      :     0.965174  p :     2.879323
      px      :     0.956285
      py      :     0.957864
      dz2     :     0.111000  d :     0.496416
      dxz     :     0.117318
      dyz     :     0.132558
      dx2y2   :     0.069338
      dxy     :     0.066203
      f0      :     0.016460  f :     0.061902
      f+1     :     0.008981
      f-1     :     0.008526
      f+2     :     0.004963
      f-2     :     0.012839
      f+3     :     0.004800
      f-3     :     0.005333
  5 C s       :     2.770554  s :     2.770554
      pz      :     1.008855  p :     2.958973
      px      :     0.969388
      py      :     0.980730
      dz2     :     0.095504  d :     0.376543
      dxz     :     0.087832
      dyz     :     0.075619
      dx2y2   :     0.057636
      dxy     :     0.059951
      f0      :     0.010147  f :     0.043298
      f+1     :     0.005356
      f-1     :     0.005623
      f+2     :     0.003359
      f-2     :     0.008578
      f+3     :     0.005321
      f-3     :     0.004913
  6 H s       :     0.781823  s :     0.781823
      pz      :     0.010853  p :     0.059921
      px      :     0.024753
      py      :     0.024315
  7 H s       :     0.796275  s :     0.796275
      pz      :     0.029284  p :     0.059082
      px      :     0.017037
      py      :     0.012760
  8 H s       :     0.796236  s :     0.796236
      pz      :     0.027940  p :     0.059043
      px      :     0.013063
      py      :     0.018040
  9 H s       :     0.782095  s :     0.782095
      pz      :     0.031037  p :     0.060892
      px      :     0.016800
      py      :     0.013055
 10 H s       :     0.782064  s :     0.782064
      pz      :     0.030081  p :     0.060900
      px      :     0.013541
      py      :     0.017278


                      *****************************
                      * MAYER POPULATION ANALYSIS *
                      *****************************

  NA   - Mulliken gross atomic population
  ZA   - Total nuclear charge
  QA   - Mulliken gross atomic charge
  VA   - Mayer's total valence
  BVA  - Mayer's bonded valence
  FA   - Mayer's free valence

  ATOM       NA         ZA         QA         VA         BVA        FA
  0 C      6.1615     6.0000    -0.1615     4.0218     4.0218    -0.0000
  1 C      6.1166     6.0000    -0.1166     3.9133     3.9133     0.0000
  2 C      6.0631     6.0000    -0.0631     4.0594     4.0594     0.0000
  3 N      7.2790     7.0000    -0.2790     3.0586     3.0586     0.0000
  4 C      6.0635     6.0000    -0.0635     4.0599     4.0599     0.0000
  5 C      6.1168     6.0000    -0.1168     3.9126     3.9126     0.0000
  6 H      0.8354     1.0000     0.1646     0.9596     0.9596    -0.0000
  7 H      0.8451     1.0000     0.1549     0.9709     0.9709     0.0000
  8 H      0.8450     1.0000     0.1550     0.9709     0.9709     0.0000
  9 H      0.8370     1.0000     0.1630     0.9583     0.9583    -0.0000
 10 H      0.8371     1.0000     0.1629     0.9583     0.9583     0.0000

  Mayer bond orders larger than 0.100000
B(  0-C ,  1-C ) :   1.4487 B(  0-C ,  5-C ) :   1.4462 B(  0-C ,  6-H ) :   0.9551 
B(  1-C ,  2-C ) :   1.4367 B(  1-C , 10-H ) :   0.9472 B(  2-C ,  3-N ) :   1.4836 
B(  2-C ,  7-H ) :   0.9559 B(  3-N ,  4-C ) :   1.4823 B(  4-C ,  5-C ) :   1.4387 
B(  4-C ,  8-H ) :   0.9559 B(  5-C ,  9-H ) :   0.9472 

-------
TIMINGS
-------

Total SCF time: 0 days 0 hours 0 min 14 sec 

Total time                  ....      14.781 sec
Sum of individual times     ....      13.849 sec  ( 93.7%)

Fock matrix formation       ....      12.294 sec  ( 83.2%)
  Split-RI-J                ....       1.345 sec  ( 10.9% of F)
  Chain of spheres X        ....       4.330 sec  ( 35.2% of F)
  XC integration            ....       2.805 sec  ( 22.8% of F)
    Basis function eval.    ....       0.197 sec  (  7.0% of XC)
    Density eval.           ....       0.176 sec  (  6.3% of XC)
    XC-Functional eval.     ....       0.045 sec  (  1.6% of XC)
    XC-Potential eval.      ....       0.230 sec  (  8.2% of XC)
Diagonalization             ....       0.197 sec  (  1.3%)
Density matrix formation    ....       0.016 sec  (  0.1%)
Population analysis         ....       0.071 sec  (  0.5%)
Initial guess               ....       0.156 sec  (  1.1%)
Orbital Transformation      ....       0.000 sec  (  0.0%)
Orbital Orthonormalization  ....       0.000 sec  (  0.0%)
DIIS solution               ....       0.150 sec  (  1.0%)
SOSCF solution              ....       0.124 sec  (  0.8%)
Grid generation             ....       0.840 sec  (  5.7%)

Maximum memory used throughout the entire SCF-calculation: 68.1 MB


-------------------------------------------------------------------------------
                          DFT DISPERSION CORRECTION                            
                                                                               
                              DFTD3 V3.1  Rev 1                                
                          USING Becke-Johnson damping                          
-------------------------------------------------------------------------------
The PBE0 functional is recognized
Active option DFTDOPT                   ...         4   

molecular C6(AA) [au] = 1464.171188 


            DFT-D V3
 parameters
 s6 scaling factor         :     1.0000 
 a1 scaling factor         :     0.4145 
 s8 scaling factor         :     1.2177 
 a2 scaling factor         :     4.8593 
 ad hoc parameters k1-k3   :    16.0000     1.3333    -4.0000 

 Edisp/kcal,au: -5.311015364836  -0.008463640818 
 E6   /kcal   :  -3.304271389 
 E8   /kcal   :  -2.006743976 
 % E8         :  37.784563549 

-------------------------   ----------------
Dispersion correction           -0.008463641
-------------------------   ----------------


-------------------------   --------------------
FINAL SINGLE POINT ENERGY      -248.091963121562
-------------------------   --------------------



           ************************************************************
           *        Program running with 24 parallel MPI-processes    *
           *              working on a common directory               *
           ************************************************************
------------------------------------------------------------------------------
                         ORCA SCF GRADIENT CALCULATION
------------------------------------------------------------------------------

 ... reading COSX grid (gridx3)
Gradient of the Kohn-Sham DFT energy:
Kohn-Sham wavefunction type      ... RKS
Hartree-Fock exchange scaling    ...    0.250
Number of operators              ...    1
Number of atoms                  ...   11
Basis set dimensions             ...  216
Integral neglect threshold       ... 2.5e-11
Integral primitive cutoff        ... 2.5e-12
SHARK Integral package           ... ON

Nuc. rep. gradient       (SHARK) ... done (  0.0 sec)
HCore & Overlap gradient (SHARK) ... done (  0.0 sec)
RI-J gradient            (SHARK) ... done (  0.3 sec)
COSX-gradient                    ... done (  0.9 sec)
Exchange-correlation gradient    ... done
Dispersion correction            ... done

------------------
CARTESIAN GRADIENT
------------------

   1   C   :    0.000427600    0.000077249    0.000551578
   2   C   :    0.000053664    0.000164955   -0.000826888
   3   C   :    0.000218620    0.000643692    0.000630745
   4   N   :   -0.000536816    0.000681247    0.000340401
   5   C   :   -0.000172189    0.000141753   -0.000529725
   6   C   :    0.000600274   -0.000156930    0.000056634
   7   H   :   -0.000205899   -0.000238038    0.000047965
   8   H   :   -0.000041299   -0.000630697   -0.000389387
   9   H   :   -0.000066890   -0.000287849    0.000133795
  10   H   :   -0.000066267   -0.000123350    0.000060089
  11   H   :   -0.000102348   -0.000279524   -0.000069147

Difference to translation invariance:
           :    0.0001084521   -0.0000074923    0.0000060584

Difference to rotation invariance:
           :    0.0000160519   -0.0002611480   -0.0004143732

Norm of the cartesian gradient     ...    0.0021278669
RMS gradient                       ...    0.0003704141
MAX gradient                       ...    0.0008268885

-------
TIMINGS
-------

Total SCF gradient time            ...        2.535 sec

One electron gradient       ....       0.022 sec  (  0.9%)
RI-J Coulomb gradient       ....       0.272 sec  ( 10.7%)
COSX gradient               ....       0.896 sec  ( 35.4%)
XC gradient                 ....       0.434 sec  ( 17.1%)
CPCM gradient               ....       0.134 sec  (  5.3%)
   A-Matrix (El+Nuc)        ....       0.039 sec  (  1.5%)
   Potential                ....       0.095 sec  (  3.8%)

Maximum memory used throughout the entire SCFGRAD-calculation: 42.2 MB
------------------------------------------------------------------------------
                         ORCA GEOMETRY RELAXATION STEP
------------------------------------------------------------------------------

Reading the OPT-File                    .... done
Getting information on internals        .... done
Copying old internal coords+grads       .... done
Making the new internal coordinates     .... (new redundants).... done
Validating the new internal coordinates .... (new redundants).... done
Calculating the B-matrix                .... done
Calculating the G,G- and P matrices     .... done
Transforming gradient to internals      .... done
Projecting the internal gradient        .... done
Number of atoms                         ....  11
Number of internal coordinates          ....  47
Current Energy                          ....  -248.091963122 Eh
Current gradient norm                   ....     0.002127867 Eh/bohr
Maximum allowed component of the step   ....  0.200
Current trust radius                    ....  0.300
Evaluating the initial hessian          ....  (Almloef) done
Projecting the Hessian                  .... done
Forming the augmented Hessian           .... done
Diagonalizing the augmented Hessian     .... done
Last element of RFO vector              ....  0.999605359
Lowest eigenvalues of augmented Hessian:
 -0.000028824  0.027792943  0.027844346  0.027866676  0.027926320
Length of the computed step             ....  0.028102496
The final length of the internal step   ....  0.028102496
Converting the step to cartesian space:
 Initial RMS(Int)=    0.0040991703
Transforming coordinates:
 Iter   0:  RMS(Cart)=    0.0044456257 RMS(Int)=    2.0466241317
 Iter   1:  RMS(Cart)=    0.0000229975 RMS(Int)=    0.0000199578
 Iter   2:  RMS(Cart)=    0.0000001485 RMS(Int)=    0.0000001374
 Iter   3:  RMS(Cart)=    0.0000000015 RMS(Int)=    0.0000000014
done
Storing new coordinates                 .... done

                                .--------------------.
          ----------------------|Geometry convergence|-------------------------
          Item                value                   Tolerance       Converged
          ---------------------------------------------------------------------
          RMS gradient        0.0002665952            0.0000300000      NO
          MAX gradient        0.0007947870            0.0001000000      NO
          RMS step            0.0040991703            0.0006000000      NO
          MAX step            0.0106762651            0.0010000000      NO
          ........................................................
          Max(Bonds)      0.0005      Max(Angles)    0.12
          Max(Dihed)        0.61      Max(Improp)    0.00
          ---------------------------------------------------------------------

The optimization has not yet converged - more geometry cycles are needed


    ---------------------------------------------------------------------------
                         Redundant Internal Coordinates
                            (Angstroem and degrees)

        Definition                    Value    dE/dq     Step     New-Value
    ----------------------------------------------------------------------------
     1. B(C   1,C   0)                1.3854 -0.000491  0.0004    1.3858   
     2. B(C   2,C   1)                1.3868 -0.000327  0.0003    1.3871   
     3. B(N   3,C   2)                1.3317 -0.000437  0.0003    1.3321   
     4. B(C   4,N   3)                1.3321 -0.000131  0.0001    1.3322   
     5. B(C   5,C   4)                1.3865 -0.000547  0.0005    1.3869   
     6. B(C   5,C   0)                1.3865  0.000181 -0.0002    1.3864   
     7. B(H   6,C   0)                1.0841 -0.000014  0.0000    1.0841   
     8. B(H   7,C   2)                1.0861 -0.000184  0.0003    1.0864   
     9. B(H   8,C   4)                1.0864  0.000014 -0.0000    1.0864   
    10. B(H   9,C   5)                1.0832 -0.000045  0.0001    1.0833   
    11. B(H  10,C   1)                1.0831 -0.000158  0.0002    1.0833   
    12. A(C   5,C   0,H   6)          120.68 -0.000065    0.01    120.69   
    13. A(C   1,C   0,H   6)          120.70 -0.000052    0.01    120.71   
    14. A(C   1,C   0,C   5)          118.62  0.000116   -0.02    118.60   
    15. A(C   0,C   1,C   2)          118.52  0.000057   -0.01    118.51   
    16. A(C   2,C   1,H  10)          120.13 -0.000080    0.01    120.15   
    17. A(C   0,C   1,H  10)          121.35  0.000021   -0.00    121.35   
    18. A(C   1,C   2,N   3)          123.41 -0.000367    0.05    123.46   
    19. A(N   3,C   2,H   7)          116.13 -0.000431    0.08    116.21   
    20. A(C   1,C   2,H   7)          120.46  0.000795   -0.12    120.34   
    21. A(C   2,N   3,C   4)          117.55  0.000632   -0.08    117.47   
    22. A(C   5,C   4,H   8)          120.29  0.000386   -0.06    120.23   
    23. A(N   3,C   4,H   8)          116.31  0.000038    0.00    116.31   
    24. A(N   3,C   4,C   5)          123.41 -0.000425    0.06    123.47   
    25. A(C   4,C   5,H   9)          120.17 -0.000006    0.00    120.18   
    26. A(C   0,C   5,H   9)          121.33  0.000018   -0.00    121.33   
    27. A(C   0,C   5,C   4)          118.49 -0.000013   -0.00    118.49   
    28. D(C   2,C   1,C   0,H   6)    179.51 -0.000225    0.46    179.97   
    29. D(H  10,C   1,C   0,C   5)   -179.53  0.000250   -0.48   -180.01   
    30. D(H  10,C   1,C   0,H   6)     -0.02  0.000007   -0.01     -0.02   
    31. D(C   2,C   1,C   0,C   5)     -0.00  0.000018   -0.02     -0.02   
    32. D(N   3,C   2,C   1,H  10)    179.41 -0.000282    0.57    179.98   
    33. D(H   7,C   2,C   1,C   0)   -179.52  0.000324   -0.61   -180.13   
    34. D(N   3,C   2,C   1,C   0)     -0.12 -0.000054    0.11     -0.01   
    35. D(H   7,C   2,C   1,H  10)      0.02  0.000096   -0.15     -0.13   
    36. D(C   4,N   3,C   2,H   7)    179.51 -0.000322    0.60    180.10   
    37. D(C   4,N   3,C   2,C   1)      0.09  0.000034   -0.10     -0.01   
    38. D(H   8,C   4,N   3,C   2)   -179.59  0.000218   -0.40   -179.99   
    39. D(C   5,C   4,N   3,C   2)      0.07  0.000021   -0.01      0.06   
    40. D(H   9,C   5,C   0,C   1)    179.68 -0.000189    0.36    180.05   
    41. D(C   4,C   5,C   0,H   6)   -179.37  0.000276   -0.56   -179.93   
    42. D(C   4,C   5,C   0,C   1)      0.15  0.000033   -0.08      0.06   
    43. D(H   9,C   5,C   4,H   8)     -0.08 -0.000041    0.06     -0.02   
    44. D(H   9,C   5,C   4,N   3)   -179.73  0.000165   -0.34   -180.07   
    45. D(C   0,C   5,C   4,H   8)    179.46 -0.000260    0.50    179.96   
    46. D(C   0,C   5,C   4,N   3)     -0.19 -0.000054    0.10     -0.09   
    47. D(H   9,C   5,C   0,H   6)      0.17  0.000054   -0.11      0.06   
    ----------------------------------------------------------------------------

         *************************************************************
         *                GEOMETRY OPTIMIZATION CYCLE   2            *
         *************************************************************
---------------------------------
CARTESIAN COORDINATES (ANGSTROEM)
---------------------------------
  C     -0.347708    3.797899   -0.797910
  C      0.277998    3.464180    0.392757
  C      1.252518    2.477247    0.374577
  N      1.621379    1.829634   -0.729497
  C      1.012374    2.159032   -1.867652
  C      0.027515    3.131681   -1.954352
  H     -1.114605    4.563665   -0.824641
  H      1.763434    2.193706    1.290474
  H      1.327610    1.619095   -2.756136
  H     -0.431977    3.357810   -2.908941
  H      0.019586    3.956542    1.322465

----------------------------
CARTESIAN COORDINATES (A.U.)
----------------------------
  NO LB      ZA    FRAG     MASS         X           Y           Z
   0 C     6.0000    0    12.011   -0.657073    7.176989   -1.507831
   1 C     6.0000    0    12.011    0.525340    6.546352    0.742204
   2 C     6.0000    0    12.011    2.366916    4.681318    0.707848
   3 N     7.0000    0    14.007    3.063963    3.457507   -1.378549
   4 C     6.0000    0    12.011    1.913109    4.079979   -3.529350
   5 C     6.0000    0    12.011    0.051995    5.918020   -3.693190
   6 H     1.0000    0     1.008   -2.106298    8.624078   -1.558346
   7 H     1.0000    0     1.008    3.332407    4.145504    2.438642
   8 H     1.0000    0     1.008    2.508820    3.059646   -5.208343
   9 H     1.0000    0     1.008   -0.816318    6.345340   -5.497102
  10 H     1.0000    0     1.008    0.037013    7.476780    2.499096

--------------------------------
INTERNAL COORDINATES (ANGSTROEM)
--------------------------------
 C      0   0   0     0.000000000000     0.00000000     0.00000000
 C      1   0   0     1.385844472932     0.00000000     0.00000000
 C      2   1   0     1.387104005934   118.50770881     0.00000000
 N      3   2   1     1.332081278715   123.45733262     0.00000000
 C      4   3   2     1.332211449849   117.47164837     0.00000000
 C      1   2   3     1.386360580454   118.60436241     0.00000000
 H      1   2   3     1.084086747542   120.70903284   179.97181884
 H      3   2   1     1.086414455225   120.33408352   179.87244986
 H      5   4   3     1.086421095485   116.30541497   180.00962783
 H      6   1   2     1.083285290089   121.32851462   180.04499786
 H      2   1   3     1.083306016512   121.34562075   180.00346389

---------------------------
INTERNAL COORDINATES (A.U.)
---------------------------
 C      0   0   0     0.000000000000     0.00000000     0.00000000
 C      1   0   0     2.618866518049     0.00000000     0.00000000
 C      2   1   0     2.621246690481   118.50770881     0.00000000
 N      3   2   1     2.517268804895   123.45733262     0.00000000
 C      4   3   2     2.517514792689   117.47164837     0.00000000
 C      1   2   3     2.619841819922   118.60436241     0.00000000
 H      1   2   3     2.048627058267   120.70903284   179.97181884
 H      3   2   1     2.053025788308   120.33408352   179.87244986
 H      5   4   3     2.053038336580   116.30541497   180.00962783
 H      6   1   2     2.047112523173   121.32851462   180.04499786
 H      2   1   3     2.047151690437   121.34562075   180.00346389



           ************************************************************
           *        Program running with 24 parallel MPI-processes    *
           *              working on a common directory               *
           ************************************************************
------------------------------------------------------------------------------
                   ___                                                        
                  /   \      - P O W E R E D   B Y -                         
                 /     \                                                     
                 |  |  |   _    _      __       _____    __    __             
                 |  |  |  | |  | |    /  \     |  _  \  |  |  /  |          
                  \  \/   | |  | |   /    \    | | | |  |  | /  /          
                 / \  \   | |__| |  /  /\  \   | |_| |  |  |/  /          
                |  |  |   |  __  | /  /__\  \  |    /   |      \           
                |  |  |   | |  | | |   __   |  |    \   |  |\   \          
                \     /   | |  | | |  |  |  |  | |\  \  |  | \   \       
                 \___/    |_|  |_| |__|  |__|  |_| \__\ |__|  \__/        
                                                                              
                      - O R C A' S   B I G   F R I E N D -                    
                                      &                                       
                       - I N T E G R A L  F E E D E R -                       
                                                                              
 v1 FN, 2020, v2 2021                                                         
------------------------------------------------------------------------------


Reading SHARK input file pyridine/pyridine.SHARKINP.tmp ... ok
----------------------
SHARK INTEGRAL PACKAGE
----------------------

Number of atoms                             ...     11
Number of basis functions                   ...    216
Number of shells                            ...     86
Maximum angular momentum                    ...      3
Integral batch strategy                     ... SHARK/LIBINT Hybrid
RI-J (if used) integral strategy            ... SPLIT-RIJ (Revised 2003 algorithm where possible)
Printlevel                                  ...      1
Contraction scheme used                     ... SEGMENTED contraction
Coulomb Range Separation                    ... NOT USED
Exchange Range Separation                   ... NOT USED
Finite Nucleus Model                        ... NOT USED
Auxiliary Coulomb fitting basis             ... AVAILABLE
   # of basis functions in Aux-J            ...    349
   # of shells in Aux-J                     ...    115
   Maximum angular momentum in Aux-J        ...      4
Auxiliary J/K fitting basis                 ... NOT available
[...]
     23       0.089386   0.039466   0.029738   0.281385  -0.081148  -0.012357
     24       0.359495  -0.160205   0.191166  -0.076484   0.328029   0.049649
     25       0.356464  -0.158972  -0.195746   0.142093   0.325083   0.049100
     26      -0.089104   0.039666  -0.015959   0.274256  -0.080930  -0.012324
     27      -0.284908  -0.219782  -0.206632  -0.067223   0.245259  -0.449451
     28      -0.282547  -0.218112   0.189639  -0.019258   0.243525  -0.445781
     29       0.070419   0.054342  -0.078084  -0.338654  -0.060828   0.111016
     30       0.284208  -0.221056  -0.191699  -0.007156   0.244926  -0.448771
     31       0.282048  -0.219195   0.209685  -0.079106   0.242957  -0.445501
     32      -0.070391   0.054752   0.063310  -0.336773  -0.060961   0.111339
                 12         13         14         15         16         17    
      0      -0.000080   0.059498  -0.002875  -0.058266   0.082311   0.264868
      1       0.000137   0.059145   0.002376   0.058197   0.081619  -0.264565
      2      -0.000001  -0.014697  -0.000004  -0.002182  -0.020354   0.009427
      3       0.059812   0.019602  -0.052412   0.128996  -0.059211   0.001986
      4       0.059309   0.019432  -0.065225  -0.186000  -0.058774  -0.024996
      5      -0.014949  -0.004905   0.001078  -0.317591   0.014585  -0.092573
      6       0.041912  -0.071391   0.085154   0.013390   0.020016  -0.161912
      7       0.041460  -0.071015   0.081796  -0.048278   0.019877   0.106168
      8      -0.010320   0.017762  -0.021010  -0.002324  -0.004933  -0.228899
      9      -0.000045   0.018542  -0.012992  -0.308468   0.003790   0.024046
     10       0.000035   0.018458   0.012997   0.308274   0.003733  -0.023875
     11       0.000052  -0.004565  -0.000448  -0.010723  -0.000905   0.001128
     12      -0.041715  -0.071632  -0.082619   0.047880   0.019670  -0.113985
     13      -0.041458  -0.070961  -0.084582  -0.012703   0.019459   0.169169
     14       0.010263   0.017718   0.021071   0.004555  -0.004931   0.218975
     15      -0.059842   0.019581   0.065556   0.175127  -0.058878   0.021644
     16      -0.059376   0.019395   0.052724  -0.118080  -0.058375   0.001394
     17       0.014874  -0.004891  -0.000682   0.328375   0.014638   0.092954
     18      -0.000339  -0.370413  -0.000843  -0.049698  -0.465423   0.283227
     19      -0.000113  -0.367354   0.003703   0.049372  -0.461801  -0.282948
     20       0.000063   0.091688  -0.000357  -0.002816   0.114573   0.011553
     21      -0.249516   0.401852  -0.411724   0.140654  -0.145913  -0.329092
     22      -0.247924   0.398870  -0.414662   0.011406  -0.144719   0.305619
     23       0.062108  -0.099852   0.101198  -0.062651   0.036358  -0.095579
     24       0.249235   0.402625   0.418672  -0.015195  -0.144193  -0.306813
     25       0.246673   0.398817   0.409271  -0.137657  -0.142906   0.330918
     26      -0.061640  -0.099551  -0.100910   0.066498   0.035622   0.074061
     27       0.420648  -0.081406  -0.235704   0.350819   0.327166  -0.047708
     28       0.417470  -0.081097  -0.257099  -0.192543   0.325502   0.090727
     29      -0.103759   0.019970   0.071970   0.246713  -0.080484   0.172913
     30      -0.420430  -0.081946   0.257578   0.200201   0.329143  -0.083924
     31      -0.417460  -0.081373   0.232034  -0.357804   0.326707   0.040314
     32       0.104084   0.020259  -0.071063  -0.227829  -0.081633  -0.177227
                 18         19         20         21         22         23    
      0      -0.008095   0.027136  -0.006966   0.006876  -0.028220   0.008453
      1      -0.011420  -0.027142  -0.009337  -0.006866  -0.037669   0.011305
      2      -0.078448   0.001081  -0.065358   0.000229  -0.266160   0.079608
      3      -0.042908  -0.031607   0.026178   0.021409   0.181715   0.022409
      4       0.059698   0.006031  -0.021592  -0.022163  -0.145232  -0.019021
      5       0.066442  -0.103491   0.019154  -0.002407   0.151618   0.014179
      6       0.080628   0.029221   0.001012  -0.017619  -0.179677   0.033146
      7      -0.066366  -0.002021   0.002664   0.040802   0.231083  -0.039300
      8       0.059028   0.109362   0.014936   0.092003   0.199631  -0.023704
      9      -0.008209   0.042440   0.000792   0.019598  -0.043148  -0.005385
     10      -0.011523  -0.042465   0.001045  -0.019678  -0.056842  -0.006943
     11      -0.079035   0.001518   0.007366   0.000460  -0.400808  -0.049435
     12      -0.068670   0.006119   0.002089  -0.037688   0.223843  -0.038245
     13       0.082757  -0.033375   0.001548   0.014509  -0.172268   0.032164
     14       0.053875  -0.108257   0.014967  -0.093807   0.214163  -0.025838
     15       0.057173  -0.009761  -0.022184   0.022090  -0.150453  -0.019526
     16      -0.040311   0.035463   0.026834  -0.021308   0.186644   0.022811
     17       0.070180   0.101823   0.017500   0.004012   0.140342   0.012585
     18      -0.057632   0.032802  -0.073545   0.007743   0.039543  -0.036348
     19      -0.077048  -0.032022  -0.097501  -0.007768   0.052138  -0.047946
     20      -0.542976   0.002175  -0.690420   0.000363   0.373687  -0.339675
     21       0.265314  -0.037665  -0.042449  -0.295238  -0.089360  -0.310146
     22      -0.293922   0.082531   0.057224   0.387509   0.111169   0.388428
     23      -0.107701   0.177201   0.056863   0.360023   0.083644   0.304127
     24      -0.290433  -0.074738   0.054938  -0.373718   0.109845   0.377918
     25       0.261729   0.030699  -0.040030   0.281621  -0.086950  -0.299396
     26      -0.127225  -0.180634   0.059942  -0.382286   0.092239   0.328537
     27       0.256910  -0.341641  -0.282575   0.208538   0.170268   0.173106
     28      -0.276324   0.432705   0.338576  -0.244552  -0.197153  -0.208033
     29      -0.071166   0.359329   0.217924  -0.138245  -0.102933  -0.134916
     30      -0.276091  -0.420044   0.331084   0.239106  -0.193226  -0.204035
     31       0.255434   0.326918  -0.274193  -0.202627   0.165242   0.168586
     32      -0.091178  -0.385341   0.239055   0.153401  -0.115137  -0.148303
                 24         25         26         27         28         29    
      0      -0.009354  -0.067341   0.044414   0.115628   0.000077  -0.003788
      1      -0.012245   0.067250   0.059864  -0.115241   0.000004   0.003788
      2      -0.086919  -0.002515   0.419901   0.005287   0.000333  -0.000125
      3      -0.108420   0.074395  -0.084501  -0.220284  -0.000644   0.001621
      4       0.107581  -0.048083   0.028399   0.200652   0.002746  -0.004535
      5      -0.006477   0.107623  -0.227575  -0.085262   0.008390  -0.011612
      6       0.075799   0.047707  -0.056091   0.191116  -0.029891   0.028386
      7      -0.060616  -0.075263   0.103160  -0.211985   0.017644  -0.016125
      8       0.062682  -0.108664   0.186194  -0.077851  -0.049777   0.049783
      9      -0.015239  -0.059104  -0.025054  -0.090440  -0.000011  -0.000267
     10      -0.020064   0.059103  -0.033726   0.090205  -0.000019   0.000265
     11      -0.141498  -0.001940  -0.235564  -0.003916  -0.000132  -0.000011
     12      -0.062636   0.071578   0.095207   0.209736   0.018879   0.018376
     13       0.077762  -0.044023  -0.048246  -0.188316  -0.030726  -0.030903
     14       0.058172   0.112762   0.191103   0.092980  -0.046736  -0.049477
     15       0.107797   0.051685   0.037826  -0.203164   0.002353   0.004206
     16      -0.108500  -0.077824  -0.093996   0.222139  -0.000328  -0.001231
     17       0.000836  -0.103095  -0.224009   0.069232   0.008203   0.012066
     18       0.058000  -0.082941  -0.056489   0.131240  -0.000626   0.046960
     19       0.076877   0.082982  -0.073481  -0.131626   0.000387  -0.046933
     20       0.543289  -0.002658  -0.524384   0.002867  -0.000955   0.001596
     21      -0.140585  -0.301520   0.184318  -0.149726   0.333029  -0.318686
     22       0.214041   0.358188  -0.198682   0.220632  -0.187209   0.178874
     23       0.289170   0.217951  -0.053258   0.279157   0.592091  -0.567650
     24       0.204075  -0.351212  -0.195761  -0.212365  -0.202293  -0.204197
     25      -0.130490   0.294177   0.181683   0.141334   0.343546   0.347227
     26       0.301544  -0.241569  -0.064734  -0.292380   0.558158   0.565174
     27      -0.179095  -0.267409  -0.159640   0.164130  -0.045875  -0.066371
     28       0.240469   0.301221   0.134729  -0.221976   0.021570   0.031346
     29       0.240649   0.127004  -0.105487  -0.226927  -0.099087  -0.142828
     30       0.231398  -0.296900   0.136553   0.214911   0.025846  -0.035466
     31      -0.169534   0.262473  -0.161625  -0.156628  -0.051011   0.069748
     32       0.254456  -0.146588  -0.097010   0.239435  -0.100036   0.136291
                 30         31         32    
      0       0.051733   0.000299  -0.034159
      1      -0.051701   0.000816   0.034135
      2       0.001786   0.004488  -0.001189
      3      -0.008937   0.015194  -0.011776
      4       0.015014  -0.028339   0.023553
      5       0.024073  -0.052222   0.046839
      6       0.005713  -0.006501   0.006577
      7      -0.003463   0.004560  -0.004576
      8       0.009156  -0.007944   0.008180
      9       0.000025   0.000087  -0.000001
     10      -0.000025   0.000116   0.000000
     11       0.000002   0.000817  -0.000002
     12       0.003808   0.004862   0.004837
     13      -0.006059  -0.006804  -0.006818
     14      -0.008877  -0.007592  -0.007753
     15      -0.014239  -0.026586  -0.021747
     16       0.008122   0.013388   0.010048
     17      -0.025029  -0.053878  -0.047688
     18      -0.598118   0.001539   0.368392
     19       0.597756  -0.002609  -0.368168
     20      -0.020602  -0.004240   0.012703
     21      -0.057071   0.053657  -0.053333
     22       0.032250  -0.031155   0.031024
     23      -0.100789   0.091421  -0.090617
     24      -0.035980  -0.034538  -0.034040
     25       0.060832   0.057054   0.056150
     26       0.098175   0.088878   0.087242
     27       0.151456   0.296509   0.248881
     28      -0.075504  -0.146203  -0.121779
     29       0.309974   0.613323   0.518554
     30       0.085645  -0.166667   0.140565
     31      -0.161167   0.316464  -0.268582
     32      -0.300007   0.595153  -0.508668


-----------
IR SPECTRUM
-----------

 Mode   freq       eps      Int      T**2         TX        TY        TZ
       cm**-1   L/(mol*cm) km/mol    a.u.
----------------------------------------------------------------------------
  6:    384.45   0.000000    0.00  0.000000  (-0.000055 -0.000047 -0.000034)
  7:    415.30   0.001264    6.39  0.000950  (-0.021559 -0.021359  0.005349)
  8:    613.11   0.001378    6.97  0.000702  ( 0.018745 -0.018700  0.000661)
  9:    664.31   0.000076    0.38  0.000036  ( 0.000541  0.000694  0.005912)
 10:    719.89   0.022863  115.54  0.009911  ( 0.069543  0.069024 -0.017615)
 11:    774.91   0.002240   11.32  0.000902  (-0.020942 -0.020857  0.005327)
 12:    907.20   0.000000    0.00  0.000000  (-0.000058  0.000063  0.000098)
 13:    974.56   0.000005    0.03  0.000002  ( 0.000847  0.000831 -0.000432)
 14:   1020.59   0.000032    0.16  0.000010  ( 0.002233 -0.002211  0.000110)
 15:   1021.52   0.003037   15.35  0.000928  ( 0.021540 -0.021527  0.000715)
 16:   1036.99   0.000004    0.02  0.000001  ( 0.000783  0.000706 -0.000418)
 17:   1057.27   0.001273    6.44  0.000376  (-0.013712  0.013699 -0.000443)
 18:   1086.49   0.000078    0.39  0.000022  (-0.000603 -0.000406 -0.004663)
 19:   1096.87   0.002752   13.91  0.000783  (-0.019785  0.019775 -0.000628)
 20:   1161.09   0.000951    4.81  0.000256  (-0.001797 -0.002090 -0.015751)
 21:   1238.58   0.001363    6.89  0.000343  (-0.013089  0.013107 -0.000435)
 22:   1315.23   0.000114    0.57  0.000027  (-0.000474 -0.000755 -0.005117)
 23:   1382.43   0.000083    0.42  0.000019  ( 0.000364  0.000651  0.004266)
 24:   1476.80   0.011559   58.42  0.002443  ( 0.005381  0.006844  0.048650)
 25:   1521.17   0.001163    5.88  0.000239  (-0.010894  0.010948 -0.000249)
 26:   1640.40   0.003389   17.13  0.000645  ( 0.002496  0.003689  0.024998)
 27:   1651.54   0.010817   54.66  0.002044  ( 0.031979 -0.031932  0.001215)
 28:   3170.45   0.007293   36.85  0.000718  (-0.002924 -0.003662 -0.026379)
 29:   3173.63   0.001139    5.75  0.000112  ( 0.007434 -0.007530 -0.000137)
 30:   3199.04   0.000854    4.31  0.000083  ( 0.006446 -0.006458  0.000142)
 31:   3214.48   0.003129   15.81  0.000304  (-0.001882 -0.002432 -0.017156)
 32:   3220.92   0.000562    2.84  0.000054  (-0.005216  0.005218 -0.000147)

* The epsilon (eps) is given for a Dirac delta lineshape.
** The dipole moment derivative (T) already includes vibrational overlap.

The first frequency considered to be a vibration is 6
The total number of vibrations considered is 27


--------------------------
THERMOCHEMISTRY AT 298.15K
--------------------------

Temperature         ... 298.15 K
Pressure            ... 1.00 atm
Total Mass          ... 79.10 AMU

Throughout the following assumptions are being made:
  (1) The electronic state is orbitally nondegenerate
  (2) There are no thermally accessible electronically excited states
  (3) Hindered rotations indicated by low frequency modes are not
      treated as such but are treated as vibrations and this may
      cause some error
  (4) All equations used are the standard statistical mechanics
      equations for an ideal gas
  (5) All vibrations are strictly harmonic

freq.     384.45  E(vib)   ...       0.20 
freq.     415.30  E(vib)   ...       0.18 
freq.     613.11  E(vib)   ...       0.10 
freq.     664.31  E(vib)   ...       0.08 
freq.     719.89  E(vib)   ...       0.07 
freq.     774.91  E(vib)   ...       0.05 
freq.     907.20  E(vib)   ...       0.03 
freq.     974.56  E(vib)   ...       0.03 
freq.    1020.59  E(vib)   ...       0.02 
freq.    1021.52  E(vib)   ...       0.02 
freq.    1036.99  E(vib)   ...       0.02 
freq.    1057.27  E(vib)   ...       0.02 
freq.    1086.49  E(vib)   ...       0.02 
freq.    1096.87  E(vib)   ...       0.02 
freq.    1161.09  E(vib)   ...       0.01 
freq.    1238.58  E(vib)   ...       0.01 
freq.    1315.23  E(vib)   ...       0.01 
freq.    1382.43  E(vib)   ...       0.01 
freq.    1476.80  E(vib)   ...       0.00 
freq.    1521.17  E(vib)   ...       0.00 
freq.    1640.40  E(vib)   ...       0.00 
freq.    1651.54  E(vib)   ...       0.00 
freq.    3170.45  E(vib)   ...       0.00 
freq.    3173.63  E(vib)   ...       0.00 
freq.    3199.04  E(vib)   ...       0.00 
freq.    3214.48  E(vib)   ...       0.00 
freq.    3220.92  E(vib)   ...       0.00 

------------
INNER ENERGY
------------

The inner energy is: U= E(el) + E(ZPE) + E(vib) + E(rot) + E(trans)
    E(el)   - is the total energy from the electronic structure calculation
              = E(kin-el) + E(nuc-el) + E(el-el) + E(nuc-nuc)
    E(ZPE)  - the the zero temperature vibrational energy from the frequency calculation
    E(vib)  - the the finite temperature correction to E(ZPE) due to population
              of excited vibrational states
    E(rot)  - is the rotational thermal energy
    E(trans)- is the translational thermal energy

Summary of contributions to the inner energy U:
Electronic energy                ...   -248.09198023 Eh
Zero point energy                ...      0.08916569 Eh      55.95 kcal/mol
Thermal vibrational correction   ...      0.00143303 Eh       0.90 kcal/mol
Thermal rotational correction    ...      0.00141627 Eh       0.89 kcal/mol
Thermal translational correction ...      0.00141627 Eh       0.89 kcal/mol
-----------------------------------------------------------------------
Total thermal energy                   -247.99854897 Eh


Summary of corrections to the electronic energy:
(perhaps to be used in another calculation)
Total thermal correction                  0.00426557 Eh       2.68 kcal/mol
Non-thermal (ZPE) correction              0.08916569 Eh      55.95 kcal/mol
-----------------------------------------------------------------------
Total correction                          0.09343126 Eh      58.63 kcal/mol


--------
ENTHALPY
--------

The enthalpy is H = U + kB*T
                kB is Boltzmann's constant
Total free energy                 ...   -247.99854897 Eh 
Thermal Enthalpy correction       ...      0.00094421 Eh       0.59 kcal/mol
-----------------------------------------------------------------------
Total Enthalpy                    ...   -247.99760476 Eh


Note: Only C1 symmetry has been detected, increase convergence thresholds 
      if your molecule has a higher symmetry. Symmetry factor of 1.0 is   
      used for the rotational entropy correction. 
 

Note: Rotational entropy computed according to Herzberg 
Infrared and Raman Spectra, Chapter V,1, Van Nostrand Reinhold, 1945 
Point Group:  C1, Symmetry Number:   1  
Rotational constants in cm-1:     0.202936     0.196163     0.099746 

Vibrational entropy computed according to the QRRHO of S. Grimme
Chem.Eur.J. 2012 18 9955


-------
ENTROPY
-------

The entropy contributions are T*S = T*(S(el)+S(vib)+S(rot)+S(trans))
     S(el)   - electronic entropy
     S(vib)  - vibrational entropy
     S(rot)  - rotational entropy
     S(trans)- translational entropy
The entropies will be listed as multiplied by the temperature to get
units of energy

Electronic entropy                ...      0.00000000 Eh      0.00 kcal/mol
Vibrational entropy               ...      0.00194170 Eh      1.22 kcal/mol
Rotational entropy                ...      0.01212091 Eh      7.61 kcal/mol
Translational entropy             ...      0.01853922 Eh     11.63 kcal/mol
-----------------------------------------------------------------------
Final entropy term                ...      0.03260183 Eh     20.46 kcal/mol

In case the symmetry of your molecule has not been determined correctly
or in case you have a reason to use a different symmetry number we print 
out the resulting rotational entropy values for sn=1,12 :
 --------------------------------------------------------
|  sn= 1 | S(rot)=       0.01212091 Eh      7.61 kcal/mol|
|  sn= 2 | S(rot)=       0.01146645 Eh      7.20 kcal/mol|
|  sn= 3 | S(rot)=       0.01108362 Eh      6.96 kcal/mol|
|  sn= 4 | S(rot)=       0.01081199 Eh      6.78 kcal/mol|
|  sn= 5 | S(rot)=       0.01060130 Eh      6.65 kcal/mol|
|  sn= 6 | S(rot)=       0.01042916 Eh      6.54 kcal/mol|
|  sn= 7 | S(rot)=       0.01028361 Eh      6.45 kcal/mol|
|  sn= 8 | S(rot)=       0.01015754 Eh      6.37 kcal/mol|
|  sn= 9 | S(rot)=       0.01004633 Eh      6.30 kcal/mol|
|  sn=10 | S(rot)=       0.00994685 Eh      6.24 kcal/mol|
|  sn=11 | S(rot)=       0.00985686 Eh      6.19 kcal/mol|
|  sn=12 | S(rot)=       0.00977470 Eh      6.13 kcal/mol|
 --------------------------------------------------------


-------------------
GIBBS FREE ENERGY
-------------------

The Gibbs free energy is G = H - T*S

Total enthalpy                    ...   -247.99760476 Eh 
Total entropy correction          ...     -0.03260183 Eh    -20.46 kcal/mol
-----------------------------------------------------------------------
Final Gibbs free energy         ...   -248.03020659 Eh

For completeness - the Gibbs free energy minus the electronic energy
G-E(el)                           ...      0.06177364 Eh     38.76 kcal/mol


Timings for individual modules:

Sum of individual times         ...      143.712 sec (=   2.395 min)
GTO integral calculation        ...        6.434 sec (=   0.107 min)   4.5 %
SCF iterations                  ...       54.865 sec (=   0.914 min)  38.2 %
SCF Gradient evaluation         ...       13.038 sec (=   0.217 min)   9.1 %
Geometry relaxation             ...        0.536 sec (=   0.009 min)   0.4 %
Analytical frequency calculation...       68.839 sec (=   1.147 min)  47.9 %
                             ****ORCA TERMINATED NORMALLY****
TOTAL RUN TIME: 0 days 0 hours 2 minutes 35 seconds 999 msec
