
                                 *****************
                                 * O   R   C   A *
                                 *****************

                                            #,                                       
                                            ###                                      
                                            ####                                     
                                            #####                                    
                                            ######                                   
                                           ########,                                 
                                     ,,################,,,,,                         
                               ,,#################################,,                 
                          ,,##########################################,,             
                       ,#########################################, ''#####,          
                    ,#############################################,,   '####,        
                  ,##################################################,,,,####,       
                ,###########''''           ''''###############################       
              ,#####''   ,,,,##########,,,,          '''####'''          '####       
            ,##' ,,,,###########################,,,                        '##       
           ' ,,###''''                  '''############,,,                           
         ,,##''                                '''############,,,,        ,,,,,,###''
      ,#''                                            '''#######################'''  
     '                                                          ''''####''''         
             ,#######,   #######,   ,#######,      ##                                
            ,#'     '#,  ##    ##  ,#'     '#,    #''#        ######   ,####,        
            ##       ##  ##   ,#'  ##            #'  '#       #        #'  '#        
            ##       ##  #######   ##           ,######,      #####,   #    #        
            '#,     ,#'  ##    ##  '#,     ,#' ,#      #,         ##   #,  ,#        
             '#######'   ##     ##  '#######'  #'      '#     #####' # '####'        



                  #######################################################
                  #                        -***-                        #
                  #          Department of theory and spectroscopy      #
                  #    Directorship and core code : Frank Neese         #
                  #        Max Planck Institute fuer Kohlenforschung    #
                  #                Kaiser Wilhelm Platz 1               #
                  #                 D-45470 Muelheim/Ruhr               #
                  #                      Germany                        #
                  #                                                     #
                  #                  All rights reserved                #
                  #                        -***-                        #
                  #######################################################


                         Program Version 5.0.4 -  RELEASE  -


 With contributions from (in alphabetic order):
   Daniel Aravena         : Magnetic Suceptibility
   Michael Atanasov       : Ab Initio Ligand Field Theory (pilot matlab implementation)
   Alexander A. Auer      : GIAO ZORA, VPT2 properties, NMR spectrum
   Ute Becker             : Parallelization
   Giovanni Bistoni       : ED, misc. LED, open-shell LED, HFLD
   Martin Brehm           : Molecular dynamics
   Dmytro Bykov           : SCF Hessian
   Vijay G. Chilkuri      : MRCI spin determinant printing, contributions to CSF-ICE
   Dipayan Datta          : RHF DLPNO-CCSD density
   Achintya Kumar Dutta   : EOM-CC, STEOM-CC
   Dmitry Ganyushin       : Spin-Orbit,Spin-Spin,Magnetic field MRCI
   Miquel Garcia          : C-PCM and meta-GGA Hessian, CC/C-PCM, Gaussian charge scheme
   Yang Guo               : DLPNO-NEVPT2, F12-NEVPT2, CIM, IAO-localization
   Andreas Hansen         : Spin unrestricted coupled pair/coupled cluster methods
   Benjamin Helmich-Paris : MC-RPA, TRAH-SCF, COSX integrals
   Lee Huntington         : MR-EOM, pCC
   Robert Izsak           : Overlap fitted RIJCOSX, COSX-SCS-MP3, EOM
   Marcus Kettner         : VPT2
   Christian Kollmar      : KDIIS, OOCD, Brueckner-CCSD(T), CCSD density, CASPT2, CASPT2-K
   Simone Kossmann        : Meta GGA functionals, TD-DFT gradient, OOMP2, MP2 Hessian
   Martin Krupicka        : Initial AUTO-CI
   Lucas Lang             : DCDCAS
   Marvin Lechner         : AUTO-CI (C++ implementation), FIC-MRCC
   Dagmar Lenk            : GEPOL surface, SMD
   Dimitrios Liakos       : Extrapolation schemes; Compound Job, initial MDCI parallelization
   Dimitrios Manganas     : Further ROCIS development; embedding schemes
   Dimitrios Pantazis     : SARC Basis sets
   Anastasios Papadopoulos: AUTO-CI, single reference methods and gradients
   Taras Petrenko         : DFT Hessian,TD-DFT gradient, ASA, ECA, R-Raman, ABS, FL, XAS/XES, NRVS
   Peter Pinski           : DLPNO-MP2, DLPNO-MP2 Gradient
   Christoph Reimann      : Effective Core Potentials
   Marius Retegan         : Local ZFS, SOC
   Christoph Riplinger    : Optimizer, TS searches, QM/MM, DLPNO-CCSD(T), (RO)-DLPNO pert. Triples
   Tobias Risthaus        : Range-separated hybrids, TD-DFT gradient, RPA, STAB
   Michael Roemelt        : Original ROCIS implementation
   Masaaki Saitow         : Open-shell DLPNO-CCSD energy and density
   Barbara Sandhoefer     : DKH picture change effects
   Avijit Sen             : IP-ROCIS
   Kantharuban Sivalingam : CASSCF convergence, NEVPT2, FIC-MRCI
   Bernardo de Souza      : ESD, SOC TD-DFT
   Georgi Stoychev        : AutoAux, RI-MP2 NMR, DLPNO-MP2 response
   Willem Van den Heuvel  : Paramagnetic NMR
   Boris Wezisla          : Elementary symmetry handling
   Frank Wennmohs         : Technical directorship


 We gratefully acknowledge several colleagues who have allowed us to
 interface, adapt or use parts of their codes:
   Stefan Grimme, W. Hujo, H. Kruse, P. Pracht,  : VdW corrections, initial TS optimization,
                  C. Bannwarth, S. Ehlert          DFT functionals, gCP, sTDA/sTD-DF
   Ed Valeev, F. Pavosevic, A. Kumar             : LibInt (2-el integral package), F12 methods
   Garnet Chan, S. Sharma, J. Yang, R. Olivares  : DMRG
   Ulf Ekstrom                                   : XCFun DFT Library
   Mihaly Kallay                                 : mrcc  (arbitrary order and MRCC methods)
   Jiri Pittner, Ondrej Demel                    : Mk-CCSD
   Frank Weinhold                                : gennbo (NPA and NBO analysis)
   Christopher J. Cramer and Donald G. Truhlar   : smd solvation model
   Lars Goerigk                                  : TD-DFT with DH, B97 family of functionals
   V. Asgeirsson, H. Jonsson                     : NEB implementation
   FAccTs GmbH                                   : IRC, NEB, NEB-TS, DLPNO-Multilevel, CI-OPT
                                                   MM, QMMM, 2- and 3-layer-ONIOM, Crystal-QMMM,
                                                   LR-CPCM, SF, NACMEs, symmetry and pop. for TD-DFT,
                                                   nearIR, NL-DFT gradient (VV10), updates on ESD,
                                                   ML-optimized integration grids
   S Lehtola, MJT Oliveira, MAL Marques          : LibXC Library
   Liviu Ungur et al                             : ANISO software


 Your calculation uses the libint2 library for the computation of 2-el integrals
 For citations please refer to: http://libint.valeyev.net

 Your ORCA version has been built with support for libXC version: 5.1.0
 For citations please refer to: https://tddft.org/programs/libxc/

 This ORCA versions uses:
   CBLAS   interface :  Fast vector & matrix operations
   LAPACKE interface :  Fast linear algebra routines
   SCALAPACK package :  Parallel linear algebra routines
   Shared memory     :  Shared parallel matrices
   BLAS/LAPACK       :  OpenBLAS 0.3.15  USE64BITINT DYNAMIC_ARCH NO_AFFINITY Haswell SINGLE_THREADED
        Core in use  :  Haswell
   Copyright (c) 2011-2014, The OpenBLAS Project


Your calculation utilizes the atom-pairwise dispersion correction
with the Becke-Johnson damping scheme (D3BJ)
Cite in your paper:
S.Grimme, S.Ehrlich, L.Goerigk, J Comput Chem, (2011), 32, 1456–1465 
S.Grimme, J.Antony, S.Ehrlich and H.Krieg, J.Chem.Phys., 132, (2010), 154104 
   

================================================================================

----- Orbital basis set information -----
Your calculation utilizes the basis: def2-TZVP
   F. Weigend and R. Ahlrichs, Phys. Chem. Chem. Phys. 7, 3297 (2005).

----- AuxJ basis set information -----
Your calculation utilizes the auxiliary basis: def2/J
   F. Weigend, Phys. Chem. Chem. Phys. 8, 1057 (2006).

================================================================================
                                        WARNINGS
                       Please study these warnings very carefully!
================================================================================


WARNING: Geometry Optimization
  ===> : Switching off AutoStart
         For restart on a previous wavefunction, please use MOREAD

INFO   : the flag for use of the SHARK integral package has been found!

================================================================================
                                       INPUT FILE
================================================================================
NAME = TS2_4-OMePh/TS2_4-OMePh.inp
|  1> %pal nprocs 24 end
|  2> %maxcore 3500
|  3> ! PBE0 D3BJ def2-TZVP TightSCF OPTTS FREQ TightOpt
|  4> ! CPCM(dmso)
|  5> %scf
|  6> MaxIter 800
|  7> end
|  8> 
|  9> %geom
| 10> MaxIter 800
| 11> MaxStep 0.2
| 12> end
| 13> 
| 14> *xyz 0 1
| 15> C      -4.04270400      0.11041100      2.00745600
| 16> C      -4.06591300      0.08676500      0.62170200
| 17> C      -2.99378800      0.62085600     -0.06823800
| 18> N      -1.94914400      1.14334100      0.56453800
| 19> C      -1.91215200      1.16726800      1.89337700
| 20> C      -2.94938300      0.66435200      2.65509800
| 21> C      -0.46880800      1.76109900     -0.58490000
| 22> C      -0.40614600      3.09883100      0.07873600
| 23> O      -1.14025700      4.01451900     -0.19744500
| 24> O       0.52767500      3.13664300      1.01894500
| 25> C       0.68444600      4.38575600      1.70011200
| 26> H      -4.86759600     -0.30109700      2.57682600
| 27> H      -2.96218400      0.62429100     -1.15249400
| 28> H      -1.02754600      1.59419400      2.35238400
| 29> H      -2.88976700      0.70226300      3.73499300
| 30> H      -1.14682400      1.69224400     -1.41829800
| 31> H      -0.24181300      4.65729300      2.20650800
| 32> H       0.95903400      5.16646100      0.99095500
| 33> C       5.13543100     -1.40399200      0.75242500
| 34> C       3.82891700     -1.62479500      1.18685500
| 35> C       2.79274400     -0.85351400      0.70773500
| 36> C       3.00588700      0.17680700     -0.22763100
| 37> C       4.32604900      0.38076800     -0.65068200
| 38> C       5.37411900     -0.39188400     -0.17097900
| 39> C       1.86674200      0.94242500     -0.69658100
| 40> C       0.46708400      0.61031000     -0.26191300
| 41> C      -0.03258000     -0.66863000     -0.90506000
| 42> C       0.00440800     -0.80574100     -2.28532300
| 43> C      -0.46708900     -1.94918500     -2.91326300
| 44> C      -0.97962200     -2.97985300     -2.14114000
| 45> C      -1.02079400     -2.87259500     -0.75805900
| 46> C      -0.54914900     -1.71934400     -0.13620100
| 47> O       6.08741300     -2.20815700      1.27472100
| 48> C       7.41986300     -2.02221200      0.83581500
| 49> O      -0.55203100     -1.54182100      1.20352300
| 50> C      -1.10813600     -2.55639000      2.01701500
| 51> N       1.93519400      1.94468300     -1.54147000
| 52> O       2.96574400      2.41409600     -2.08479500
| 53> H       3.63952300     -2.41285000      1.90691500
| 54> H       1.79764700     -1.06487600      1.07669300
| 55> H       4.53113700      1.15872500     -1.36955400
| 56> H       6.37528000     -0.19293500     -0.53002400
| 57> H       0.46938000      0.48225000      0.82018900
| 58> H       0.41154900      0.00772400     -2.87739300
| 59> H      -0.43153300     -2.03344800     -3.99274000
| 60> H      -1.35159000     -3.88277100     -2.61210900
| 61> H      -1.41978800     -3.68818000     -0.17015300
| 62> H       7.50666900     -2.18385200     -0.24271600
| 63> H       8.01822700     -2.76250900      1.36306900
| 64> H       7.78147300     -1.01933400      1.08154500
| 65> H      -0.55011900     -3.49182200      1.91950400
| 66> H      -2.15806700     -2.72933200      1.76552700
| 67> H      -1.03515300     -2.19312800      3.03992000
| 68> O       0.78755100      2.53070900     -1.85249600
| 69> H       1.48154400      4.22725400      2.42132200
| 70> H      -4.89756200     -0.33920600      0.07578100
| 71> *
| 72> 
| 73>                          ****END OF INPUT****
================================================================================

                       *****************************
                       * Geometry Optimization Run *
                       *****************************

Geometry optimization settings:
Update method            Update   .... Bofill
Choice of coordinates    CoordSys .... Z-matrix Internals
Initial Hessian          InHess   .... Almoef's Model

Convergence Tolerances:
Energy Change            TolE     ....  1.0000e-06 Eh
Max. Gradient            TolMAXG  ....  1.0000e-04 Eh/bohr
RMS Gradient             TolRMSG  ....  3.0000e-05 Eh/bohr
Max. Displacement        TolMAXD  ....  1.0000e-03 bohr
RMS Displacement         TolRMSD  ....  6.0000e-04 bohr
Strict Convergence                ....  False
------------------------------------------------------------------------------
                        ORCA OPTIMIZATION COORDINATE SETUP
------------------------------------------------------------------------------

The optimization will be done in new redundant internal coordinates
Making redundant internal coordinates   ...  (new redundants) done
Following TS mode number                ...     0
Evaluating the initial hessian          ...  (Almloef) done
Evaluating the coordinates              ...  done
Calculating the B-matrix                .... done
Calculating the G-matrix                .... done
Diagonalizing the G-matrix              .... done
Small eigenvalue found = 2.164e-03
Small eigenvalue found = 4.369e-03
Small eigenvalue found = 7.125e-03
Small eigenvalue found = 1.105e-02
Small eigenvalue found = 1.585e-02
Small eigenvalue found = 1.957e-02
Small eigenvalue found = 2.369e-02
The first mode is                       ....  172
The number of degrees of freedom        ....  162

    -----------------------------------------------------------------
                    Redundant Internal Coordinates


    -----------------------------------------------------------------
         Definition                    Initial Value    Approx d2E/dq
    -----------------------------------------------------------------
      1. B(C   1,C   0)                  1.3862         0.633696   
      2. B(C   2,C   1)                  1.3823         0.642749   
      3. B(N   3,C   2)                  1.3284         0.701675   
      4. B(C   4,N   3)                  1.3296         0.698697   
      5. B(C   5,C   4)                  1.3817         0.644229   
      6. B(C   5,C   0)                  1.3862         0.633503   
      7. B(C   6,N   3)                  1.9734         0.065634   
      8. B(C   7,C   6)                  1.4946         0.425438   
      9. B(C   7,N   3)                  2.5379         0.008251   
     10. B(O   8,C   7)                  1.2057         1.101378   
     11. B(O   9,C   7)                  1.3257         0.708735   
     12. B(C  10,O   9)                  1.4314         0.480680   
     13. B(H  11,C   0)                  1.0835         0.368805   
     14. B(H  12,C   2)                  1.0847         0.367150   
     15. B(H  13,O   9)                  2.5644         0.001433   
     16. B(H  13,C   4)                  1.0842         0.367860   
     17. B(H  14,C   5)                  1.0822         0.370563   
     18. B(H  15,C   2)                  2.5262         0.001841   
     19. B(H  15,N   3)                  2.2083         0.005301   
     20. B(H  15,C   6)                  1.0766         0.378314   
     21. B(H  15,H  12)                  2.1229         0.001551   
     22. B(H  16,C  10)                  1.0900         0.360085   
     23. B(H  17,C  10)                  1.0899         0.360281   
     24. B(C  19,C  18)                  1.3944         0.614689   
     25. B(C  20,C  19)                  1.3777         0.653652   
     26. B(C  21,C  20)                  1.4078         0.585248   
     27. B(C  22,C  21)                  1.4012         0.599581   
     28. B(C  23,C  22)                  1.3876         0.630227   
     29. B(C  23,C  18)                  1.3907         0.623222   
     30. B(C  24,C  21)                  1.4504         0.500417   
     31. B(C  25,C  24)                  1.5028         0.412897   
     32. B(C  25,C   6)                  1.5181         0.390314   
     33. B(C  26,C  25)                  1.5162         0.392941   
     34. B(C  27,C  26)                  1.3875         0.630447   
     35. B(C  28,C  27)                  1.3871         0.631458   
     36. B(C  29,C  28)                  1.3861         0.633924   
     37. B(C  30,C  29)                  1.3878         0.629763   
     38. B(C  31,C  30)                  1.3925         0.619013   
     39. B(C  31,C  26)                  1.4007         0.600692   
     40. B(O  32,C  18)                  1.3512         0.645322   
     41. B(C  33,O  32)                  1.4151         0.510220   
     42. B(O  34,C  31)                  1.3514         0.644762   
     43. B(C  35,O  34)                  1.4143         0.511722   
     44. B(N  36,C  24)                  1.3126         0.743509   
     45. B(O  37,N  36)                  1.2560         0.819918   
     46. B(H  38,C  19)                  1.0842         0.367919   
     47. B(H  39,C  20)                  1.0821         0.370653   
     48. B(H  40,C  22)                  1.0789         0.375068   
     49. B(H  41,C  23)                  1.0820         0.370781   
     50. B(H  42,N   3)                  2.5202         0.001685   
     51. B(H  42,C  25)                  1.0897         0.360556   
     52. B(H  42,H  13)                  2.4135         0.000533   
     53. B(H  43,C  27)                  1.0854         0.366272   
     54. B(H  44,C  28)                  1.0833         0.369013   
     55. B(H  45,C  29)                  1.0842         0.367890   
     56. B(H  46,C  30)                  1.0817         0.371291   
     57. B(H  47,C  33)                  1.0940         0.354814   
     58. B(H  48,C  33)                  1.0882         0.362552   
     59. B(H  49,C  33)                  1.0940         0.354804   
     60. B(H  50,C  35)                  1.0936         0.355391   
     61. B(H  51,C  35)                  1.0934         0.355638   
     62. B(H  51,H  11)                  3.7277         0.000004   
     63. B(H  52,C  35)                  1.0879         0.362831   
     64. B(O  53,N  36)                  1.3256         0.634949   
     65. B(O  53,C   6)                  1.9436         0.073225   
     66. B(H  54,C  10)                  1.0866         0.364668   
     67. B(H  55,C   1)                  1.0822         0.370590   
     68. A(C   5,C   0,H  11)          120.4452         0.355637   
     69. A(C   1,C   0,C   5)          119.1491         0.437472   
     70. A(C   1,C   0,H  11)          120.4055         0.355655   
     71. A(C   0,C   1,H  55)          121.5942         0.355947   
     72. A(C   2,C   1,H  55)          119.7589         0.356805   
     73. A(C   0,C   1,C   2)          118.6468         0.438617   
     74. A(C   1,C   2,N   3)          121.6109         0.443830   
     75. A(N   3,C   2,H  12)          116.8707         0.359356   
     76. A(C   1,C   2,H  12)          121.5159         0.356240   
     77. A(C   2,N   3,C   6)          115.8222         0.298967   
     78. A(C   4,N   3,C   6)          123.7553         0.298765   
     79. A(C   6,N   3,C   7)           36.0220         0.165808   
     80. A(C   2,N   3,C   7)          133.6294         0.220314   
     81. A(C   2,N   3,C   4)          120.3338         0.447621   
     82. A(C   4,N   3,C   7)           99.2379         0.220187   
     83. A(N   3,C   4,C   5)          121.5719         0.443673   
     84. A(N   3,C   4,H  13)          116.9309         0.359214   
     85. A(C   5,C   4,H  13)          121.4961         0.356497   
     86. A(C   0,C   5,H  14)          121.5771         0.355924   
     87. A(C   0,C   5,C   4)          118.6835         0.438775   
     88. A(C   4,C   5,H  14)          119.7374         0.356940   
     89. A(C   7,C   6,C  25)          123.9297         0.374361   
     90. A(N   3,C   6,C   7)           93.0386         0.278041   
     91. A(H  15,C   6,O  53)           85.8454         0.252206   
     92. A(N   3,C   6,C  25)           95.8103         0.274390   
     93. A(N   3,C   6,H  15)           87.6182         0.248213   
     94. A(C   7,C   6,H  15)          115.3011         0.334067   
     95. A(N   3,C   6,O  53)          171.3975         0.214895   
     96. A(C  25,C   6,O  53)           92.3165         0.279040   
     97. A(H  15,C   6,C  25)          120.2975         0.329334   
     98. A(C   7,C   6,O  53)           84.7256         0.282783   
     99. A(C   6,C   7,O   8)          123.5401         0.446912   
    100. A(N   3,C   7,O   9)          108.3299         0.220612   
    101. A(N   3,C   7,C   6)           50.9394         0.207227   
    102. A(N   3,C   7,O   8)          105.0020         0.234421   
    103. A(O   8,C   7,O   9)          124.7287         0.487433   
    104. A(C   6,C   7,O   9)          111.7138         0.412924   
    105. A(C   7,O   9,C  10)          116.0750         0.419260   
    106. A(H  16,C  10,H  54)          110.5705         0.291414   
    107. A(H  16,C  10,H  17)          109.7516         0.290860   
    108. A(O   9,C  10,H  17)          110.0636         0.336114   
    109. A(O   9,C  10,H  54)          105.5996         0.336791   
    110. A(O   9,C  10,H  16)          110.2066         0.336083   
    111. A(H  17,C  10,H  54)          110.5827         0.291439   
    112. A(C  19,C  18,C  23)          118.8759         0.433799   
    113. A(C  23,C  18,O  32)          124.6716         0.434747   
    114. A(C  19,C  18,O  32)          116.4525         0.433670   
    115. A(C  20,C  19,H  38)          120.4323         0.357387   
    116. A(C  18,C  19,H  38)          119.0580         0.353679   
    117. A(C  18,C  19,C  20)          120.5097         0.437540   
    118. A(C  21,C  20,H  39)          120.5777         0.351194   
    119. A(C  19,C  20,H  39)          117.6253         0.357837   
    120. A(C  19,C  20,C  21)          121.7970         0.433689   
    121. A(C  22,C  21,C  24)          124.4374         0.415248   
    122. A(C  20,C  21,C  24)          118.8312         0.413466   
    123. A(C  20,C  21,C  22)          116.7292         0.427018   
    124. A(C  23,C  22,H  40)          119.2259         0.356341   
    125. A(C  21,C  22,H  40)          119.0265         0.353342   
    126. A(C  21,C  22,C  23)          121.7476         0.432731   
    127. A(C  22,C  23,H  41)          118.7993         0.355646   
    128. A(C  18,C  23,H  41)          120.8600         0.354973   
    129. A(C  18,C  23,C  22)          120.3405         0.435753   
    130. A(C  25,C  24,N  36)          113.7965         0.414245   
    131. A(C  21,C  24,N  36)          124.7634         0.428710   
    132. A(C  21,C  24,C  25)          121.4213         0.388833   
    133. A(C  24,C  25,H  42)          108.1347         0.329779   
    134. A(C   6,C  25,H  42)          107.5583         0.326733   
    135. A(C  24,C  25,C  26)          111.7562         0.372866   
    136. A(C   6,C  25,C  26)          110.2434         0.369275   
    137. A(C   6,C  25,C  24)          110.1898         0.372435   
    138. A(C  26,C  25,H  42)          108.8321         0.327094   
    139. A(C  27,C  26,C  31)          118.7985         0.432902   
    140. A(C  25,C  26,C  31)          121.4283         0.398003   
    141. A(C  25,C  26,C  27)          119.7693         0.401403   
    142. A(C  26,C  27,C  28)          121.5145         0.436812   
    143. A(C  28,C  27,H  43)          119.8931         0.355026   
    144. A(C  26,C  27,H  43)          118.5923         0.354930   
    145. A(C  27,C  28,C  29)          119.1098         0.437245   
    146. A(C  29,C  28,H  44)          120.6223         0.355711   
    147. A(C  27,C  28,H  44)          120.2677         0.355476   
    148. A(C  28,C  29,C  30)          120.5743         0.437034   
    149. A(C  30,C  29,H  45)          119.1500         0.355130   
    150. A(C  28,C  29,H  45)          120.2755         0.355527   
    151. A(C  29,C  30,C  31)          119.9332         0.435164   
    152. A(C  31,C  30,H  46)          120.4417         0.354647   
    153. A(C  29,C  30,H  46)          119.6251         0.355685   
    154. A(C  30,C  31,O  34)          123.4192         0.434149   
    155. A(C  26,C  31,O  34)          116.5129         0.431810   
    156. A(C  26,C  31,C  30)          120.0674         0.431480   
    157. A(C  18,O  32,C  33)          117.7289         0.416721   
    158. A(H  48,C  33,H  49)          109.4542         0.290473   
    159. A(H  47,C  33,H  49)          109.3076         0.289491   
    160. A(O  32,C  33,H  49)          111.2231         0.338605   
    161. A(H  47,C  33,H  48)          109.4832         0.290474   
    162. A(O  32,C  33,H  48)          106.1459         0.339829   
    163. A(O  32,C  33,H  47)          111.1648         0.338607   
    164. A(C  31,O  34,C  35)          118.4764         0.416875   
    165. A(H  51,C  35,H  52)          109.4805         0.290615   
    166. A(H  50,C  35,H  52)          109.5857         0.290583   
    167. A(O  34,C  35,H  52)          105.9556         0.340039   
    168. A(H  50,C  35,H  51)          109.5225         0.289672   
    169. A(O  34,C  35,H  51)          111.0221         0.338904   
    170. A(O  34,C  35,H  50)          111.2037         0.338865   
    171. A(C  24,N  36,O  37)          127.3422         0.462589   
    172. A(O  37,N  36,O  53)          116.3352         0.446453   
    173. A(C  24,N  36,O  53)          116.3221         0.441585   
    174. A(C   6,O  53,N  36)          103.3885         0.297654   
    175. D(H  55,C   1,C   0,H  11)     -0.0805         0.027864   
    176. D(H  55,C   1,C   0,C   5)    179.7696         0.027864   
    177. D(C   2,C   1,C   0,H  11)   -179.9501         0.027864   
    178. D(C   2,C   1,C   0,C   5)     -0.1000         0.027864   
    179. D(H  12,C   2,C   1,C   0)    179.8268         0.031220   
    180. D(N   3,C   2,C   1,H  55)   -179.4571         0.031220   
    181. D(H  12,C   2,C   1,H  55)     -0.0453         0.031220   
    182. D(N   3,C   2,C   1,C   0)      0.4150         0.031220   
    183. D(C   6,N   3,C   2,H  12)     -2.8850         0.054033   
    184. D(C   7,N   3,C   2,C   1)   -144.7133         0.054033   
    185. D(C   7,N   3,C   2,H  12)     35.8488         0.054033   
    186. D(C   4,N   3,C   2,H  12)   -179.5870         0.054033   
    187. D(C   4,N   3,C   2,C   1)     -0.1492         0.054033   
    188. D(C   6,N   3,C   2,C   1)    176.5529         0.054033   
    189. D(C   5,C   4,N   3,C   2)     -0.4396         0.050493   
    190. D(C   5,C   4,N   3,C   6)   -176.8687         0.050493   
    191. D(H  13,C   4,N   3,C   7)    -25.9683         0.050493   
    192. D(C   5,C   4,N   3,C   7)    154.3985         0.050493   
    193. D(H  13,C   4,N   3,C   2)    179.1936         0.050493   
    194. D(H  13,C   4,N   3,C   6)      2.7645         0.050493   
    195. D(H  14,C   5,C   4,H  13)      0.6049         0.028862   
    196. D(C   0,C   5,C   4,H  13)   -178.8789         0.028862   
    197. D(H  14,C   5,C   0,H  11)     -0.0753         0.027846   
    198. D(H  14,C   5,C   0,C   1)   -179.9253         0.027846   
    199. D(C   4,C   5,C   0,H  11)    179.3986         0.027846   
    200. D(C   0,C   5,C   4,N   3)      0.7376         0.028862   
    201. D(C   4,C   5,C   0,C   1)     -0.4514         0.027846   
    202. D(H  14,C   5,C   4,N   3)   -179.7786         0.028862   
    203. D(H  15,C   6,N   3,C   2)     14.4141         0.001853   
    204. D(C   7,C   6,N   3,C   4)    -53.7869         0.001853   
    205. D(C   7,C   6,N   3,C   2)    129.6368         0.001853   
    206. D(O  53,C   6,N   3,C   4)   -128.4477         0.001853   
    207. D(C  25,C   6,N   3,C   7)    124.5586         0.001853   
    208. D(O  53,C   6,N   3,C   2)     54.9760         0.001853   
    209. D(C  25,C   6,N   3,C   2)   -105.8045         0.001853   
    210. D(H  15,C   6,N   3,C   7)   -115.2228         0.001853   
    211. D(C  25,C   6,N   3,C   4)     70.7717         0.001853   
    212. D(O  53,C   6,N   3,C   7)    -74.6608         0.001853   
    213. D(H  15,C   6,N   3,C   4)   -169.0097         0.001853   
    214. D(N   3,C   7,C   6,O  53)    171.6706         0.015203   
    215. D(N   3,C   7,C   6,C  25)    -99.0846         0.015203   
    216. D(N   3,C   7,C   6,H  15)     88.8003         0.015203   
    217. D(O   9,C   7,C   6,H  15)   -174.7244         0.015203   
    218. D(O   9,C   7,C   6,C  25)     -2.6093         0.015203   
    219. D(O   8,C   7,C   6,C  25)    178.8476         0.015203   
    220. D(O   8,C   7,C   6,H  15)      6.7325         0.015203   
    221. D(O   9,C   7,C   6,O  53)    -91.8541         0.015203   
    222. D(O   9,C   7,N   3,C   6)   -103.4784         0.001506   
    223. D(O   8,C   7,C   6,O  53)     89.6029         0.015203   
    224. D(O   8,C   7,C   6,N   3)    -82.0678         0.015203   
    225. D(O   9,C   7,N   3,C   4)     33.7074         0.001506   
    226. D(O   9,C   7,N   3,C   2)   -176.7563         0.001506   
    227. D(O   8,C   7,N   3,C   6)    121.2785         0.001506   
    228. D(O   8,C   7,N   3,C   4)   -101.5357         0.001506   
    229. D(O   8,C   7,N   3,C   2)     48.0006         0.001506   
    230. D(C   6,C   7,N   3,C   4)    137.1857         0.001506   
    231. D(O   9,C   7,C   6,N   3)     96.4753         0.015203   
    232. D(C   6,C   7,N   3,C   2)    -73.2779         0.001506   
    233. D(C  10,O   9,C   7,N   3)   -126.7092         0.045361   
    234. D(C  10,O   9,C   7,O   8)     -2.5537         0.045361   
    235. D(C  10,O   9,C   7,C   6)    178.9239         0.045361   
    236. D(H  17,C  10,O   9,C   7)    -60.5853         0.019764   
    237. D(H  16,C  10,O   9,C   7)     60.5994         0.019764   
    238. D(H  54,C  10,O   9,C   7)   -179.9625         0.019764   
    239. D(H  38,C  19,C  18,O  32)     -0.0039         0.026119   
    240. D(H  38,C  19,C  18,C  23)   -179.9813         0.026119   
    241. D(C  20,C  19,C  18,O  32)   -179.9627         0.026119   
    242. D(C  20,C  19,C  18,C  23)      0.0599         0.026119   
    243. D(H  39,C  20,C  19,H  38)      0.0636         0.029772   
    244. D(H  39,C  20,C  19,C  18)   -179.9781         0.029772   
    245. D(C  21,C  20,C  19,H  38)   -179.9889         0.029772   
    246. D(C  21,C  20,C  19,C  18)     -0.0306         0.029772   
    247. D(C  24,C  21,C  20,H  39)     -0.5188         0.023552   
    248. D(C  24,C  21,C  20,C  19)    179.5352         0.023552   
    249. D(C  22,C  21,C  20,H  39)   -179.9992         0.023552   
    250. D(C  22,C  21,C  20,C  19)      0.0548         0.023552   
    251. D(H  40,C  22,C  21,C  24)      0.3526         0.024781   
    252. D(H  40,C  22,C  21,C  20)    179.8006         0.024781   
    253. D(C  23,C  22,C  21,C  24)   -179.5607         0.024781   
    254. D(C  23,C  22,C  21,C  20)     -0.1127         0.024781   
    255. D(H  41,C  23,C  22,H  40)      0.1056         0.027540   
    256. D(H  41,C  23,C  22,C  21)   -179.9813         0.027540   
    257. D(C  18,C  23,C  22,H  40)   -179.7662         0.027540   
    258. D(C  18,C  23,C  22,C  21)      0.1469         0.027540   
    259. D(H  41,C  23,C  18,O  32)      0.0388         0.026894   
    260. D(H  41,C  23,C  18,C  19)   -179.9858         0.026894   
    261. D(C  22,C  23,C  18,O  32)    179.9079         0.026894   
    262. D(C  22,C  23,C  18,C  19)     -0.1166         0.026894   
    263. D(N  36,C  24,C  21,C  22)     -2.1830         0.017057   
    264. D(N  36,C  24,C  21,C  20)    178.3797         0.017057   
    265. D(C  25,C  24,C  21,C  22)    176.1373         0.017057   
    266. D(C  25,C  24,C  21,C  20)     -3.2999         0.017057   
    267. D(H  42,C  25,C  24,N  36)   -133.9266         0.012620   
    268. D(H  42,C  25,C  24,C  21)     47.5815         0.012620   
    269. D(C  26,C  25,C  24,N  36)    106.3096         0.012620   
    270. D(C   6,C  25,C  24,N  36)    -16.6256         0.012620   
    271. D(C   6,C  25,C  24,C  21)    164.8825         0.012620   
    272. D(H  42,C  25,C   6,N   3)    -47.2226         0.012848   
    273. D(H  42,C  25,C   6,O  53)    135.6020         0.012848   
    274. D(H  42,C  25,C   6,H  15)   -137.8573         0.012848   
    275. D(H  42,C  25,C   6,C   7)     50.4014         0.012848   
    276. D(C  26,C  25,C   6,N   3)     71.3029         0.012848   
    277. D(C  26,C  25,C   6,O  53)   -105.8724         0.012848   
    278. D(C  26,C  25,C   6,H  15)    -19.3317         0.012848   
    279. D(C  26,C  25,C   6,C   7)    168.9270         0.012848   
    280. D(C  26,C  25,C  24,C  21)    -72.1824         0.012620   
    281. D(C  24,C  25,C   6,N   3)   -164.8804         0.012848   
    282. D(C  24,C  25,C   6,O  53)     17.9442         0.012848   
    283. D(C  24,C  25,C   6,H  15)    104.4849         0.012848   
    284. D(C  24,C  25,C   6,C   7)    -67.2564         0.012848   
    285. D(C  31,C  26,C  25,H  42)      7.4503         0.011478   
    286. D(C  31,C  26,C  25,C  24)    126.8031         0.011478   
    287. D(C  31,C  26,C  25,C   6)   -110.2923         0.011478   
    288. D(C  27,C  26,C  25,H  42)   -173.2755         0.011478   
    289. D(C  27,C  26,C  25,C  24)    -53.9227         0.011478   
    290. D(C  27,C  26,C  25,C   6)     68.9819         0.011478   
    291. D(H  43,C  27,C  26,C  31)   -179.5916         0.027561   
    292. D(H  43,C  27,C  26,C  25)      1.1151         0.027561   
    293. D(C  28,C  27,C  26,C  31)      0.5581         0.027561   
    294. D(C  28,C  27,C  26,C  25)   -178.7351         0.027561   
    295. D(H  44,C  28,C  27,H  43)     -0.0570         0.027655   
    296. D(H  44,C  28,C  27,C  26)    179.7914         0.027655   
    297. D(C  29,C  28,C  27,H  43)    179.7918         0.027655   
    298. D(C  29,C  28,C  27,C  26)     -0.3599         0.027655   
    299. D(H  45,C  29,C  28,C  27)   -179.8898         0.027885   
    300. D(C  30,C  29,C  28,H  44)    179.7947         0.027885   
    301. D(C  30,C  29,C  28,C  27)     -0.0536         0.027885   
    302. D(H  45,C  29,C  28,H  44)     -0.0416         0.027885   
    303. D(H  46,C  30,C  29,H  45)      0.1206         0.027497   
    304. D(H  46,C  30,C  29,C  28)   -179.7175         0.027497   
    305. D(C  31,C  30,C  29,H  45)   -179.9072         0.027497   
    306. D(C  31,C  30,C  29,C  28)      0.2547         0.027497   
    307. D(O  34,C  31,C  30,H  46)      0.1732         0.026510   
    308. D(O  34,C  31,C  30,C  29)   -179.7988         0.026510   
    309. D(C  26,C  31,C  30,H  46)    179.9216         0.026510   
    310. D(C  26,C  31,C  30,C  29)     -0.0504         0.026510   
    311. D(O  34,C  31,C  26,C  27)    179.4173         0.024878   
    312. D(O  34,C  31,C  26,C  25)     -1.3016         0.024878   
    313. D(C  30,C  31,C  26,C  27)     -0.3481         0.024878   
    314. D(C  30,C  31,C  26,C  25)    178.9330         0.024878   
    315. D(C  33,O  32,C  18,C  23)     -1.0484         0.030741   
    316. D(C  33,O  32,C  18,C  19)    178.9756         0.030741   
    317. D(H  49,C  33,O  32,C  18)     61.4538         0.020609   
    318. D(H  48,C  33,O  32,C  18)   -179.5743         0.020609   
    319. D(H  47,C  33,O  32,C  18)    -60.5993         0.020609   
    320. D(C  35,O  34,C  31,C  30)     -2.4682         0.030683   
    321. D(C  35,O  34,C  31,C  26)    177.7751         0.030683   
    322. D(H  52,C  35,O  34,C  31)   -178.1716         0.020735   
    323. D(H  51,C  35,O  34,C  31)    -59.3911         0.020735   
    324. D(H  50,C  35,O  34,C  31)     62.8236         0.020735   
    325. D(O  53,N  36,C  24,C  25)      1.8275         0.046332   
    326. D(O  53,N  36,C  24,C  21)   -179.7390         0.046332   
    327. D(O  37,N  36,C  24,C  25)   -178.4450         0.046332   
    328. D(O  37,N  36,C  24,C  21)     -0.0115         0.046332   
    329. D(C   6,O  53,N  36,O  37)   -169.6839         0.034900   
    330. D(C   6,O  53,N  36,C  24)     10.0744         0.034900   
    331. D(N  36,O  53,C   6,N   3)   -178.1504         0.001841   
    332. D(N  36,O  53,C   6,C  25)    -17.2835         0.001841   
    333. D(N  36,O  53,C   6,H  15)   -137.5016         0.001841   
    334. D(N  36,O  53,C   6,C   7)    106.5839         0.001841   
    -----------------------------------------------------------------

Number of atoms                         .... 56
Number of degrees of freedom            .... 334

         *************************************************************
         *                GEOMETRY OPTIMIZATION CYCLE   1            *
         *************************************************************
---------------------------------
CARTESIAN COORDINATES (ANGSTROEM)
---------------------------------
  C     -4.042704    0.110411    2.007456
  C     -4.065913    0.086765    0.621702
  C     -2.993788    0.620856   -0.068238
  N     -1.949144    1.143341    0.564538
  C     -1.912152    1.167268    1.893377
  C     -2.949383    0.664352    2.655098
  C     -0.468808    1.761099   -0.584900
  C     -0.406146    3.098831    0.078736
  O     -1.140257    4.014519   -0.197445
  O      0.527675    3.136643    1.018945
  C      0.684446    4.385756    1.700112
  H     -4.867596   -0.301097    2.576826
  H     -2.962184    0.624291   -1.152494
  H     -1.027546    1.594194    2.352384
  H     -2.889767    0.702263    3.734993
  H     -1.146824    1.692244   -1.418298
  H     -0.241813    4.657293    2.206508
  H      0.959034    5.166461    0.990955
  C      5.135431   -1.403992    0.752425
  C      3.828917   -1.624795    1.186855
  C      2.792744   -0.853514    0.707735
  C      3.005887    0.176807   -0.227631
  C      4.326049    0.380768   -0.650682
  C      5.374119   -0.391884   -0.170979
  C      1.866742    0.942425   -0.696581
  C      0.467084    0.610310   -0.261913
  C     -0.032580   -0.668630   -0.905060
  C      0.004408   -0.805741   -2.285323
  C     -0.467089   -1.949185   -2.913263
  C     -0.979622   -2.979853   -2.141140
  C     -1.020794   -2.872595   -0.758059
  C     -0.549149   -1.719344   -0.136201
  O      6.087413   -2.208157    1.274721
  C      7.419863   -2.022212    0.835815
  O     -0.552031   -1.541821    1.203523
  C     -1.108136   -2.556390    2.017015
  N      1.935194    1.944683   -1.541470
  O      2.965744    2.414096   -2.084795
  H      3.639523   -2.412850    1.906915
  H      1.797647   -1.064876    1.076693
  H      4.531137    1.158725   -1.369554
  H      6.375280   -0.192935   -0.530024
  H      0.469380    0.482250    0.820189
  H      0.411549    0.007724   -2.877393
  H     -0.431533   -2.033448   -3.992740
  H     -1.351590   -3.882771   -2.612109
  H     -1.419788   -3.688180   -0.170153
  H      7.506669   -2.183852   -0.242716
  H      8.018227   -2.762509    1.363069
  H      7.781473   -1.019334    1.081545
  H     -0.550119   -3.491822    1.919504
  H     -2.158067   -2.729332    1.765527
  H     -1.035153   -2.193128    3.039920
  O      0.787551    2.530709   -1.852496
  H      1.481544    4.227254    2.421322
  H     -4.897562   -0.339206    0.075781

----------------------------
CARTESIAN COORDINATES (A.U.)
----------------------------
  NO LB      ZA    FRAG     MASS         X           Y           Z
   0 C     6.0000    0    12.011   -7.639603    0.208647    3.793542
   1 C     6.0000    0    12.011   -7.683462    0.163962    1.174847
   2 C     6.0000    0    12.011   -5.657439    1.173248   -0.128951
   3 N     7.0000    0    14.007   -3.683348    2.160601    1.066822
   4 C     6.0000    0    12.011   -3.613444    2.205817    3.577964
   5 C     6.0000    0    12.011   -5.573526    1.255443    5.017408
   6 C     6.0000    0    12.011   -0.885919    3.327995   -1.105301
   7 C     6.0000    0    12.011   -0.767505    5.855942    0.148789
   8 O     8.0000    0    15.999   -2.154773    7.586341   -0.373117
   9 O     8.0000    0    15.999    0.997161    5.927396    1.925527
  10 C     6.0000    0    12.011    1.293415    8.287878    3.212746
  11 H     1.0000    0     1.008   -9.198423   -0.568991    4.869495
  12 H     1.0000    0     1.008   -5.597717    1.179739   -2.177898
  13 H     1.0000    0     1.008   -1.941781    3.012590    4.445362
  14 H     1.0000    0     1.008   -5.460868    1.327085    7.058114
  15 H     1.0000    0     1.008   -2.167183    3.197878   -2.680195
  16 H     1.0000    0     1.008   -0.456960    8.801008    4.169696
  17 H     1.0000    0     1.008    1.812312    9.763196    1.872634
  18 C     6.0000    0    12.011    9.704558   -2.653160    1.421877
  19 C     6.0000    0    12.011    7.235605   -3.070418    2.242831
  20 C     6.0000    0    12.011    5.277521   -1.612908    1.337425
  21 C     6.0000    0    12.011    5.680303    0.334117   -0.430160
  22 C     6.0000    0    12.011    8.175048    0.719547   -1.229611
  23 C     6.0000    0    12.011   10.155613   -0.740553   -0.323103
  24 C     6.0000    0    12.011    3.527631    1.780925   -1.316347
  25 C     6.0000    0    12.011    0.882661    1.153319   -0.494944
  26 C     6.0000    0    12.011   -0.061567   -1.263528   -1.710316
  27 C     6.0000    0    12.011    0.008330   -1.522630   -4.318635
  28 C     6.0000    0    12.011   -0.882670   -3.683426   -5.505269
  29 C     6.0000    0    12.011   -1.851217   -5.631106   -4.046168
  30 C     6.0000    0    12.011   -1.929021   -5.428418   -1.432524
  31 C     6.0000    0    12.011   -1.037741   -3.249089   -0.257383
  32 O     8.0000    0    15.999   11.503543   -4.172812    2.408874
  33 C     6.0000    0    12.011   14.021509   -3.821427    1.579461
  34 O     8.0000    0    15.999   -1.043187   -2.913619    2.274329
  35 C     6.0000    0    12.011   -2.094074   -4.830877    3.811606
  36 N     7.0000    0    14.007    3.656987    3.674918   -2.912956
  37 O     8.0000    0    15.999    5.604444    4.561980   -3.939692
  38 H     1.0000    0     1.008    6.877702   -4.559626    3.603547
  39 H     1.0000    0     1.008    3.397061   -2.012324    2.034655
  40 H     1.0000    0     1.008    8.562608    2.189673   -2.588082
  41 H     1.0000    0     1.008   12.047533   -0.364594   -1.001600
  42 H     1.0000    0     1.008    0.887000    0.911320    1.549933
  43 H     1.0000    0     1.008    0.777715    0.014596   -5.437485
  44 H     1.0000    0     1.008   -0.815479   -3.842660   -7.545185
  45 H     1.0000    0     1.008   -2.554135   -7.337374   -4.936171
  46 H     1.0000    0     1.008   -2.683010   -6.969650   -0.321543
  47 H     1.0000    0     1.008   14.185549   -4.126882   -0.458667
  48 H     1.0000    0     1.008   15.152253   -5.220385    2.575827
  49 H     1.0000    0     1.008   14.704853   -1.926262    2.043824
  50 H     1.0000    0     1.008   -1.039574   -6.598587    3.627337
  51 H     1.0000    0     1.008   -4.078156   -5.157690    3.336363
  52 H     1.0000    0     1.008   -1.956156   -4.144411    5.744616
  53 O     8.0000    0    15.999    1.488256    4.782347   -3.500710
  54 H     1.0000    0     1.008    2.799712    7.988352    4.575635
  55 H     1.0000    0     1.008   -9.255051   -0.641006    0.143205

--------------------------------
INTERNAL COORDINATES (ANGSTROEM)
--------------------------------
 C      0   0   0     0.000000000000     0.00000000     0.00000000
 C      1   0   0     1.386150042208     0.00000000     0.00000000
 C      2   1   0     1.382288832157   118.64676821     0.00000000
 N      3   2   1     1.328411505572   121.61090805     0.41498569
 C      4   3   2     1.329569102121   120.33375313   359.85083835
 C      5   4   3     1.381662597112   121.57186645   359.56036215
 C      4   3   2     1.973379673379   115.82222942   176.55290832
 C      7   4   3     1.494612381377    93.03862162   129.63682716
 O      8   7   4     1.205686285244   123.54010561   277.93223632
 O      8   7   4     1.325686377340   111.71377036    96.47531506
 C     10   8   7     1.431380073600   116.07496753   178.92388994
 H      1   2   3     1.083497966139   120.40547974   180.04989924
 H      3   2   1     1.084721939290   121.51594661   179.82679427
 H      5   4   3     1.084196020451   116.93093777   179.19357869
 H      6   5   4     1.082203549431   119.73738850   180.22141622
 H      7   4   3     1.076568127749    87.61824718    14.41407110
 H     11  10   8     1.090011461530   110.20660124    60.59936150
 H     11  10   8     1.089863531557   110.06361864   299.41473120
 C     10   8   7     6.474551294813   116.87901081    19.02656500
 C     19  10   8     1.394439751981    55.34916335   284.72402409
 C     20  19  10     1.377709998980   120.50970172    28.15260050
 C     21  20  19     1.407800005486   121.79703265   359.96937703
 C     22  21  20     1.401213739715   116.72915265     0.05482789
 C     23  22  21     1.387644337074   121.74755107   359.88732596
 C     22  21  20     1.450426266809   118.83118349   179.53516896
 C     25  22  21     1.502757186113   121.42125179   356.70008391
 C     26  25  22     1.516241966213   111.75615137   287.81760613
 C     27  26  25     1.387549454122   119.76934872   306.07729623
 C     28  27  26     1.387112917446   121.51448228   181.26487203
 C     29  28  27     1.386052138068   119.10983427   359.64014874
 C     30  29  28     1.387844539100   120.57434552   359.94642361
 C     31  30  29     1.392531596478   119.93320380     0.25474463
 O     19  10   8     1.351201016565   154.53840535   205.79229089
 C     33  19  10     1.415145583451   117.72887769   243.36327692
 O     32  31  30     1.351437426457   123.41922251   180.20118758
 C     35  32  31     1.414345170335   118.47637658   357.53178351
 N     25  22  21     1.312647781086   124.76335300   178.37974592
 O     37  25  22     1.256019077361   127.34221032     0.00000000
 H     20  19  10     1.084152744709   119.05800562   208.11142783
 H     21  20  19     1.082137671564   117.62528337   180.02186064
 H     23  22  21     1.078913867729   119.02652153   179.80058658
 H     24  23  22     1.082043143570   118.79933277   180.01874017
 H     26  25  22     1.089655621570   108.13472699    47.58146358
 H     28  27  26     1.085373661467   118.59229141     1.11511014
 H     29  28  27     1.083344393918   120.26768002   179.79135046
 H     30  29  28     1.084173836019   120.27545325   180.11016171
 H     31  30  29     1.081669343698   119.62506483   180.28252436
 H     34  33  19     1.094025543210   111.16479995   299.40071433
 H     34  33  19     1.088152519283   106.14591197   180.42568320
 H     34  33  19     1.094033504004   111.22309697    61.45376181
 H     36  35  32     1.093583281709   111.20371877    62.82358785
 H     36  35  32     1.093393915416   111.02209696   300.60890876
 H     36  35  32     1.087943214491   105.95560346   181.82836393
 O     37  25  22     1.325612349370   116.32210747   180.26097287
 H     11  10   8     1.086568897819   105.59962749   180.03745952
 H      2   1   3     1.082183482725   121.59424279   179.86961859

---------------------------
INTERNAL COORDINATES (A.U.)
---------------------------
 C      0   0   0     0.000000000000     0.00000000     0.00000000
 C      1   0   0     2.619443960296     0.00000000     0.00000000
 C      2   1   0     2.612147330755   118.64676821     0.00000000
 N      3   2   1     2.510333938682   121.61090805     0.41498569
 C      4   3   2     2.512521479132   120.33375313   359.85083835
 C      5   4   3     2.610963918024   121.57186645   359.56036215
 C      4   3   2     3.729147140933   115.82222942   176.55290832
 C      7   4   3     2.824408077169    93.03862162   129.63682716
 O      8   7   4     2.278416882536   123.54010561   277.93223632
 O      8   7   4     2.505184192644   111.71377036    96.47531506
 C     10   8   7     2.704916332656   116.07496753   178.92388994
 H      1   2   3     2.047514422664   120.40547974   180.04989924
 H      3   2   1     2.049827396714   121.51594661   179.82679427
 H      5   4   3     2.048833554139   116.93093777   179.19357869
 H      6   5   4     2.045068329583   119.73738850   180.22141622
 H      7   4   3     2.034418925954    87.61824718    14.41407110
 H     11  10   8     2.059823145126   110.20660124    60.59936150
 H     11  10   8     2.059543597991   110.06361864   299.41473120
 C     10   8   7    12.235128787221   116.87901081    19.02656500
 C     19  10   8     2.635109241497    55.34916335   284.72402409
 C     20  19  10     2.603494590037   120.50970172    28.15260050
 C     21  20  19     2.660356461701   121.79703265   359.96937703
 C     22  21  20     2.647910223149   116.72915265     0.05482789
 C     23  22  21     2.622267768356   121.74755107   359.88732596
 C     22  21  20     2.740908421714   118.83118349   179.53516896
 C     25  22  21     2.839799527535   121.42125179   356.70008391
 C     26  25  22     2.865282068901   111.75615137   287.81760613
 C     27  26  25     2.622088465562   119.76934872   306.07729623
 C     28  27  26     2.621263530797   121.51448228   181.26487203
 C     29  28  27     2.619258948284   119.10983427   359.64014874
 C     30  29  28     2.622646095357   120.57434552   359.94642361
 C     31  30  29     2.631503350176   119.93320380     0.25474463
 O     19  10   8     2.553399873183   154.53840535   205.79229089
 C     33  19  10     2.674237592351   117.72887769   243.36327692
 O     32  31  30     2.553846623135   123.41922251   180.20118758
 C     35  32  31     2.672725030767   118.47637658   357.53178351
 N     25  22  21     2.480544816551   124.76335300   178.37974592
 O     37  25  22     2.373532075192   127.34221032     0.00000000
 H     20  19  10     2.048751774840   119.05800562   208.11142783
 H     21  20  19     2.044943838454   117.62528337   180.02186064
 H     23  22  21     2.038851732097   119.02652153   179.80058658
 H     24  23  22     2.044765206435   118.79933277   180.01874017
 H     26  25  22     2.059150705056   108.13472699    47.58146358
 H     28  27  26     2.051058973144   118.59229141     1.11511014
 H     29  28  27     2.047224213224   120.26768002   179.79135046
 H     30  29  28     2.048791631639   120.27545325   180.11016171
 H     31  30  29     2.044058827048   119.62506483   180.28252436
 H     34  33  19     2.067408660182   111.16479995   299.40071433
 H     34  33  19     2.056310253381   106.14591197   180.42568320
 H     34  33  19     2.067423703902   111.22309697    61.45376181
 H     36  35  32     2.066572907065   111.20371877    62.82358785
 H     36  35  32     2.066215056632   111.02209696   300.60890876
 H     36  35  32     2.055914724647   105.95560346   181.82836393
 O     37  25  22     2.505044300052   116.32210747   180.26097287
 H     11  10   8     2.053317642515   105.59962749   180.03745952
 H      2   1   3     2.045030409004   121.59424279   179.86961859

---------------------
BASIS SET INFORMATION
---------------------
There are 4 groups of distinct atoms

 Group   1 Type C   : 11s6p2d1f contracted to 5s3p2d1f pattern {62111/411/11/1}
 Group   2 Type N   : 11s6p2d1f contracted to 5s3p2d1f pattern {62111/411/11/1}
 Group   3 Type O   : 11s6p2d1f contracted to 5s3p2d1f pattern {62111/411/11/1}
 Group   4 Type H   : 5s1p contracted to 3s1p pattern {311/1}

Atom   0C    basis set group =>   1
Atom   1C    basis set group =>   1
Atom   2C    basis set group =>   1
Atom   3N    basis set group =>   2
Atom   4C    basis set group =>   1
Atom   5C    basis set group =>   1
Atom   6C    basis set group =>   1
Atom   7C    basis set group =>   1
Atom   8O    basis set group =>   3
Atom   9O    basis set group =>   3
Atom  10C    basis set group =>   1
Atom  11H    basis set group =>   4
Atom  12H    basis set group =>   4
Atom  13H    basis set group =>   4
Atom  14H    basis set group =>   4
Atom  15H    basis set group =>   4
Atom  16H    basis set group =>   4
Atom  17H    basis set group =>   4
Atom  18C    basis set group =>   1
Atom  19C    basis set group =>   1
Atom  20C    basis set group =>   1
Atom  21C    basis set group =>   1
Atom  22C    basis set group =>   1
Atom  23C    basis set group =>   1
Atom  24C    basis set group =>   1
Atom  25C    basis set group =>   1
Atom  26C    basis set group =>   1
Atom  27C    basis set group =>   1
Atom  28C    basis set group =>   1
Atom  29C    basis set group =>   1
Atom  30C    basis set group =>   1
Atom  31C    basis set group =>   1
Atom  32O    basis set group =>   3
Atom  33C    basis set group =>   1
Atom  34O    basis set group =>   3
Atom  35C    basis set group =>   1
Atom  36N    basis set group =>   2
Atom  37O    basis set group =>   3
Atom  38H    basis set group =>   4
Atom  39H    basis set group =>   4
Atom  40H    basis set group =>   4
Atom  41H    basis set group =>   4
Atom  42H    basis set group =>   4
Atom  43H    basis set group =>   4
Atom  44H    basis set group =>   4
Atom  45H    basis set group =>   4
Atom  46H    basis set group =>   4
Atom  47H    basis set group =>   4
Atom  48H    basis set group =>   4
Atom  49H    basis set group =>   4
Atom  50H    basis set group =>   4
Atom  51H    basis set group =>   4
Atom  52H    basis set group =>   4
Atom  53O    basis set group =>   3
Atom  54H    basis set group =>   4
Atom  55H    basis set group =>   4
---------------------------------
AUXILIARY/J BASIS SET INFORMATION
---------------------------------
There are 4 groups of distinct atoms

 Group   1 Type C   : 12s5p4d2f1g contracted to 6s4p3d1f1g pattern {711111/2111/211/2/1}
 Group   2 Type N   : 12s5p4d2f1g contracted to 6s4p3d1f1g pattern {711111/2111/211/2/1}
 Group   3 Type O   : 12s5p4d2f1g contracted to 6s4p3d1f1g pattern {711111/2111/211/2/1}
 Group   4 Type H   : 5s2p1d contracted to 3s1p1d pattern {311/2/1}

Atom   0C    basis set group =>   1
Atom   1C    basis set group =>   1
Atom   2C    basis set group =>   1
Atom   3N    basis set group =>   2
Atom   4C    basis set group =>   1
Atom   5C    basis set group =>   1
Atom   6C    basis set group =>   1
Atom   7C    basis set group =>   1
Atom   8O    basis set group =>   3
Atom   9O    basis set group =>   3
Atom  10C    basis set group =>   1
Atom  11H    basis set group =>   4
Atom  12H    basis set group =>   4
Atom  13H    basis set group =>   4
Atom  14H    basis set group =>   4
Atom  15H    basis set group =>   4
Atom  16H    basis set group =>   4
Atom  17H    basis set group =>   4
Atom  18C    basis set group =>   1
Atom  19C    basis set group =>   1
Atom  20C    basis set group =>   1
Atom  21C    basis set group =>   1
Atom  22C    basis set group =>   1
Atom  23C    basis set group =>   1
Atom  24C    basis set group =>   1
Atom  25C    basis set group =>   1
Atom  26C    basis set group =>   1
Atom  27C    basis set group =>   1
Atom  28C    basis set group =>   1
Atom  29C    basis set group =>   1
Atom  30C    basis set group =>   1
Atom  31C    basis set group =>   1
Atom  32O    basis set group =>   3
Atom  33C    basis set group =>   1
Atom  34O    basis set group =>   3
Atom  35C    basis set group =>   1
Atom  36N    basis set group =>   2
Atom  37O    basis set group =>   3
Atom  38H    basis set group =>   4
Atom  39H    basis set group =>   4
Atom  40H    basis set group =>   4
Atom  41H    basis set group =>   4
Atom  42H    basis set group =>   4
Atom  43H    basis set group =>   4
Atom  44H    basis set group =>   4
Atom  45H    basis set group =>   4
Atom  46H    basis set group =>   4
Atom  47H    basis set group =>   4
Atom  48H    basis set group =>   4
Atom  49H    basis set group =>   4
Atom  50H    basis set group =>   4
Atom  51H    basis set group =>   4
Atom  52H    basis set group =>   4
Atom  53O    basis set group =>   3
Atom  54H    basis set group =>   4
Atom  55H    basis set group =>   4


           ************************************************************
           *        Program running with 24 parallel MPI-processes    *
           *              working on a common directory               *
           ************************************************************
------------------------------------------------------------------------------
                           ORCA GTO INTEGRAL CALCULATION
                           -- RI-GTO INTEGRALS CHOSEN --
------------------------------------------------------------------------------
------------------------------------------------------------------------------
                   ___                                                        
                  /   \      - P O W E R E D   B Y -                         
                 /     \                                                     
                 |  |  |   _    _      __       _____    __    __             
                 |  |  |  | |  | |    /  \     |  _  \  |  |  /  |          
                  \  \/   | |  | |   /    \    | | | |  |  | /  /          
                 / \  \   | |__| |  /  /\  \   | |_| |  |  |/  /          
                |  |  |   |  __  | /  /__\  \  |    /   |      \           
                |  |  |   | |  | | |   __   |  |    \   |  |\   \          
                \     /   | |  | | |  |  |  |  | |\  \  |  | \   \       
                 \___/    |_|  |_| |__|  |__|  |_| \__\ |__|  \__/        
                                                                              
                      - O R C A' S   B I G   F R I E N D -                    
                                      &                                       
                       - I N T E G R A L  F E E D E R -                       
                                                                              
 v1 FN, 2020, v2 2021                                                         
------------------------------------------------------------------------------


Reading SHARK input file TS2_4-OMePh/TS2_4-OMePh.SHARKINP.tmp ... ok
----------------------
SHARK INTEGRAL PACKAGE
----------------------

Number of atoms                             ...     56
Number of basis functions                   ...   1136
Number of shells                            ...    448
Maximum angular momentum                    ...      3
Integral batch strategy                     ... SHARK/LIBINT Hybrid
RI-J (if used) integral strategy            ... SPLIT-RIJ (Revised 2003 algorithm where possible)
Printlevel                                  ...      1
Contraction scheme used                     ... SEGMENTED contraction
Coulomb Range Separation                    ... NOT USED
Exchange Range Separation                   ... NOT USED
Finite Nucleus Model                        ... NOT USED
Auxiliary Coulomb fitting basis             ... AVAILABLE
   # of basis functions in Aux-J            ...   1832
   # of shells in Aux-J                     ...    600
   Maximum angular momentum in Aux-J        ...      4
Auxiliary J/K fitting basis                 ... NOT available
Auxiliary Correlation fitting basis         ... NOT available
Auxiliary 'external' fitting basis          ... NOT available
Integral threshold                          ...     2.500000e-11
Primitive cut-off                           ...     2.500000e-12
Primitive pair pre-selection threshold      ...     2.500000e-12

Calculating pre-screening integrals         ... done (  0.1 sec) Dimension = 448
Organizing shell pair data                  ... done (  0.8 sec)
Shell pair information
Total number of shell pairs                 ...    100576
Shell pairs after pre-screening             ...     65071
Total number of primitive shell pairs       ...    308496
Primitive shell pairs kept                  ...    127498
          la=0 lb=0:  16743 shell pairs
          la=1 lb=0:  18970 shell pairs
          la=1 lb=1:   5369 shell pairs
          la=2 lb=0:   9180 shell pairs
          la=2 lb=1:   5288 shell pairs
          la=2 lb=2:   1316 shell pairs
          la=3 lb=0:   4227 shell pairs
          la=3 lb=1:   2503 shell pairs
          la=3 lb=2:   1184 shell pairs
          la=3 lb=3:    291 shell pairs

Calculating one electron integrals          ... done (  0.1 sec)
Calculating RI/J V-Matrix + Cholesky decomp.... done (  0.3 sec)
Calculating Nuclear repulsion               ... done (  0.0 sec) ENN=   3405.073364015473 Eh

SHARK setup successfully completed in   2.3 seconds

Maximum memory used throughout the entire GTOINT-calculation: 97.4 MB


           ************************************************************
           *        Program running with 24 parallel MPI-processes    *
           *              working on a common directory               *
           ************************************************************
-------------------------------------------------------------------------------
                                 ORCA SCF
-------------------------------------------------------------------------------

------------
SCF SETTINGS
------------
Hamiltonian:
 Density Functional     Method          .... DFT(GTOs)
 Exchange Functional    Exchange        .... PBE
   PBE kappa parameter   XKappa         ....  0.804000
   PBE mue parameter    XMuePBE         ....  0.219520
 Correlation Functional Correlation     .... PBE
   PBE beta parameter  CBetaPBE         ....  0.066725
 LDA part of GGA corr.  LDAOpt          .... PW91-LDA
 Gradients option       PostSCFGGA      .... off
 Hybrid DFT is turned on
   Fraction HF Exchange ScalHFX         ....  0.250000
   Scaling of DF-GGA-X  ScalDFX         ....  0.750000
   Scaling of DF-GGA-C  ScalDFC         ....  1.000000
   Scaling of DF-LDA-C  ScalLDAC        ....  1.000000
   Perturbative correction              ....  0.000000
   Density functional embedding theory  .... OFF
   NL short-range parameter             ....  6.900000
 RI-approximation to the Coulomb term is turned on
   Number of AuxJ basis functions       .... 1832
   RIJ-COSX (HFX calculated with COS-X)).... on


General Settings:
 Integral files         IntName         .... TS2_4-OMePh/TS2_4-OMePh
 Hartree-Fock type      HFTyp           .... RHF
 Total Charge           Charge          ....    0
 Multiplicity           Mult            ....    1
 Number of Electrons    NEL             ....  230
 Basis Dimension        Dim             .... 1136
 Nuclear Repulsion      ENuc            ....   3405.0733640155 Eh

Convergence Acceleration:
 DIIS                   CNVDIIS         .... on
   Start iteration      DIISMaxIt       ....    12
   Startup error        DIISStart       ....  0.200000
   # of expansion vecs  DIISMaxEq       ....     5
   Bias factor          DIISBfac        ....   1.050
   Max. coefficient     DIISMaxC        ....  10.000
 Trust-Rad. Augm. Hess. CNVTRAH         .... auto
   Auto Start mean grad. ratio tolernc. ....  1.125000
   Auto Start start iteration           ....    20
   Auto Start num. interpolation iter.  ....    10
   Max. Number of Micro iterations      ....    16
   Max. Number of Macro iterations      .... Maxiter - #DIIS iter
   Number of Davidson start vectors     ....     2
   Converg. threshold I  (grad. norm)   ....   1.000e-05
   Converg. threshold II (energy diff.) ....   1.000e-08
   Grad. Scal. Fac. for Micro threshold ....   0.100
   Minimum threshold for Micro iter.    ....   0.010
   NR start threshold (gradient norm)   ....   0.001
   Initial trust radius                 ....   0.400
   Minimum AH scaling param. (alpha)    ....   1.000
   Maximum AH scaling param. (alpha)    .... 1000.000
   Orbital update algorithm             .... Taylor
   White noise on init. David. guess    .... on
   Maximum white noise                  ....   0.010
   Quad. conv. algorithm                .... NR
 SOSCF                  CNVSOSCF        .... on
   Start iteration      SOSCFMaxIt      ....   150
   Startup grad/error   SOSCFStart      ....  0.003300
 Level Shifting         CNVShift        .... on
   Level shift para.    LevelShift      ....    0.2500
   Turn off err/grad.   ShiftErr        ....    0.0010
 Zerner damping         CNVZerner       .... off
 Static damping         CNVDamp         .... on
   Fraction old density DampFac         ....    0.7000
   Max. Damping (<1)    DampMax         ....    0.9800
   Min. Damping (>=0)   DampMin         ....    0.0000
   Turn off err/grad.   DampErr         ....    0.1000
 Fernandez-Rico         CNVRico         .... off

SCF Procedure:
 Maximum # iterations   MaxIter         ....   800
 SCF integral mode      SCFMode         .... Direct
   Integral package                     .... SHARK and LIBINT hybrid scheme
 Reset frequency        DirectResetFreq ....    20
 Integral Threshold     Thresh          ....  2.500e-11 Eh
 Primitive CutOff       TCut            ....  2.500e-12 Eh

Convergence Tolerance:
 Convergence Check Mode ConvCheckMode   .... Total+1el-Energy
 Convergence forced     ConvForced      .... 0
 Energy Change          TolE            ....  1.000e-08 Eh
 1-El. energy change                    ....  1.000e-05 Eh
 Orbital Gradient       TolG            ....  1.000e-05
 Orbital Rotation angle TolX            ....  1.000e-05
 DIIS Error             TolErr          ....  5.000e-07


Diagonalization of the overlap matrix:
Smallest eigenvalue                        ... 5.041e-06
Time for diagonalization                   ...    0.232 sec
Threshold for overlap eigenvalues          ... 1.000e-08
Number of eigenvalues below threshold      ... 0
Time for construction of square roots      ...    0.193 sec
Total time needed                          ...    0.434 sec

Time for model grid setup =    0.530 sec

------------------------------
INITIAL GUESS: MODEL POTENTIAL
------------------------------
Loading Hartree-Fock densities                     ... done
Calculating cut-offs                               ... done
Initializing the effective Hamiltonian             ... done
Setting up the integral package (SHARK)            ... done
Starting the Coulomb interaction                   ... done (   1.2 sec)
Reading the grid                                   ... done
Mapping shells                                     ... done
Starting the XC term evaluation                    ... done (   0.3 sec)
  promolecular density results
     # of electrons  =    229.987553789
     EX              =   -191.935658768
     EC              =     -7.780548274
     EX+EC           =   -199.716207042
Transforming the Hamiltonian                       ... done (   0.1 sec)
Diagonalizing the Hamiltonian                      ... done (   0.2 sec)
Back transforming the eigenvectors                 ... done (   0.1 sec)
Now organizing SCF variables                       ... done
                      ------------------
                      INITIAL GUESS DONE (   2.7 sec)
                      ------------------
-------------------
DFT GRID GENERATION
-------------------

General Integration Accuracy     IntAcc      ... 4.388
Radial Grid Type                 RadialGrid  ... OptM3 with GC (2021)
Angular Grid (max. ang.)         AngularGrid ... 4 (Lebedev-302)
Angular grid pruning method      GridPruning ... 4 (adaptive)
Weight generation scheme         WeightScheme... Becke
Basis function cutoff            BFCut       ... 1.0000e-11
Integration weight cutoff        WCut        ... 1.0000e-14
Angular grids for H and He will be reduced by one unit
Partially contracted basis set               ... off
Rotationally invariant grid construction     ... off

Total number of grid points                  ...   266464
Total number of batches                      ...     4190
Average number of points per batch           ...       63
Average number of grid points per atom       ...     4758
Time for grid setup =    2.071 sec

--------------------
COSX GRID GENERATION
--------------------

GRIDX 1
-------
General Integration Accuracy     IntAcc      ... 3.816
Radial Grid Type                 RadialGrid  ... OptM3 with GC (2021)
Angular Grid (max. ang.)         AngularGrid ... 1 (Lebedev-50)
Angular grid pruning method      GridPruning ... 4 (adaptive)
Weight generation scheme         WeightScheme... Becke
Basis function cutoff            BFCut       ... 1.0000e-11
Integration weight cutoff        WCut        ... 1.0000e-14
Angular grids for H and He will be reduced by one unit
Partially contracted basis set               ... on
Rotationally invariant grid construction     ... off

Total number of grid points                  ...    33754
Total number of batches                      ...      555
Average number of points per batch           ...       60
Average number of grid points per atom       ...      603
UseSFitting                                  ... on

GRIDX 2
-------
General Integration Accuracy     IntAcc      ... 4.020
Radial Grid Type                 RadialGrid  ... OptM3 with GC (2021)
Angular Grid (max. ang.)         AngularGrid ... 2 (Lebedev-110)
Angular grid pruning method      GridPruning ... 4 (adaptive)
Weight generation scheme         WeightScheme... Becke
Basis function cutoff            BFCut       ... 1.0000e-11
Integration weight cutoff        WCut        ... 1.0000e-14
Angular grids for H and He will be reduced by one unit
Partially contracted basis set               ... on
Rotationally invariant grid construction     ... off

Total number of grid points                  ...    72873
Total number of batches                      ...     1170
Average number of points per batch           ...       62
Average number of grid points per atom       ...     1301
UseSFitting                                  ... on

GRIDX 3
-------
General Integration Accuracy     IntAcc      ... 4.338
Radial Grid Type                 RadialGrid  ... OptM3 with GC (2021)
Angular Grid (max. ang.)         AngularGrid ... 3 (Lebedev-194)
Angular grid pruning method      GridPruning ... 4 (adaptive)
Weight generation scheme         WeightScheme... Becke
Basis function cutoff            BFCut       ... 1.0000e-11
Integration weight cutoff        WCut        ... 1.0000e-14
Angular grids for H and He will be reduced by one unit
Partially contracted basis set               ... on
Rotationally invariant grid construction     ... off

Total number of grid points                  ...   158962
Total number of batches                      ...     2512
Average number of points per batch           ...       63
Average number of grid points per atom       ...     2839
UseSFitting                                  ... on

Time for X-Grid setup             =    3.987 sec


--------------------
CPCM SOLVATION MODEL
--------------------
CPCM parameters:
  Epsilon                                         ...      47.2000
  Refrac                                          ...       1.4790
  Rsolv                                           ...       1.3000
  Surface type                                    ... GAUSSIAN VDW
  Epsilon function type                           ...         CPCM
Radii:
 Radius for C  used is    3.8550 Bohr (=   2.0400 Ang.)
 Radius for N  used is    3.5149 Bohr (=   1.8600 Ang.)
 Radius for O  used is    3.4469 Bohr (=   1.8240 Ang.)
 Radius for H  used is    2.4944 Bohr (=   1.3200 Ang.)
Calculating surface                               ...        done! (  0.0s)
GEPOL surface points                              ...         2796
GEPOL Volume                                      ...    3355.0658
GEPOL Surface-area                                ...    1614.5112
Calculating surface distance matrix               ...        done! (  0.2s)
Performing Cholesky decomposition & store         ...        done! (  0.5s)
Overall time for CPCM initialization              ...                 0.6s
--------------
SCF ITERATIONS
--------------
ITER       Energy         Delta-E        Max-DP      RMS-DP      [F,P]     Damp
               ***  Starting incremental Fock matrix formation  ***
  0  -1487.9154302715   0.000000000000 0.55782552  0.00112836  0.2729529 0.7000
  1  -1488.2060641539  -0.290633882332 0.44927416  0.00103812  0.1088725 0.7000
                               ***Turning on DIIS***
  2  -1488.3282329064  -0.122168752578 0.48529137  0.00178647  0.0359274 0.0000
  3  -1488.5272293653  -0.198996458842 0.40170708  0.00082362  0.0513381 0.0000
  4  -1488.5626871247  -0.035457759379 0.04814428  0.00025886  0.0161292 0.0000
  5  -1488.5649424733  -0.002255348674 0.05520258  0.00011649  0.0075295 0.0000
                      *** Initiating the SOSCF procedure ***
                           *** Shutting down DIIS ***
                      *** Re-Reading the Fockian *** 
                      *** Removing any level shift *** 
ITER      Energy       Delta-E        Grad      Rot      Max-DP    RMS-DP
  6  -1488.56514935  -0.0002068757  0.000292  0.000292  0.009048  0.000026
               *** Restarting incremental Fock matrix formation ***
  7  -1488.56513917   0.0000101749  0.000152  0.000918  0.007061  0.000030
  8  -1488.56513844   0.0000007346  0.000218  0.000444  0.000841  0.000008
  9  -1488.56514296  -0.0000045240  0.000063  0.000202  0.001100  0.000006
 10  -1488.56514263   0.0000003322  0.000073  0.000088  0.001017  0.000002
 11  -1488.56514315  -0.0000005196  0.000007  0.000026  0.001580  0.000003
 12  -1488.56514313   0.0000000164  0.000014  0.000019  0.000540  0.000002
 13  -1488.56514312   0.0000000140  0.000003  0.000008  0.000441  0.000002
 14  -1488.56514312  -0.0000000016  0.000004  0.000005  0.000287  0.000001
                  ***Gradient check signals convergence***
              ***Rediagonalizing the Fockian in SOSCF/NRSCF***

               *****************************************************
               *                     SUCCESS                       *
               *           SCF CONVERGED AFTER  15 CYCLES          *
               *****************************************************

Old exchange energy                            =    -48.908040517 Eh
New exchange energy                            =    -48.908088311 Eh
Exchange energy change after final integration =     -0.000047794 Eh
Total energy after final integration           =  -1488.565190993 Eh
Final COS-X integration done in                =    30.387 sec

----------------
TOTAL SCF ENERGY
----------------

Total Energy       :        -1488.56519099 Eh          -40505.91813 eV

Components:
Nuclear Repulsion  :         3405.07336402 Eh           92656.75681 eV
Electronic Energy  :        -4893.63855501 Eh         -133162.67494 eV
One Electron Energy:        -8805.54866340 Eh         -239611.16073 eV
Two Electron Energy:         3911.91010839 Eh          106448.48579 eV
Max COSX asymmetry :            0.00000264 Eh               0.00007 eV
CPCM Dielectric    :           -0.05834566 Eh              -1.58767 eV

Virial components:
Potential Energy   :        -2970.56123394 Eh          -80833.08065 eV
Kinetic Energy     :         1481.99604294 Eh           40327.16252 eV
Virial Ratio       :            2.00443264


DFT components:
N(Alpha)           :      115.000162720489 electrons
N(Beta)            :      115.000162720489 electrons
N(Total)           :      230.000325440977 electrons
E(X)               :     -146.467135664598 Eh       
E(C)               :       -7.769097088342 Eh       
E(XC)              :     -154.236232752940 Eh       
DFET-embed. en.    :        0.000000000000 Eh       
CPCM Solvation Model Properties:
Surface-charge          :           -0.03439160
Charge-correction       :           -0.00047967 Eh              -0.01305 eV
Free-energy (cav+disp)  :  This term is not implemented in the current solvation scheme

---------------
SCF CONVERGENCE
---------------

  Last Energy change         ...   -7.6624e-08  Tolerance :   1.0000e-08
  Last MAX-Density change    ...    1.8874e-15  Tolerance :   1.0000e-07
  Last RMS-Density change    ...    1.2166e-17  Tolerance :   5.0000e-09
  Last Orbital Gradient      ...    5.5413e-07  Tolerance :   1.0000e-05
  Last Orbital Rotation      ...    2.0812e-06  Tolerance :   1.0000e-05

             **** THE GBW FILE WAS UPDATED (TS2_4-OMePh/TS2_4-OMePh.gbw) ****
             **** DENSITY TS2_4-OMePh/TS2_4-OMePh.scfp WAS UPDATED ****
             **** ENERGY FILE WAS UPDATED (TS2_4-OMePh/TS2_4-OMePh.en.tmp) ****
             **** THE GBW FILE WAS UPDATED (TS2_4-OMePh/TS2_4-OMePh.gbw) ****
             **** DENSITY TS2_4-OMePh/TS2_4-OMePh.scfp WAS UPDATED ****
----------------
ORBITAL ENERGIES
----------------

  NO   OCC          E(Eh)            E(eV) 
   0   2.0000     -19.268200      -524.3144 
   1   2.0000     -19.246812      -523.7324 
   2   2.0000     -19.242738      -523.6215 
   3   2.0000     -19.211518      -522.7720 
   4   2.0000     -19.202160      -522.5173 
   5   2.0000     -19.184690      -522.0420 
   6   2.0000     -14.557396      -396.1269 
   7   2.0000     -14.444537      -393.0558 
   8   2.0000     -10.366675      -282.0916 
   9   2.0000     -10.324629      -280.9474 
  10   2.0000     -10.291863      -280.0558 
  11   2.0000     -10.286409      -279.9074 
  12   2.0000     -10.286182      -279.9012 
  13   2.0000     -10.285720      -279.8887 
  14   2.0000     -10.271960      -279.5142 
  15   2.0000     -10.267141      -279.3831 
  16   2.0000     -10.264731      -279.3175 
  17   2.0000     -10.262592      -279.2593 
  18   2.0000     -10.261252      -279.2229 
  19   2.0000     -10.260857      -279.2121 
  20   2.0000     -10.251603      -278.9603 
  21   2.0000     -10.251279      -278.9515 
  22   2.0000     -10.240576      -278.6602 
  23   2.0000     -10.239978      -278.6440 
  24   2.0000     -10.229871      -278.3689 
  25   2.0000     -10.229759      -278.3659 
  26   2.0000     -10.228455      -278.3304 
  27   2.0000     -10.226498      -278.2772 
  28   2.0000     -10.223982      -278.2087 
  29   2.0000     -10.222813      -278.1769 
  30   2.0000     -10.222605      -278.1712 
  31   2.0000     -10.221945      -278.1533 
  32   2.0000      -1.194638       -32.5078 
  33   2.0000      -1.156748       -31.4767 
  34   2.0000      -1.109830       -30.2000 
  35   2.0000      -1.104087       -30.0437 
  36   2.0000      -1.062702       -28.9176 
  37   2.0000      -1.022379       -27.8203 
[...]
 79:    996.78   0.025461  128.67  0.007971  ( 0.066555 -0.055152  0.022356)
 80:   1015.48   0.000030    0.15  0.000009  (-0.000327 -0.002315 -0.001907)
 81:   1027.15   0.004407   22.27  0.001339  (-0.028118  0.021490 -0.009305)
 82:   1038.46   0.010165   51.37  0.003055  ( 0.046572  0.016660 -0.024661)
 83:   1040.72   0.000010    0.05  0.000003  (-0.000830  0.001029  0.001089)
 84:   1061.15   0.000102    0.52  0.000030  ( 0.005479  0.000261  0.000027)
 85:   1070.46   0.010407   52.59  0.003034  ( 0.002009 -0.043317  0.033964)
 86:   1080.44   0.033320  168.39  0.009624  ( 0.082442  0.037847  0.037348)
 87:   1083.22   0.010953   55.35  0.003156  (-0.038770  0.006469  0.040132)
 88:   1084.33   0.006614   33.43  0.001904  (-0.004688 -0.027374  0.033649)
 89:   1094.98   0.014633   73.95  0.004170  (-0.046902  0.021424  0.038880)
 90:   1104.44   0.021037  106.31  0.005944  (-0.014693  0.075493 -0.005394)
 91:   1113.36   0.000813    4.11  0.000228  (-0.011897  0.007193  0.005882)
 92:   1137.38   0.018806   95.04  0.005160  ( 0.000672 -0.049321  0.052220)
 93:   1139.26   0.006978   35.26  0.001911  ( 0.024447  0.018438 -0.031205)
 94:   1163.40   0.060103  303.73  0.016122  ( 0.111059 -0.060230  0.012641)
 95:   1168.11   0.000646    3.27  0.000173  ( 0.002822  0.005947  0.011374)
 96:   1170.88   0.000100    0.50  0.000027  (-0.004777  0.001917 -0.000149)
 97:   1171.16   0.000164    0.83  0.000044  ( 0.001043  0.004250  0.004965)
 98:   1171.69   0.000371    1.87  0.000099  ( 0.001044  0.005776 -0.008021)
 99:   1174.55   0.002186   11.05  0.000581  ( 0.001607  0.020597 -0.012409)
100:   1193.75   0.000705    3.56  0.000184  ( 0.003760  0.010356 -0.007937)
101:   1202.14   0.003657   18.48  0.000949  (-0.027353  0.008561 -0.011301)
102:   1206.19   0.001782    9.01  0.000461  (-0.020922 -0.001206  0.004687)
103:   1208.48   0.000667    3.37  0.000172  ( 0.010209 -0.002750  0.007776)
104:   1212.65   0.001840    9.30  0.000474  ( 0.018985  0.007558 -0.007481)
105:   1233.58   0.003404   17.20  0.000861  (-0.006916 -0.017355  0.022629)
106:   1241.01   0.004708   23.79  0.001184  ( 0.033031 -0.000548 -0.009617)
107:   1254.97   0.008500   42.95  0.002114  ( 0.018972  0.036156 -0.021128)
108:   1280.46   0.035073  177.25  0.008548  ( 0.040030 -0.006080 -0.083117)
109:   1295.29   0.085171  430.42  0.020520  ( 0.090122 -0.101784  0.045143)
110:   1299.13   0.050108  253.23  0.012037  ( 0.038025 -0.021693  0.100599)
111:   1301.74   0.064229  324.59  0.015398  (-0.104183 -0.019616  0.064487)
112:   1310.41   0.036604  184.98  0.008717  (-0.022277 -0.062620 -0.065571)
113:   1324.23   0.020940  105.82  0.004935  (-0.042403 -0.037216 -0.041851)
114:   1341.30   0.012482   63.08  0.002904  (-0.050358 -0.008119  0.017381)
115:   1344.45   0.011272   56.96  0.002616  (-0.035003 -0.001164  0.037279)
116:   1355.23   0.053751  271.63  0.012377  ( 0.103785  0.038932  0.009487)
117:   1373.94   0.008181   41.34  0.001858  (-0.033127 -0.026850 -0.006303)
118:   1386.65   0.000628    3.17  0.000141  (-0.000895 -0.005898  0.010282)
119:   1399.59   0.009292   46.96  0.002072  ( 0.030960  0.006772  0.032673)
120:   1423.06   0.042395  214.25  0.009297  ( 0.030405 -0.064494  0.064907)
121:   1454.98   0.002828   14.29  0.000606  ( 0.006277 -0.020784  0.011623)
122:   1465.85   0.005486   27.72  0.001168  (-0.005239  0.009259  0.032475)
123:   1466.14   0.003349   16.93  0.000713  ( 0.015549  0.006808 -0.020610)
124:   1469.00   0.002802   14.16  0.000595  (-0.016676  0.003997 -0.017354)
125:   1470.41   0.012983   65.61  0.002755  (-0.026160 -0.030409 -0.033857)
126:   1472.62   0.003154   15.94  0.000668  (-0.023208  0.011295 -0.001463)
127:   1472.86   0.002874   14.52  0.000609  (-0.000612  0.018956  0.015784)
128:   1473.70   0.001568    7.92  0.000332  (-0.011825  0.013318 -0.003855)
129:   1481.96   0.004855   24.54  0.001022  ( 0.001853  0.003105  0.031770)
130:   1487.00   0.008435   42.63  0.001770  (-0.035048  0.019166 -0.013213)
131:   1495.28   0.013460   68.02  0.002809  (-0.020811 -0.006254 -0.048340)
132:   1497.76   0.010305   52.08  0.002147  ( 0.008743  0.005449 -0.045178)
133:   1529.02   0.001034    5.23  0.000211  ( 0.005338  0.013503 -0.000559)
134:   1537.48   0.034832  176.03  0.007070  (-0.007423 -0.000331  0.083754)
135:   1556.77   0.063761  322.22  0.012781  ( 0.095359 -0.050960  0.033030)
136:   1612.32   0.111517  563.56  0.021584  (-0.015069  0.123513 -0.078113)
137:   1629.79   0.054606  275.95  0.010456  ( 0.014466 -0.085488  0.054205)
138:   1649.67   0.001078    5.45  0.000204  ( 0.007603  0.004722  0.011130)
139:   1650.08   0.002205   11.14  0.000417  ( 0.007288 -0.000907 -0.019053)
140:   1663.74   0.012112   61.21  0.002272  (-0.000324  0.007200  0.047115)
141:   1668.08   0.013304   67.23  0.002489  ( 0.041592  0.013246 -0.024158)
142:   1669.57   0.034834  176.04  0.006511  ( 0.058313 -0.048989  0.026655)
143:   1790.75   0.121910  616.08  0.021245  ( 0.096424 -0.097984  0.048437)
144:   3033.91   0.014804   74.81  0.001523  (-0.038477  0.002036  0.006175)
145:   3038.49   0.012633   63.84  0.001297  (-0.012645 -0.024751  0.022911)
146:   3074.01   0.005876   29.69  0.000596  (-0.003410 -0.020655 -0.012579)
147:   3103.68   0.008319   42.04  0.000836  (-0.004274 -0.018851 -0.021513)
148:   3110.45   0.007605   38.43  0.000763  (-0.024710  0.012146 -0.002202)
149:   3121.71   0.000617    3.12  0.000062  (-0.000363  0.005344  0.005744)
150:   3158.27   0.003580   18.09  0.000354  (-0.013016 -0.005724  0.012310)
151:   3164.07   0.004434   22.41  0.000437  (-0.010571  0.014501 -0.010735)
152:   3166.79   0.003559   17.99  0.000351  ( 0.001681  0.007652  0.017010)
153:   3185.64   0.000246    1.25  0.000024  ( 0.002171  0.004063 -0.001706)
154:   3193.00   0.001853    9.36  0.000181  ( 0.009910 -0.003127  0.008550)
155:   3196.04   0.001327    6.71  0.000130  (-0.004402 -0.010442 -0.001088)
156:   3198.79   0.000696    3.52  0.000068  ( 0.007789  0.002675 -0.000305)
157:   3200.37   0.002008   10.15  0.000196  ( 0.004296 -0.011004  0.007502)
158:   3206.35   0.000989    5.00  0.000096  ( 0.007673  0.003429 -0.005066)
159:   3213.24   0.000022    0.11  0.000002  (-0.000511 -0.000192 -0.001373)
160:   3213.52   0.003103   15.68  0.000301  (-0.001148 -0.004548 -0.016713)
161:   3222.05   0.000930    4.70  0.000090  ( 0.008989 -0.003043 -0.000111)
162:   3224.67   0.000686    3.47  0.000066  ( 0.007136  0.000549  0.003900)
163:   3230.64   0.000431    2.18  0.000042  (-0.002784 -0.005273  0.002458)
164:   3230.84   0.000141    0.71  0.000014  ( 0.001040  0.000243  0.003527)
165:   3234.91   0.000329    1.66  0.000032  (-0.004921 -0.001182  0.002483)
166:   3257.97   0.001650    8.34  0.000158  (-0.008540  0.007663 -0.005140)
167:   3278.01   0.000334    1.69  0.000032  ( 0.004651 -0.000662 -0.003121)

* The epsilon (eps) is given for a Dirac delta lineshape.
** The dipole moment derivative (T) already includes vibrational overlap.

The first frequency considered to be a vibration is 7
The total number of vibrations considered is 161


--------------------------
THERMOCHEMISTRY AT 298.15K
--------------------------

Temperature         ... 298.15 K
Pressure            ... 1.00 atm
Total Mass          ... 436.46 AMU

Throughout the following assumptions are being made:
  (1) The electronic state is orbitally nondegenerate
  (2) There are no thermally accessible electronically excited states
  (3) Hindered rotations indicated by low frequency modes are not
      treated as such but are treated as vibrations and this may
      cause some error
  (4) All equations used are the standard statistical mechanics
      equations for an ideal gas
  (5) All vibrations are strictly harmonic

freq.      15.71  E(vib)   ...       0.57 
freq.      30.71  E(vib)   ...       0.55 
freq.      37.23  E(vib)   ...       0.54 
freq.      43.26  E(vib)   ...       0.53 
freq.      48.06  E(vib)   ...       0.53 
freq.      55.79  E(vib)   ...       0.52 
freq.      60.84  E(vib)   ...       0.51 
freq.      62.96  E(vib)   ...       0.51 
freq.      76.24  E(vib)   ...       0.49 
freq.      80.44  E(vib)   ...       0.48 
freq.      96.50  E(vib)   ...       0.47 
freq.     104.55  E(vib)   ...       0.46 
freq.     121.02  E(vib)   ...       0.44 
freq.     129.75  E(vib)   ...       0.43 
freq.     146.81  E(vib)   ...       0.41 
freq.     154.61  E(vib)   ...       0.40 
freq.     155.26  E(vib)   ...       0.40 
freq.     173.37  E(vib)   ...       0.38 
freq.     180.30  E(vib)   ...       0.37 
freq.     189.76  E(vib)   ...       0.36 
freq.     202.79  E(vib)   ...       0.35 
freq.     226.89  E(vib)   ...       0.33 
freq.     237.64  E(vib)   ...       0.32 
freq.     243.94  E(vib)   ...       0.31 
freq.     250.65  E(vib)   ...       0.30 
freq.     263.62  E(vib)   ...       0.29 
freq.     283.51  E(vib)   ...       0.28 
freq.     293.97  E(vib)   ...       0.27 
freq.     310.22  E(vib)   ...       0.26 
freq.     326.07  E(vib)   ...       0.24 
freq.     335.60  E(vib)   ...       0.24 
freq.     365.55  E(vib)   ...       0.22 
freq.     395.26  E(vib)   ...       0.20 
freq.     426.61  E(vib)   ...       0.18 
freq.     427.44  E(vib)   ...       0.18 
freq.     447.86  E(vib)   ...       0.17 
freq.     457.17  E(vib)   ...       0.16 
freq.     484.80  E(vib)   ...       0.15 
freq.     495.52  E(vib)   ...       0.14 
freq.     510.06  E(vib)   ...       0.14 
freq.     544.02  E(vib)   ...       0.12 
freq.     557.97  E(vib)   ...       0.12 
freq.     584.92  E(vib)   ...       0.11 
freq.     609.55  E(vib)   ...       0.10 
freq.     617.15  E(vib)   ...       0.09 
freq.     635.91  E(vib)   ...       0.09 
freq.     642.97  E(vib)   ...       0.09 
freq.     648.07  E(vib)   ...       0.08 
freq.     659.83  E(vib)   ...       0.08 
freq.     698.42  E(vib)   ...       0.07 
freq.     711.52  E(vib)   ...       0.07 
freq.     719.95  E(vib)   ...       0.07 
freq.     726.70  E(vib)   ...       0.06 
freq.     753.66  E(vib)   ...       0.06 
freq.     763.92  E(vib)   ...       0.06 
freq.     769.12  E(vib)   ...       0.06 
freq.     776.83  E(vib)   ...       0.05 
freq.     780.23  E(vib)   ...       0.05 
freq.     806.92  E(vib)   ...       0.05 
freq.     816.10  E(vib)   ...       0.05 
freq.     828.95  E(vib)   ...       0.04 
freq.     839.59  E(vib)   ...       0.04 
freq.     858.14  E(vib)   ...       0.04 
freq.     872.81  E(vib)   ...       0.04 
freq.     880.67  E(vib)   ...       0.04 
freq.     893.68  E(vib)   ...       0.03 
freq.     901.88  E(vib)   ...       0.03 
freq.     966.11  E(vib)   ...       0.03 
freq.     967.31  E(vib)   ...       0.03 
freq.     979.12  E(vib)   ...       0.03 
freq.     984.32  E(vib)   ...       0.02 
freq.     996.00  E(vib)   ...       0.02 
freq.     996.78  E(vib)   ...       0.02 
freq.    1015.48  E(vib)   ...       0.02 
freq.    1027.15  E(vib)   ...       0.02 
freq.    1038.46  E(vib)   ...       0.02 
freq.    1040.72  E(vib)   ...       0.02 
freq.    1061.15  E(vib)   ...       0.02 
freq.    1070.46  E(vib)   ...       0.02 
freq.    1080.44  E(vib)   ...       0.02 
freq.    1083.22  E(vib)   ...       0.02 
freq.    1084.33  E(vib)   ...       0.02 
freq.    1094.98  E(vib)   ...       0.02 
freq.    1104.44  E(vib)   ...       0.02 
freq.    1113.36  E(vib)   ...       0.01 
freq.    1137.38  E(vib)   ...       0.01 
freq.    1139.26  E(vib)   ...       0.01 
freq.    1163.40  E(vib)   ...       0.01 
freq.    1168.11  E(vib)   ...       0.01 
freq.    1170.88  E(vib)   ...       0.01 
freq.    1171.16  E(vib)   ...       0.01 
freq.    1171.69  E(vib)   ...       0.01 
freq.    1174.55  E(vib)   ...       0.01 
freq.    1193.75  E(vib)   ...       0.01 
freq.    1202.14  E(vib)   ...       0.01 
freq.    1206.19  E(vib)   ...       0.01 
freq.    1208.48  E(vib)   ...       0.01 
freq.    1212.65  E(vib)   ...       0.01 
freq.    1233.58  E(vib)   ...       0.01 
freq.    1241.01  E(vib)   ...       0.01 
freq.    1254.97  E(vib)   ...       0.01 
freq.    1280.46  E(vib)   ...       0.01 
freq.    1295.29  E(vib)   ...       0.01 
freq.    1299.13  E(vib)   ...       0.01 
freq.    1301.74  E(vib)   ...       0.01 
freq.    1310.41  E(vib)   ...       0.01 
freq.    1324.23  E(vib)   ...       0.01 
freq.    1341.30  E(vib)   ...       0.01 
freq.    1344.45  E(vib)   ...       0.01 
freq.    1355.23  E(vib)   ...       0.01 
freq.    1373.94  E(vib)   ...       0.01 
freq.    1386.65  E(vib)   ...       0.00 
freq.    1399.59  E(vib)   ...       0.00 
freq.    1423.06  E(vib)   ...       0.00 
freq.    1454.98  E(vib)   ...       0.00 
freq.    1465.85  E(vib)   ...       0.00 
freq.    1466.14  E(vib)   ...       0.00 
freq.    1469.00  E(vib)   ...       0.00 
freq.    1470.41  E(vib)   ...       0.00 
freq.    1472.62  E(vib)   ...       0.00 
freq.    1472.86  E(vib)   ...       0.00 
freq.    1473.70  E(vib)   ...       0.00 
freq.    1481.96  E(vib)   ...       0.00 
freq.    1487.00  E(vib)   ...       0.00 
freq.    1495.28  E(vib)   ...       0.00 
freq.    1497.76  E(vib)   ...       0.00 
freq.    1529.02  E(vib)   ...       0.00 
freq.    1537.48  E(vib)   ...       0.00 
freq.    1556.77  E(vib)   ...       0.00 
freq.    1612.32  E(vib)   ...       0.00 
freq.    1629.79  E(vib)   ...       0.00 
freq.    1649.67  E(vib)   ...       0.00 
freq.    1650.08  E(vib)   ...       0.00 
freq.    1663.74  E(vib)   ...       0.00 
freq.    1668.08  E(vib)   ...       0.00 
freq.    1669.57  E(vib)   ...       0.00 
freq.    1790.75  E(vib)   ...       0.00 
freq.    3033.91  E(vib)   ...       0.00 
freq.    3038.49  E(vib)   ...       0.00 
freq.    3074.01  E(vib)   ...       0.00 
freq.    3103.68  E(vib)   ...       0.00 
freq.    3110.45  E(vib)   ...       0.00 
freq.    3121.71  E(vib)   ...       0.00 
freq.    3158.27  E(vib)   ...       0.00 
freq.    3164.07  E(vib)   ...       0.00 
freq.    3166.79  E(vib)   ...       0.00 
freq.    3185.64  E(vib)   ...       0.00 
freq.    3193.00  E(vib)   ...       0.00 
freq.    3196.04  E(vib)   ...       0.00 
freq.    3198.79  E(vib)   ...       0.00 
freq.    3200.37  E(vib)   ...       0.00 
freq.    3206.35  E(vib)   ...       0.00 
freq.    3213.24  E(vib)   ...       0.00 
freq.    3213.52  E(vib)   ...       0.00 
freq.    3222.05  E(vib)   ...       0.00 
freq.    3224.67  E(vib)   ...       0.00 
freq.    3230.64  E(vib)   ...       0.00 
freq.    3230.84  E(vib)   ...       0.00 
freq.    3234.91  E(vib)   ...       0.00 
freq.    3257.97  E(vib)   ...       0.00 
freq.    3278.01  E(vib)   ...       0.00 

------------
INNER ENERGY
------------

The inner energy is: U= E(el) + E(ZPE) + E(vib) + E(rot) + E(trans)
    E(el)   - is the total energy from the electronic structure calculation
              = E(kin-el) + E(nuc-el) + E(el-el) + E(nuc-nuc)
    E(ZPE)  - the the zero temperature vibrational energy from the frequency calculation
    E(vib)  - the the finite temperature correction to E(ZPE) due to population
              of excited vibrational states
    E(rot)  - is the rotational thermal energy
    E(trans)- is the translational thermal energy

Summary of contributions to the inner energy U:
Electronic energy                ...  -1488.63980261 Eh
Zero point energy                ...      0.44642636 Eh     280.14 kcal/mol
Thermal vibrational correction   ...      0.02629266 Eh      16.50 kcal/mol
Thermal rotational correction    ...      0.00141627 Eh       0.89 kcal/mol
Thermal translational correction ...      0.00141627 Eh       0.89 kcal/mol
-----------------------------------------------------------------------
Total thermal energy                  -1488.16425105 Eh


Summary of corrections to the electronic energy:
(perhaps to be used in another calculation)
Total thermal correction                  0.02912520 Eh      18.28 kcal/mol
Non-thermal (ZPE) correction              0.44642636 Eh     280.14 kcal/mol
-----------------------------------------------------------------------
Total correction                          0.47555156 Eh     298.41 kcal/mol


--------
ENTHALPY
--------

The enthalpy is H = U + kB*T
                kB is Boltzmann's constant
Total free energy                 ...  -1488.16425105 Eh 
Thermal Enthalpy correction       ...      0.00094421 Eh       0.59 kcal/mol
-----------------------------------------------------------------------
Total Enthalpy                    ...  -1488.16330684 Eh


Note: Only C1 symmetry has been detected, increase convergence thresholds 
      if your molecule has a higher symmetry. Symmetry factor of 1.0 is   
      used for the rotational entropy correction. 
 

Note: Rotational entropy computed according to Herzberg 
Infrared and Raman Spectra, Chapter V,1, Van Nostrand Reinhold, 1945 
Point Group:  C1, Symmetry Number:   1  
Rotational constants in cm-1:     0.006456     0.003623     0.003053 

Vibrational entropy computed according to the QRRHO of S. Grimme
Chem.Eur.J. 2012 18 9955


-------
ENTROPY
-------

The entropy contributions are T*S = T*(S(el)+S(vib)+S(rot)+S(trans))
     S(el)   - electronic entropy
     S(vib)  - vibrational entropy
     S(rot)  - rotational entropy
     S(trans)- translational entropy
The entropies will be listed as multiplied by the temperature to get
units of energy

Electronic entropy                ...      0.00000000 Eh      0.00 kcal/mol
Vibrational entropy               ...      0.04738506 Eh     29.73 kcal/mol
Rotational entropy                ...      0.01727897 Eh     10.84 kcal/mol
Translational entropy             ...      0.02095817 Eh     13.15 kcal/mol
-----------------------------------------------------------------------
Final entropy term                ...      0.08562219 Eh     53.73 kcal/mol

In case the symmetry of your molecule has not been determined correctly
or in case you have a reason to use a different symmetry number we print 
out the resulting rotational entropy values for sn=1,12 :
 --------------------------------------------------------
|  sn= 1 | S(rot)=       0.01727897 Eh     10.84 kcal/mol|
|  sn= 2 | S(rot)=       0.01662451 Eh     10.43 kcal/mol|
|  sn= 3 | S(rot)=       0.01624168 Eh     10.19 kcal/mol|
|  sn= 4 | S(rot)=       0.01597005 Eh     10.02 kcal/mol|
|  sn= 5 | S(rot)=       0.01575937 Eh      9.89 kcal/mol|
|  sn= 6 | S(rot)=       0.01558722 Eh      9.78 kcal/mol|
|  sn= 7 | S(rot)=       0.01544168 Eh      9.69 kcal/mol|
|  sn= 8 | S(rot)=       0.01531560 Eh      9.61 kcal/mol|
|  sn= 9 | S(rot)=       0.01520439 Eh      9.54 kcal/mol|
|  sn=10 | S(rot)=       0.01510491 Eh      9.48 kcal/mol|
|  sn=11 | S(rot)=       0.01501492 Eh      9.42 kcal/mol|
|  sn=12 | S(rot)=       0.01493276 Eh      9.37 kcal/mol|
 --------------------------------------------------------


-------------------
GIBBS FREE ENERGY
-------------------

The Gibbs free energy is G = H - T*S

Total enthalpy                    ...  -1488.16330684 Eh 
Total entropy correction          ...     -0.08562219 Eh    -53.73 kcal/mol
-----------------------------------------------------------------------
Final Gibbs free energy         ...  -1488.24892903 Eh

For completeness - the Gibbs free energy minus the electronic energy
G-E(el)                           ...      0.39087358 Eh    245.28 kcal/mol


Timings for individual modules:

Sum of individual times         ...    12671.812 sec (= 211.197 min)
GTO integral calculation        ...       88.285 sec (=   1.471 min)   0.7 %
SCF iterations                  ...     5583.518 sec (=  93.059 min)  44.1 %
SCF Gradient evaluation         ...     1493.715 sec (=  24.895 min)  11.8 %
Geometry relaxation             ...        6.713 sec (=   0.112 min)   0.1 %
Analytical frequency calculation...     5499.581 sec (=  91.660 min)  43.4 %
                             ****ORCA TERMINATED NORMALLY****
TOTAL RUN TIME: 0 days 3 hours 32 minutes 28 seconds 60 msec
