
                                 *****************
                                 * O   R   C   A *
                                 *****************

                                            #,                                       
                                            ###                                      
                                            ####                                     
                                            #####                                    
                                            ######                                   
                                           ########,                                 
                                     ,,################,,,,,                         
                               ,,#################################,,                 
                          ,,##########################################,,             
                       ,#########################################, ''#####,          
                    ,#############################################,,   '####,        
                  ,##################################################,,,,####,       
                ,###########''''           ''''###############################       
              ,#####''   ,,,,##########,,,,          '''####'''          '####       
            ,##' ,,,,###########################,,,                        '##       
           ' ,,###''''                  '''############,,,                           
         ,,##''                                '''############,,,,        ,,,,,,###''
      ,#''                                            '''#######################'''  
     '                                                          ''''####''''         
             ,#######,   #######,   ,#######,      ##                                
            ,#'     '#,  ##    ##  ,#'     '#,    #''#        ######   ,####,        
            ##       ##  ##   ,#'  ##            #'  '#       #        #'  '#        
            ##       ##  #######   ##           ,######,      #####,   #    #        
            '#,     ,#'  ##    ##  '#,     ,#' ,#      #,         ##   #,  ,#        
             '#######'   ##     ##  '#######'  #'      '#     #####' # '####'        



                  #######################################################
                  #                        -***-                        #
                  #          Department of theory and spectroscopy      #
                  #    Directorship and core code : Frank Neese         #
                  #        Max Planck Institute fuer Kohlenforschung    #
                  #                Kaiser Wilhelm Platz 1               #
                  #                 D-45470 Muelheim/Ruhr               #
                  #                      Germany                        #
                  #                                                     #
                  #                  All rights reserved                #
                  #                        -***-                        #
                  #######################################################


                         Program Version 5.0.4 -  RELEASE  -


 With contributions from (in alphabetic order):
   Daniel Aravena         : Magnetic Suceptibility
   Michael Atanasov       : Ab Initio Ligand Field Theory (pilot matlab implementation)
   Alexander A. Auer      : GIAO ZORA, VPT2 properties, NMR spectrum
   Ute Becker             : Parallelization
   Giovanni Bistoni       : ED, misc. LED, open-shell LED, HFLD
   Martin Brehm           : Molecular dynamics
   Dmytro Bykov           : SCF Hessian
   Vijay G. Chilkuri      : MRCI spin determinant printing, contributions to CSF-ICE
   Dipayan Datta          : RHF DLPNO-CCSD density
   Achintya Kumar Dutta   : EOM-CC, STEOM-CC
   Dmitry Ganyushin       : Spin-Orbit,Spin-Spin,Magnetic field MRCI
   Miquel Garcia          : C-PCM and meta-GGA Hessian, CC/C-PCM, Gaussian charge scheme
   Yang Guo               : DLPNO-NEVPT2, F12-NEVPT2, CIM, IAO-localization
   Andreas Hansen         : Spin unrestricted coupled pair/coupled cluster methods
   Benjamin Helmich-Paris : MC-RPA, TRAH-SCF, COSX integrals
   Lee Huntington         : MR-EOM, pCC
   Robert Izsak           : Overlap fitted RIJCOSX, COSX-SCS-MP3, EOM
   Marcus Kettner         : VPT2
   Christian Kollmar      : KDIIS, OOCD, Brueckner-CCSD(T), CCSD density, CASPT2, CASPT2-K
   Simone Kossmann        : Meta GGA functionals, TD-DFT gradient, OOMP2, MP2 Hessian
   Martin Krupicka        : Initial AUTO-CI
   Lucas Lang             : DCDCAS
   Marvin Lechner         : AUTO-CI (C++ implementation), FIC-MRCC
   Dagmar Lenk            : GEPOL surface, SMD
   Dimitrios Liakos       : Extrapolation schemes; Compound Job, initial MDCI parallelization
   Dimitrios Manganas     : Further ROCIS development; embedding schemes
   Dimitrios Pantazis     : SARC Basis sets
   Anastasios Papadopoulos: AUTO-CI, single reference methods and gradients
   Taras Petrenko         : DFT Hessian,TD-DFT gradient, ASA, ECA, R-Raman, ABS, FL, XAS/XES, NRVS
   Peter Pinski           : DLPNO-MP2, DLPNO-MP2 Gradient
   Christoph Reimann      : Effective Core Potentials
   Marius Retegan         : Local ZFS, SOC
   Christoph Riplinger    : Optimizer, TS searches, QM/MM, DLPNO-CCSD(T), (RO)-DLPNO pert. Triples
   Tobias Risthaus        : Range-separated hybrids, TD-DFT gradient, RPA, STAB
   Michael Roemelt        : Original ROCIS implementation
   Masaaki Saitow         : Open-shell DLPNO-CCSD energy and density
   Barbara Sandhoefer     : DKH picture change effects
   Avijit Sen             : IP-ROCIS
   Kantharuban Sivalingam : CASSCF convergence, NEVPT2, FIC-MRCI
   Bernardo de Souza      : ESD, SOC TD-DFT
   Georgi Stoychev        : AutoAux, RI-MP2 NMR, DLPNO-MP2 response
   Willem Van den Heuvel  : Paramagnetic NMR
   Boris Wezisla          : Elementary symmetry handling
   Frank Wennmohs         : Technical directorship


 We gratefully acknowledge several colleagues who have allowed us to
 interface, adapt or use parts of their codes:
   Stefan Grimme, W. Hujo, H. Kruse, P. Pracht,  : VdW corrections, initial TS optimization,
                  C. Bannwarth, S. Ehlert          DFT functionals, gCP, sTDA/sTD-DF
   Ed Valeev, F. Pavosevic, A. Kumar             : LibInt (2-el integral package), F12 methods
   Garnet Chan, S. Sharma, J. Yang, R. Olivares  : DMRG
   Ulf Ekstrom                                   : XCFun DFT Library
   Mihaly Kallay                                 : mrcc  (arbitrary order and MRCC methods)
   Jiri Pittner, Ondrej Demel                    : Mk-CCSD
   Frank Weinhold                                : gennbo (NPA and NBO analysis)
   Christopher J. Cramer and Donald G. Truhlar   : smd solvation model
   Lars Goerigk                                  : TD-DFT with DH, B97 family of functionals
   V. Asgeirsson, H. Jonsson                     : NEB implementation
   FAccTs GmbH                                   : IRC, NEB, NEB-TS, DLPNO-Multilevel, CI-OPT
                                                   MM, QMMM, 2- and 3-layer-ONIOM, Crystal-QMMM,
                                                   LR-CPCM, SF, NACMEs, symmetry and pop. for TD-DFT,
                                                   nearIR, NL-DFT gradient (VV10), updates on ESD,
                                                   ML-optimized integration grids
   S Lehtola, MJT Oliveira, MAL Marques          : LibXC Library
   Liviu Ungur et al                             : ANISO software


 Your calculation uses the libint2 library for the computation of 2-el integrals
 For citations please refer to: http://libint.valeyev.net

 Your ORCA version has been built with support for libXC version: 5.1.0
 For citations please refer to: https://tddft.org/programs/libxc/

 This ORCA versions uses:
   CBLAS   interface :  Fast vector & matrix operations
   LAPACKE interface :  Fast linear algebra routines
   SCALAPACK package :  Parallel linear algebra routines
   Shared memory     :  Shared parallel matrices
   BLAS/LAPACK       :  OpenBLAS 0.3.15  USE64BITINT DYNAMIC_ARCH NO_AFFINITY Haswell SINGLE_THREADED
        Core in use  :  Haswell
   Copyright (c) 2011-2014, The OpenBLAS Project


Your calculation utilizes the atom-pairwise dispersion correction
with the Becke-Johnson damping scheme (D3BJ)
Cite in your paper:
S.Grimme, S.Ehrlich, L.Goerigk, J Comput Chem, (2011), 32, 1456–1465 
S.Grimme, J.Antony, S.Ehrlich and H.Krieg, J.Chem.Phys., 132, (2010), 154104 
   

================================================================================

----- Orbital basis set information -----
Your calculation utilizes the basis: def2-TZVP
   F. Weigend and R. Ahlrichs, Phys. Chem. Chem. Phys. 7, 3297 (2005).

----- AuxJ basis set information -----
Your calculation utilizes the auxiliary basis: def2/J
   F. Weigend, Phys. Chem. Chem. Phys. 8, 1057 (2006).

================================================================================
                                        WARNINGS
                       Please study these warnings very carefully!
================================================================================


WARNING: Geometry Optimization
  ===> : Switching off AutoStart
         For restart on a previous wavefunction, please use MOREAD

INFO   : the flag for use of the SHARK integral package has been found!

================================================================================
                                       INPUT FILE
================================================================================
NAME = TS2_H/TS2_H.inp
|  1> %pal nprocs 24 end
|  2> %maxcore 3500
|  3> ! PBE0 D3BJ def2-TZVP TightSCF OPTTS FREQ TightOpt
|  4> ! CPCM(dmso)
|  5> %scf
|  6> MaxIter 800
|  7> end
|  8> %geom
|  9> calc_hess True
| 10> MaxIter 800
| 11> MaxStep 0.2
| 12> end
| 13> *xyz 0 1
| 14> C       -4.311526000      1.048232000      0.368972000
| 15> C       -3.823076000      0.725982000     -0.896345000
| 16> C       -2.451876000      0.785041000     -1.113683000
| 17> N       -1.607575000      1.133030000     -0.143679000
| 18> C       -2.057366000      1.439783000      1.072644000
| 19> C       -3.415048000      1.417297000      1.369658000
| 20> C        0.324457000      1.033238000     -0.609404000
| 21> C        0.609653000      2.366594000     -0.000957000
| 22> O        0.960406000      2.517544000      1.146813000
| 23> O        0.388669000      3.351262000     -0.856754000
| 24> C        0.633127000      4.670216000     -0.381324000
| 25> H       -5.384167000      1.011246000      0.573268000
| 26> H       -2.014076000      0.537675000     -2.085464000
| 27> H       -1.307435000      1.710917000      1.821382000
| 28> H       -3.755254000      1.678344000      2.373090000
| 29> H        0.021142000      0.993298000     -1.651967000
| 30> H        0.382534000      5.343653000     -1.208119000
| 31> H        1.689848000      4.789625000     -0.102090000
| 32> C        2.080414000     -0.437836000      0.252536000
| 33> C        0.603677000     -0.235484000      0.186099000
| 34> C       -0.135357000     -1.420100000     -0.408415000
| 35> C        0.201789000     -1.894532000     -1.675319000
| 36> C       -0.494660000     -2.948178000     -2.266924000
| 37> C       -1.545926000     -3.540930000     -1.570532000
| 38> C       -1.898358000     -3.091328000     -0.297852000
| 39> C       -1.195180000     -2.031999000      0.289705000
| 40> O       -1.478398000     -1.534716000      1.510919000
| 41> C       -2.600715000     -2.017910000      2.209625000
| 42> N        2.811664000      0.295985000     -0.548366000
| 43> O        4.049451000      0.262151000     -0.665205000
| 44> H        0.229067000     -0.075348000      1.207374000
| 45> H        1.026466000     -1.414113000     -2.210459000
| 46> H       -0.218460000     -3.301572000     -3.262771000
| 47> H       -2.105251000     -4.367467000     -2.016318000
| 48> H       -2.722971000     -3.568503000      0.232571000
| 49> H       -2.491387000     -3.085071000      2.464590000
| 50> H       -3.526523000     -1.877343000      1.627449000
| 51> H       -2.666950000     -1.431322000      3.134112000
| 52> O        2.150028000      1.158977000     -1.303937000
| 53> H        0.002207000      4.889239000      0.492018000
| 54> H       -4.489628000      0.429494000     -1.707841000
| 55> H        2.579628000     -1.161426000      0.892941000
| 56> *
| 57> 
| 58>                          ****END OF INPUT****
================================================================================

                       *****************************
                       * Geometry Optimization Run *
                       *****************************

Geometry optimization settings:
Update method            Update   .... Bofill
Choice of coordinates    CoordSys .... Z-matrix Internals
Initial Hessian          InHess   .... Almoef's Model

Convergence Tolerances:
Energy Change            TolE     ....  1.0000e-06 Eh
Max. Gradient            TolMAXG  ....  1.0000e-04 Eh/bohr
RMS Gradient             TolRMSG  ....  3.0000e-05 Eh/bohr
Max. Displacement        TolMAXD  ....  1.0000e-03 bohr
RMS Displacement         TolRMSD  ....  6.0000e-04 bohr
Strict Convergence                ....  False
------------------------------------------------------------------------------
                        ORCA OPTIMIZATION COORDINATE SETUP
------------------------------------------------------------------------------

The optimization will be done in new redundant internal coordinates
Making redundant internal coordinates   ...  (new redundants) done
Following TS mode number                ...     0
Evaluating the initial hessian          ...  (Is done on the fly) done
Evaluating the coordinates              ...  done
Calculating the B-matrix                .... done
Calculating the G-matrix                .... done
Diagonalizing the G-matrix              .... done
Small eigenvalue found = 4.823e-03
Small eigenvalue found = 1.196e-02
Small eigenvalue found = 1.985e-02
Small eigenvalue found = 2.736e-02
The first mode is                       ....  141
The number of degrees of freedom        ....  120

    -----------------------------------------------------------------
                    Redundant Internal Coordinates


    -----------------------------------------------------------------
         Definition                    Initial Value    d2E/dq (diagonal element)
    -----------------------------------------------------------------
      1. B(C   1,C   0)                  1.3941         0.000000   
      2. B(C   2,C   1)                  1.3896         0.000000   
      3. B(N   3,C   2)                  1.3322         0.000000   
      4. B(C   4,N   3)                  1.3326         0.000000   
      5. B(C   5,C   4)                  1.3900         0.000000   
      6. B(C   5,C   0)                  1.3933         0.000000   
      7. B(C   6,N   3)                  1.9899         0.000000   
      8. B(C   7,C   6)                  1.4931         0.000000   
      9. B(C   7,N   3)                  2.5413         0.000000   
     10. B(O   8,C   7)                  1.2096         0.000000   
     11. B(O   9,C   7)                  1.3232         0.000000   
     12. B(C  10,O   9)                  1.4232         0.000000   
     13. B(H  11,C   0)                  1.0925         0.000000   
     14. B(H  12,C   2)                  1.0942         0.000000   
     15. B(H  13,O   8)                  2.4998         0.000000   
     16. B(H  13,C   4)                  1.0939         0.000000   
     17. B(H  14,C   5)                  1.0912         0.000000   
     18. B(H  15,C   6)                  1.0865         0.000000   
     19. B(H  15,N   3)                  2.2242         0.000000   
     20. B(H  15,C   2)                  2.5395         0.000000   
     21. B(H  15,H  12)                  2.1302         0.000000   
     22. B(H  16,C  10)                  1.0954         0.000000   
     23. B(H  17,C  10)                  1.0995         0.000000   
     24. B(C  19,C  18)                  1.4920         0.000000   
     25. B(C  19,C   6)                  1.5233         0.000000   
     26. B(C  20,C  19)                  1.5175         0.000000   
     27. B(C  21,C  20)                  1.3942         0.000000   
     28. B(C  22,C  21)                  1.3947         0.000000   
     29. B(C  23,C  22)                  1.3934         0.000000   
     30. B(C  24,C  23)                  1.3950         0.000000   
     31. B(C  25,C  24)                  1.4007         0.000000   
     32. B(C  25,C  20)                  1.4089         0.000000   
     33. B(O  26,C  25)                  1.3487         0.000000   
     34. B(C  27,O  26)                  1.4076         0.000000   
     35. B(N  28,C  18)                  1.3095         0.000000   
     36. B(O  29,N  28)                  1.2437         0.000000   
     37. B(H  30,C  19)                  1.0995         0.000000   
     38. B(H  30,H  13)                  2.4349         0.000000   
     39. B(H  30,N   3)                  2.5805         0.000000   
     40. B(H  31,C  21)                  1.0942         0.000000   
     41. B(H  32,C  22)                  1.0922         0.000000   
     42. B(H  33,C  23)                  1.0930         0.000000   
     43. B(H  34,C  24)                  1.0904         0.000000   
     44. B(H  35,C  27)                  1.1026         0.000000   
     45. B(H  36,H  11)                  3.5925         0.000000   
     46. B(H  36,C  27)                  1.1026         0.000000   
     47. B(H  37,C  27)                  1.0969         0.000000   
     48. B(O  38,N  28)                  1.3242         0.000000   
     49. B(O  38,C   6)                  1.9573         0.000000   
     50. B(H  39,C  10)                  1.0994         0.000000   
     51. B(H  40,C   1)                  1.0912         0.000000   
     52. B(H  41,C  18)                  1.0876         0.000000   
     53. A(C   1,C   0,C   5)          119.1877         0.000000   
     54. A(C   1,C   0,H  11)          120.3901         0.000000   
     55. A(C   5,C   0,H  11)          120.4223         0.000000   
     56. A(C   0,C   1,H  40)          121.5853         0.000000   
     57. A(C   2,C   1,H  40)          119.8677         0.000000   
     58. A(C   0,C   1,C   2)          118.5469         0.000000   
     59. A(N   3,C   2,H  12)          116.8808         0.000000   
     60. A(C   1,C   2,H  12)          121.6098         0.000000   
     61. A(C   1,C   2,N   3)          121.5062         0.000000   
     62. A(C   2,N   3,C   7)          136.1054         0.000000   
     63. A(C   2,N   3,C   6)          115.5828         0.000000   
     64. A(C   4,N   3,C   6)          123.5650         0.000000   
     65. A(C   2,N   3,C   4)          120.7163         0.000000   
     66. A(C   6,N   3,C   7)           35.9400         0.000000   
     67. A(C   4,N   3,C   7)           97.5556         0.000000   
     68. A(C   5,C   4,H  13)          121.8302         0.000000   
     69. A(N   3,C   4,C   5)          121.3992         0.000000   
     70. A(N   3,C   4,H  13)          116.7705         0.000000   
     71. A(C   0,C   5,C   4)          118.6392         0.000000   
     72. A(C   0,C   5,H  14)          121.5476         0.000000   
     73. A(C   4,C   5,H  14)          119.8114         0.000000   
     74. A(C  19,C   6,O  38)           93.8905         0.000000   
     75. A(N   3,C   6,C  19)           95.5961         0.000000   
     76. A(C   7,C   6,O  38)           84.7833         0.000000   
     77. A(H  15,C   6,C  19)          121.4429         0.000000   
     78. A(C   7,C   6,C  19)          119.7320         0.000000   
     79. A(C   7,C   6,H  15)          118.5003         0.000000   
     80. A(N   3,C   6,O  38)          170.2076         0.000000   
     81. A(N   3,C   6,H  15)           87.4423         0.000000   
     82. A(N   3,C   6,C   7)           92.5962         0.000000   
     83. A(H  15,C   6,O  38)           85.5406         0.000000   
     84. A(C   6,C   7,O   8)          123.6068         0.000000   
     85. A(N   3,C   7,O   9)          100.3226         0.000000   
     86. A(N   3,C   7,C   6)           51.4638         0.000000   
     87. A(N   3,C   7,O   8)          111.5219         0.000000   
     88. A(O   8,C   7,O   9)          124.6990         0.000000   
     89. A(C   6,C   7,O   9)          111.6592         0.000000   
     90. A(C   7,O   9,C  10)          116.4184         0.000000   
     91. A(H  16,C  10,H  17)          110.1690         0.000000   
     92. A(O   9,C  10,H  17)          110.5226         0.000000   
     93. A(O   9,C  10,H  16)          106.1601         0.000000   
     94. A(H  17,C  10,H  39)          109.1571         0.000000   
     95. A(H  16,C  10,H  39)          110.2315         0.000000   
     96. A(O   9,C  10,H  39)          110.5741         0.000000   
     97. A(C  19,C  18,N  28)          116.7105         0.000000   
     98. A(N  28,C  18,H  41)          118.4668         0.000000   
     99. A(C  19,C  18,H  41)          124.8022         0.000000   
    100. A(C  18,C  19,C  20)          113.1776         0.000000   
    101. A(C   6,C  19,C  20)          110.8734         0.000000   
    102. A(C   6,C  19,C  18)          108.5199         0.000000   
    103. A(C  20,C  19,H  30)          108.1585         0.000000   
    104. A(C  18,C  19,H  30)          108.3972         0.000000   
    105. A(C   6,C  19,H  30)          107.5359         0.000000   
    106. A(C  19,C  20,C  21)          120.2558         0.000000   
    107. A(C  21,C  20,C  25)          118.9717         0.000000   
    108. A(C  19,C  20,C  25)          120.7464         0.000000   
    109. A(C  20,C  21,C  22)          121.4511         0.000000   
    110. A(C  22,C  21,H  31)          120.0391         0.000000   
    111. A(C  20,C  21,H  31)          118.5068         0.000000   
    112. A(C  21,C  22,C  23)          119.0865         0.000000   
    113. A(C  23,C  22,H  32)          120.5874         0.000000   
    114. A(C  21,C  22,H  32)          120.3261         0.000000   
    115. A(C  22,C  23,C  24)          120.6282         0.000000   
    116. A(C  24,C  23,H  33)          119.1114         0.000000   
    117. A(C  22,C  23,H  33)          120.2604         0.000000   
    118. A(C  25,C  24,H  34)          120.4350         0.000000   
    119. A(C  23,C  24,H  34)          119.5902         0.000000   
    120. A(C  23,C  24,C  25)          119.9747         0.000000   
    121. A(C  24,C  25,O  26)          123.5929         0.000000   
    122. A(C  20,C  25,O  26)          116.5201         0.000000   
    123. A(C  20,C  25,C  24)          119.8847         0.000000   
    124. A(C  25,O  26,C  27)          119.3636         0.000000   
    125. A(H  36,C  27,H  37)          109.0339         0.000000   
    126. A(H  35,C  27,H  37)          109.1882         0.000000   
    127. A(O  26,C  27,H  37)          106.4359         0.000000   
    128. A(H  35,C  27,H  36)          109.1912         0.000000   
    129. A(O  26,C  27,H  36)          111.3229         0.000000   
    130. A(O  26,C  27,H  35)          111.5901         0.000000   
    131. A(O  29,N  28,O  38)          117.4771         0.000000   
    132. A(C  18,N  28,O  38)          115.7978         0.000000   
    133. A(C  18,N  28,O  29)          126.7250         0.000000   
    134. A(C   6,O  38,N  28)          102.8088         0.000000   
    135. D(C   2,C   1,C   0,H  11)   -179.9597         0.000000   
    136. D(H  40,C   1,C   0,H  11)     -0.1210         0.000000   
    137. D(C   2,C   1,C   0,C   5)      0.0092         0.000000   
    138. D(H  40,C   1,C   0,C   5)    179.8478         0.000000   
    139. D(N   3,C   2,C   1,C   0)      0.3558         0.000000   
    140. D(H  12,C   2,C   1,C   0)    179.6797         0.000000   
    141. D(H  12,C   2,C   1,H  40)     -0.1618         0.000000   
    142. D(N   3,C   2,C   1,H  40)   -179.4857         0.000000   
    143. D(C   7,N   3,C   2,H  12)     33.5662         0.000000   
    144. D(C   6,N   3,C   2,C   1)    175.7721         0.000000   
    145. D(C   4,N   3,C   2,H  12)   -179.4920         0.000000   
    146. D(C   6,N   3,C   2,H  12)     -3.5823         0.000000   
    147. D(C   4,N   3,C   2,C   1)     -0.1376         0.000000   
    148. D(C   7,N   3,C   2,C   1)   -147.0794         0.000000   
    149. D(C   5,C   4,N   3,C   2)     -0.4545         0.000000   
    150. D(H  13,C   4,N   3,C   6)      4.0954         0.000000   
    151. D(H  13,C   4,N   3,C   7)    -22.7605         0.000000   
    152. D(H  13,C   4,N   3,C   2)    179.6673         0.000000   
    153. D(C   5,C   4,N   3,C   6)   -176.0264         0.000000   
    154. D(C   5,C   4,N   3,C   7)    157.1176         0.000000   
    155. D(H  14,C   5,C   0,C   1)    179.9236         0.000000   
    156. D(C   0,C   5,C   4,N   3)      0.8027         0.000000   
    157. D(H  14,C   5,C   0,H  11)     -0.1076         0.000000   
    158. D(H  14,C   5,C   4,H  13)      0.1959         0.000000   
    159. D(H  14,C   5,C   4,N   3)   -179.6761         0.000000   
    160. D(C   4,C   5,C   0,H  11)    179.4049         0.000000   
    161. D(C   4,C   5,C   0,C   1)     -0.5639         0.000000   
    162. D(C   0,C   5,C   4,H  13)   -179.3254         0.000000   
    163. D(H  15,C   6,N   3,C   2)     16.0606         0.000000   
    164. D(C   7,C   6,N   3,C   4)    -49.7283         0.000000   
    165. D(C   7,C   6,N   3,C   2)    134.4919         0.000000   
    166. D(O  38,C   6,N   3,C   2)     60.3006         0.000000   
    167. D(O  38,C   6,N   3,C   4)   -123.9197         0.000000   
    168. D(C  19,C   6,N   3,C   7)    120.2168         0.000000   
    169. D(C  19,C   6,N   3,C   4)     70.4885         0.000000   
    170. D(C  19,C   6,N   3,C   2)   -105.2912         0.000000   
    171. D(H  15,C   6,N   3,C   7)   -118.4313         0.000000   
    172. D(H  15,C   6,N   3,C   4)   -168.1596         0.000000   
    173. D(O  38,C   6,N   3,C   7)    -74.1914         0.000000   
    174. D(N   3,C   7,C   6,O  38)    170.5419         0.000000   
    175. D(N   3,C   7,C   6,C  19)    -97.9501         0.000000   
    176. D(N   3,C   7,C   6,H  15)     88.4980         0.000000   
    177. D(O   9,C   7,C   6,O  38)     84.5452         0.000000   
    178. D(O   9,C   7,C   6,C  19)    176.0532         0.000000   
    179. D(O   9,C   7,C   6,H  15)      2.5013         0.000000   
    180. D(O   8,C   7,C   6,N   3)     91.9376         0.000000   
    181. D(O   8,C   7,C   6,O  38)    -97.5205         0.000000   
    182. D(O   8,C   7,C   6,C  19)     -6.0125         0.000000   
    183. D(O   8,C   7,C   6,H  15)   -179.5644         0.000000   
    184. D(O   9,C   7,N   3,C   6)    109.5447         0.000000   
    185. D(O   9,C   7,N   3,C   4)   -110.3468         0.000000   
    186. D(O   9,C   7,N   3,C   2)     41.4195         0.000000   
    187. D(O   8,C   7,N   3,C   6)   -116.5218         0.000000   
    188. D(O   9,C   7,C   6,N   3)    -85.9967         0.000000   
    189. D(O   8,C   7,N   3,C   4)     23.5868         0.000000   
    190. D(O   8,C   7,N   3,C   2)    175.3530         0.000000   
    191. D(C   6,C   7,N   3,C   4)    140.1085         0.000000   
    192. D(C   6,C   7,N   3,C   2)    -68.1252         0.000000   
    193. D(C  10,O   9,C   7,N   3)    127.6969         0.000000   
    194. D(C  10,O   9,C   7,O   8)      2.2697         0.000000   
    195. D(C  10,O   9,C   7,C   6)   -179.8229         0.000000   
    196. D(H  17,C  10,O   9,C   7)     61.5214         0.000000   
    197. D(H  16,C  10,O   9,C   7)   -179.0214         0.000000   
    198. D(H  39,C  10,O   9,C   7)    -59.4612         0.000000   
    199. D(H  30,C  19,C  18,H  41)     52.5522         0.000000   
    200. D(H  30,C  19,C  18,N  28)   -129.1262         0.000000   
    201. D(C  20,C  19,C  18,H  41)    -67.4258         0.000000   
    202. D(C   6,C  19,C  18,H  41)    169.0581         0.000000   
    203. D(C   6,C  19,C  18,N  28)    -12.6203         0.000000   
    204. D(H  30,C  19,C   6,N   3)    -51.9528         0.000000   
    205. D(H  30,C  19,C   6,O  38)    130.4783         0.000000   
    206. D(H  30,C  19,C   6,H  15)   -142.3741         0.000000   
    207. D(H  30,C  19,C   6,C   7)     44.2688         0.000000   
    208. D(C  20,C  19,C   6,N   3)     66.1003         0.000000   
    209. D(C  20,C  19,C   6,O  38)   -111.4686         0.000000   
    210. D(C  20,C  19,C   6,H  15)    -24.3211         0.000000   
    211. D(C  20,C  19,C   6,C   7)    162.3218         0.000000   
    212. D(C  20,C  19,C  18,N  28)    110.8958         0.000000   
    213. D(C  18,C  19,C   6,N   3)   -169.0120         0.000000   
    214. D(C  18,C  19,C   6,O  38)     13.4191         0.000000   
    215. D(C  18,C  19,C   6,H  15)    100.5667         0.000000   
    216. D(C  18,C  19,C   6,C   7)    -72.7904         0.000000   
    217. D(C  25,C  20,C  19,H  30)      5.7025         0.000000   
    218. D(C  25,C  20,C  19,C  18)    125.8168         0.000000   
    219. D(C  25,C  20,C  19,C   6)   -111.9713         0.000000   
    220. D(C  21,C  20,C  19,H  30)   -176.1747         0.000000   
    221. D(C  21,C  20,C  19,C  18)    -56.0604         0.000000   
    222. D(C  21,C  20,C  19,C   6)     66.1515         0.000000   
    223. D(H  31,C  21,C  20,C  25)   -179.9657         0.000000   
    224. D(H  31,C  21,C  20,C  19)      1.8784         0.000000   
    225. D(C  22,C  21,C  20,C  25)      0.6545         0.000000   
    226. D(C  22,C  21,C  20,C  19)   -177.5014         0.000000   
    227. D(H  32,C  22,C  21,H  31)      0.2875         0.000000   
    228. D(H  32,C  22,C  21,C  20)    179.6579         0.000000   
    229. D(C  23,C  22,C  21,H  31)   -179.6677         0.000000   
    230. D(C  23,C  22,C  21,C  20)     -0.2973         0.000000   
    231. D(H  33,C  23,C  22,H  32)     -0.0041         0.000000   
    232. D(H  33,C  23,C  22,C  21)    179.9509         0.000000   
    233. D(C  24,C  23,C  22,H  32)    179.9201         0.000000   
    234. D(C  24,C  23,C  22,C  21)     -0.1249         0.000000   
    235. D(H  34,C  24,C  23,H  33)      0.0177         0.000000   
    236. D(H  34,C  24,C  23,C  22)   -179.9074         0.000000   
    237. D(C  25,C  24,C  23,H  33)   -179.8991         0.000000   
    238. D(C  25,C  24,C  23,C  22)      0.1758         0.000000   
    239. D(O  26,C  25,C  24,H  34)     -0.3078         0.000000   
    240. D(O  26,C  25,C  24,C  23)    179.6083         0.000000   
    241. D(C  20,C  25,C  24,H  34)   -179.7280         0.000000   
    242. D(C  20,C  25,C  24,C  23)      0.1881         0.000000   
    243. D(O  26,C  25,C  20,C  21)    179.9457         0.000000   
    244. D(O  26,C  25,C  20,C  19)     -1.9077         0.000000   
    245. D(C  24,C  25,C  20,C  21)     -0.5941         0.000000   
    246. D(C  24,C  25,C  20,C  19)    177.5525         0.000000   
    247. D(C  27,O  26,C  25,C  24)     -5.1924         0.000000   
    248. D(C  27,O  26,C  25,C  20)    174.2457         0.000000   
    249. D(H  37,C  27,O  26,C  25)   -176.4587         0.000000   
    250. D(H  36,C  27,O  26,C  25)    -57.7630         0.000000   
    251. D(H  35,C  27,O  26,C  25)     64.5112         0.000000   
    252. D(O  38,N  28,C  18,H  41)   -179.9965         0.000000   
    253. D(O  38,N  28,C  18,C  19)      1.5712         0.000000   
    254. D(O  29,N  28,C  18,H  41)     -0.0754         0.000000   
    255. D(O  29,N  28,C  18,C  19)   -178.5078         0.000000   
    256. D(C   6,O  38,N  28,O  29)   -172.4109         0.000000   
    257. D(C   6,O  38,N  28,C  18)      7.5177         0.000000   
    258. D(N  28,O  38,C   6,N   3)   -178.7617         0.000000   
    259. D(N  28,O  38,C   6,C  19)    -13.1336         0.000000   
    260. D(N  28,O  38,C   6,H  15)   -134.4080         0.000000   
    261. D(N  28,O  38,C   6,C   7)    106.4010         0.000000   
    -----------------------------------------------------------------

Number of atoms                         .... 42
Number of degrees of freedom            .... 261

         *************************************************************
         *                GEOMETRY OPTIMIZATION CYCLE   1            *
         *************************************************************
---------------------------------
CARTESIAN COORDINATES (ANGSTROEM)
---------------------------------
  C     -4.311526    1.048232    0.368972
  C     -3.823076    0.725982   -0.896345
  C     -2.451876    0.785041   -1.113683
  N     -1.607575    1.133030   -0.143679
  C     -2.057366    1.439783    1.072644
  C     -3.415048    1.417297    1.369658
  C      0.324457    1.033238   -0.609404
  C      0.609653    2.366594   -0.000957
  O      0.960406    2.517544    1.146813
  O      0.388669    3.351262   -0.856754
  C      0.633127    4.670216   -0.381324
  H     -5.384167    1.011246    0.573268
  H     -2.014076    0.537675   -2.085464
  H     -1.307435    1.710917    1.821382
  H     -3.755254    1.678344    2.373090
  H      0.021142    0.993298   -1.651967
  H      0.382534    5.343653   -1.208119
  H      1.689848    4.789625   -0.102090
  C      2.080414   -0.437836    0.252536
  C      0.603677   -0.235484    0.186099
  C     -0.135357   -1.420100   -0.408415
  C      0.201789   -1.894532   -1.675319
  C     -0.494660   -2.948178   -2.266924
  C     -1.545926   -3.540930   -1.570532
  C     -1.898358   -3.091328   -0.297852
  C     -1.195180   -2.031999    0.289705
  O     -1.478398   -1.534716    1.510919
  C     -2.600715   -2.017910    2.209625
  N      2.811664    0.295985   -0.548366
  O      4.049451    0.262151   -0.665205
  H      0.229067   -0.075348    1.207374
  H      1.026466   -1.414113   -2.210459
  H     -0.218460   -3.301572   -3.262771
  H     -2.105251   -4.367467   -2.016318
  H     -2.722971   -3.568503    0.232571
  H     -2.491387   -3.085071    2.464590
  H     -3.526523   -1.877343    1.627449
  H     -2.666950   -1.431322    3.134112
  O      2.150028    1.158977   -1.303937
  H      0.002207    4.889239    0.492018
  H     -4.489628    0.429494   -1.707841
  H      2.579628   -1.161426    0.892941

----------------------------
CARTESIAN COORDINATES (A.U.)
----------------------------
  NO LB      ZA    FRAG     MASS         X           Y           Z
   0 C     6.0000    0    12.011   -8.147603    1.980871    0.697256
   1 C     6.0000    0    12.011   -7.224567    1.371907   -1.693847
   2 C     6.0000    0    12.011   -4.633374    1.483512   -2.104556
   3 N     7.0000    0    14.007   -3.037876    2.141116   -0.271514
   4 C     6.0000    0    12.011   -3.887858    2.720796    2.027003
   5 C     6.0000    0    12.011   -6.453505    2.678303    2.588279
   6 C     6.0000    0    12.011    0.613135    1.952537   -1.151607
   7 C     6.0000    0    12.011    1.152077    4.472215   -0.001808
   8 O     8.0000    0    15.999    1.814904    4.757469    2.167162
   9 O     8.0000    0    15.999    0.734478    6.332967   -1.619030
  10 C     6.0000    0    12.011    1.196437    8.825429   -0.720598
  11 H     1.0000    0     1.008  -10.174601    1.910978    1.083320
  12 H     1.0000    0     1.008   -3.806052    1.016058   -3.940956
  13 H     1.0000    0     1.008   -2.470694    3.233165    3.441913
  14 H     1.0000    0     1.008   -7.096402    3.171611    4.484490
  15 H     1.0000    0     1.008    0.039953    1.877061   -3.121765
  16 H     1.0000    0     1.008    0.722884   10.098041   -2.283014
  17 H     1.0000    0     1.008    3.193350    9.051080   -0.192922
  18 C     6.0000    0    12.011    3.931413   -0.827390    0.477224
  19 C     6.0000    0    12.011    1.140784   -0.445000    0.351676
  20 C     6.0000    0    12.011   -0.255788   -2.683600   -0.771792
  21 C     6.0000    0    12.011    0.381326   -3.580147   -3.165894
  22 C     6.0000    0    12.011   -0.934772   -5.571249   -4.283866
  23 C     6.0000    0    12.011   -2.921377   -6.691388   -2.967875
  24 C     6.0000    0    12.011   -3.587377   -5.841763   -0.562859
  25 C     6.0000    0    12.011   -2.258563   -3.839922    0.547463
  26 O     8.0000    0    15.999   -2.793767   -2.900193    2.855223
  27 C     6.0000    0    12.011   -4.914639   -3.813297    4.175586
  28 N     7.0000    0    14.007    5.313275    0.559331   -1.036262
  29 O     8.0000    0    15.999    7.652353    0.495394   -1.257055
  30 H     1.0000    0     1.008    0.432874   -0.142387    2.281606
  31 H     1.0000    0     1.008    1.939740   -2.672286   -4.177162
  32 H     1.0000    0     1.008   -0.412830   -6.239067   -6.165744
  33 H     1.0000    0     1.008   -3.978348   -8.253317   -3.810289
  34 H     1.0000    0     1.008   -5.145669   -6.743493    0.439495
  35 H     1.0000    0     1.008   -4.708039   -5.829939    4.657400
  36 H     1.0000    0     1.008   -6.664163   -3.547664    3.075433
  37 H     1.0000    0     1.008   -5.039805   -2.704807    5.922613
  38 O     8.0000    0    15.999    4.062964    2.190149   -2.464084
  39 H     1.0000    0     1.008    0.004171    9.239323    0.929779
  40 H     1.0000    0     1.008   -8.484167    0.811626   -3.227352
  41 H     1.0000    0     1.008    4.874790   -2.194777    1.687414

--------------------------------
INTERNAL COORDINATES (ANGSTROEM)
--------------------------------
 C      0   0   0     0.000000000000     0.00000000     0.00000000
 C      1   0   0     1.394078755124     0.00000000     0.00000000
 C      2   1   0     1.389573032167   118.54688181     0.00000000
 N      3   2   1     1.332234319757   121.50617357     0.35581035
 C      4   3   2     1.332610590915   120.71627977   359.86236530
 C      5   4   3     1.389972427610   121.39922065   359.54545660
 C      4   3   2     1.989875842336   115.58283833   175.77214493
 C      7   4   3     1.493111761711    92.59618288   134.49194837
 O      8   7   4     1.209623719348   123.60679094    91.93760179
 O      8   7   4     1.323175537746   111.65918919   274.00327920
 C     10   8   7     1.423177098179   116.41836430   180.17710966
 H      1   2   3     1.092549099443   120.39006485   180.04031778
 H      3   2   1     1.094174158860   121.60976295   179.67965751
 H      5   4   3     1.093854991926   116.77049042   179.66733183
 H      6   5   4     1.091220159853   119.81139877   180.32392942
 H      7   4   3     1.086523263347    87.44233655    16.06064610
 H     11  10   8     1.095401395217   106.16006978   180.97859226
 H     11  10   8     1.099495069511   110.52263274    61.52143910
 C      7   4   3     2.447526151633   130.11355866   246.42574373
 C     19   7   4     1.492016211052    36.16784617    14.36172102
 C     20  19   7     1.517541833627   113.17756556   123.51613166
 C     21  20  19     1.394201883931   120.25579586   303.93958960
 C     22  21  20     1.394706986769   121.45111471   182.49860615
 C     23  22  21     1.393368922405   119.08647945   359.70274769
 C     24  23  22     1.395014213343   120.62816465   359.87512672
 C     25  24  23     1.400664291747   119.97470190     0.17582056
 O     26  25  24     1.348653569828   123.59285574   179.60827415
 C     27  26  25     1.407573076100   119.36360271   354.80755814
 N     19   7   4     1.309451731125    81.28168830   182.97353264
 O     29  19   7     1.243749471898   126.72501676   173.99669918
 H     20  19   7     1.099535727578   108.39719028   243.49413936
 H     22  21  20     1.094198057707   118.50683724     1.87844220
 H     23  22  21     1.092192751599   120.32612966   179.65793588
 H     24  23  22     1.093038437471   120.26037975   179.95092446
 H     25  24  23     1.090427044475   119.59024079   180.09262064
 H     28  27  26     1.102629748705   111.59005937    64.51122962
 H     28  27  26     1.102637034263   111.32289682   302.23699363
 H     28  27  26     1.096881383805   106.43586378   183.54129305
 O     29  19   7     1.324161970682   115.79779981   354.07566152
 H     11  10   8     1.099435023043   110.57408320   300.53876261
 H      2   1   3     1.091202300613   121.58526487   179.83865498
 H     19   7   4     1.087619266987   159.47813079   347.96389782

---------------------------
INTERNAL COORDINATES (A.U.)
---------------------------
 C      0   0   0     0.000000000000     0.00000000     0.00000000
 C      1   0   0     2.634427056303     0.00000000     0.00000000
 C      2   1   0     2.625912473878   118.54688181     0.00000000
 N      3   2   1     2.517558010551   121.50617357     0.35581035
 C      4   3   2     2.518269059992   120.71627977   359.86236530
 C      5   4   3     2.626667221885   121.39922065   359.54545660
 C      4   3   2     3.760320382521   115.58283833   175.77214493
 C      7   4   3     2.821572316971    92.59618288   134.49194837
 O      8   7   4     2.285857554663   123.60679094    91.93760179
 O      8   7   4     2.500439393444   111.65918919   274.00327920
 C     10   8   7     2.689414955626   116.41836430   180.17710966
 H      1   2   3     2.064618585809   120.39006485   180.04031778
 H      3   2   1     2.067689503059   121.60976295   179.67965751
 H      5   4   3     2.067086364962   116.77049042   179.66733183
 H      6   5   4     2.062107253935   119.81139877   180.32392942
 H      7   4   3     2.053231405860    87.44233655    16.06064610
 H     11  10   8     2.070008643675   106.16006978   180.97859226
 H     11  10   8     2.077744566972   110.52263274    61.52143910
 C      7   4   3     4.625154132196   130.11355866   246.42574373
 C     19   7   4     2.819502026259    36.16784617    14.36172102
 C     20  19   7     2.867738462324   113.17756556   123.51613166
 C     21  20  19     2.634659736026   120.25579586   303.93958960
 C     22  21  20     2.635614242060   121.45111471   182.49860615
 C     23  22  21     2.633085666862   119.08647945   359.70274769
 C     24  23  22     2.636194816145   120.62816465   359.87512672
 C     25  24  23     2.646871916964   119.97470190     0.17582056
 O     26  25  24     2.548585896510   123.59285574   179.60827415
 C     27  26  25     2.659927627310   119.36360271   354.80755814
 N     19   7   4     2.474505157414    81.28168830   182.97353264
 O     29  19   7     2.350345881096   126.72501676   173.99669918
 H     20  19   7     2.077821399585   108.39719028   243.49413936
 H     22  21  20     2.067734665335   118.50683724     1.87844220
 H     23  22  21     2.063945185976   120.32612966   179.65793588
 H     24  23  22     2.065543300670   120.26037975   179.95092446
 H     25  24  23     2.060608483079   119.59024079   180.09262064
 H     28  27  26     2.083668252168   111.59005937    64.51122962
 H     28  27  26     2.083682019877   111.32289682   302.23699363
 H     28  27  26     2.072805416788   106.43586378   183.54129305
 O     29  19   7     2.502303481543   115.79779981   354.07566152
 H     11  10   8     2.077631095592   110.57408320   300.53876261
 H      2   1   3     2.062073504864   121.58526487   179.83865498
 H     19   7   4     2.055302552581   159.47813079   347.96389782

---------------------
BASIS SET INFORMATION
---------------------
There are 4 groups of distinct atoms

 Group   1 Type C   : 11s6p2d1f contracted to 5s3p2d1f pattern {62111/411/11/1}
 Group   2 Type N   : 11s6p2d1f contracted to 5s3p2d1f pattern {62111/411/11/1}
 Group   3 Type O   : 11s6p2d1f contracted to 5s3p2d1f pattern {62111/411/11/1}
 Group   4 Type H   : 5s1p contracted to 3s1p pattern {311/1}

Atom   0C    basis set group =>   1
Atom   1C    basis set group =>   1
Atom   2C    basis set group =>   1
Atom   3N    basis set group =>   2
Atom   4C    basis set group =>   1
Atom   5C    basis set group =>   1
Atom   6C    basis set group =>   1
Atom   7C    basis set group =>   1
Atom   8O    basis set group =>   3
Atom   9O    basis set group =>   3
Atom  10C    basis set group =>   1
Atom  11H    basis set group =>   4
Atom  12H    basis set group =>   4
Atom  13H    basis set group =>   4
Atom  14H    basis set group =>   4
Atom  15H    basis set group =>   4
Atom  16H    basis set group =>   4
Atom  17H    basis set group =>   4
Atom  18C    basis set group =>   1
Atom  19C    basis set group =>   1
Atom  20C    basis set group =>   1
Atom  21C    basis set group =>   1
Atom  22C    basis set group =>   1
Atom  23C    basis set group =>   1
Atom  24C    basis set group =>   1
Atom  25C    basis set group =>   1
Atom  26O    basis set group =>   3
Atom  27C    basis set group =>   1
Atom  28N    basis set group =>   2
Atom  29O    basis set group =>   3
Atom  30H    basis set group =>   4
Atom  31H    basis set group =>   4
Atom  32H    basis set group =>   4
Atom  33H    basis set group =>   4
Atom  34H    basis set group =>   4
Atom  35H    basis set group =>   4
Atom  36H    basis set group =>   4
Atom  37H    basis set group =>   4
Atom  38O    basis set group =>   3
Atom  39H    basis set group =>   4
Atom  40H    basis set group =>   4
Atom  41H    basis set group =>   4
---------------------------------
AUXILIARY/J BASIS SET INFORMATION
---------------------------------
There are 4 groups of distinct atoms

 Group   1 Type C   : 12s5p4d2f1g contracted to 6s4p3d1f1g pattern {711111/2111/211/2/1}
 Group   2 Type N   : 12s5p4d2f1g contracted to 6s4p3d1f1g pattern {711111/2111/211/2/1}
 Group   3 Type O   : 12s5p4d2f1g contracted to 6s4p3d1f1g pattern {711111/2111/211/2/1}
 Group   4 Type H   : 5s2p1d contracted to 3s1p1d pattern {311/2/1}

Atom   0C    basis set group =>   1
Atom   1C    basis set group =>   1
Atom   2C    basis set group =>   1
Atom   3N    basis set group =>   2
Atom   4C    basis set group =>   1
Atom   5C    basis set group =>   1
Atom   6C    basis set group =>   1
Atom   7C    basis set group =>   1
Atom   8O    basis set group =>   3
Atom   9O    basis set group =>   3
Atom  10C    basis set group =>   1
Atom  11H    basis set group =>   4
Atom  12H    basis set group =>   4
Atom  13H    basis set group =>   4
Atom  14H    basis set group =>   4
Atom  15H    basis set group =>   4
Atom  16H    basis set group =>   4
Atom  17H    basis set group =>   4
Atom  18C    basis set group =>   1
Atom  19C    basis set group =>   1
Atom  20C    basis set group =>   1
Atom  21C    basis set group =>   1
Atom  22C    basis set group =>   1
Atom  23C    basis set group =>   1
Atom  24C    basis set group =>   1
Atom  25C    basis set group =>   1
Atom  26O    basis set group =>   3
Atom  27C    basis set group =>   1
Atom  28N    basis set group =>   2
Atom  29O    basis set group =>   3
Atom  30H    basis set group =>   4
Atom  31H    basis set group =>   4
Atom  32H    basis set group =>   4
Atom  33H    basis set group =>   4
Atom  34H    basis set group =>   4
Atom  35H    basis set group =>   4
Atom  36H    basis set group =>   4
Atom  37H    basis set group =>   4
Atom  38O    basis set group =>   3
Atom  39H    basis set group =>   4
Atom  40H    basis set group =>   4
Atom  41H    basis set group =>   4


           ************************************************************
           *        Program running with 24 parallel MPI-processes    *
           *              working on a common directory               *
           ************************************************************
------------------------------------------------------------------------------
                           ORCA GTO INTEGRAL CALCULATION
                           -- RI-GTO INTEGRALS CHOSEN --
------------------------------------------------------------------------------
------------------------------------------------------------------------------
                   ___                                                        
                  /   \      - P O W E R E D   B Y -                         
                 /     \                                                     
                 |  |  |   _    _      __       _____    __    __             
                 |  |  |  | |  | |    /  \     |  _  \  |  |  /  |          
                  \  \/   | |  | |   /    \    | | | |  |  | /  /          
                 / \  \   | |__| |  /  /\  \   | |_| |  |  |/  /          
                |  |  |   |  __  | /  /__\  \  |    /   |      \           
                |  |  |   | |  | | |   __   |  |    \   |  |\   \          
                \     /   | |  | | |  |  |  |  | |\  \  |  | \   \       
                 \___/    |_|  |_| |__|  |__|  |_| \__\ |__|  \__/        
                                                                              
                      - O R C A' S   B I G   F R I E N D -                    
                                      &                                       
                       - I N T E G R A L  F E E D E R -                       
                                                                              
 v1 FN, 2020, v2 2021                                                         
------------------------------------------------------------------------------


Reading SHARK input file TS2_H/TS2_H.SHARKINP.tmp ... ok
----------------------
SHARK INTEGRAL PACKAGE
----------------------

Number of atoms                             ...     42
Number of basis functions                   ...    852
Number of shells                            ...    336
Maximum angular momentum                    ...      3
Integral batch strategy                     ... SHARK/LIBINT Hybrid
RI-J (if used) integral strategy            ... SPLIT-RIJ (Revised 2003 algorithm where possible)
Printlevel                                  ...      1
Contraction scheme used                     ... SEGMENTED contraction
Coulomb Range Separation                    ... NOT USED
Exchange Range Separation                   ... NOT USED
Finite Nucleus Model                        ... NOT USED
Auxiliary Coulomb fitting basis             ... AVAILABLE
   # of basis functions in Aux-J            ...   1374
   # of shells in Aux-J                     ...    450
   Maximum angular momentum in Aux-J        ...      4
Auxiliary J/K fitting basis                 ... NOT available
Auxiliary Correlation fitting basis         ... NOT available
Auxiliary 'external' fitting basis          ... NOT available
Integral threshold                          ...     2.500000e-11
Primitive cut-off                           ...     2.500000e-12
Primitive pair pre-selection threshold      ...     2.500000e-12

Calculating pre-screening integrals         ... done (  0.1 sec) Dimension = 336
Organizing shell pair data                  ... done (  0.5 sec)
Shell pair information
Total number of shell pairs                 ...     56616
Shell pairs after pre-screening             ...     41814
Total number of primitive shell pairs       ...    173748
Primitive shell pairs kept                  ...     84313
          la=0 lb=0:  10730 shell pairs
          la=1 lb=0:  12018 shell pairs
          la=1 lb=1:   3361 shell pairs
          la=2 lb=0:   6010 shell pairs
          la=2 lb=1:   3394 shell pairs
          la=2 lb=2:    870 shell pairs
          la=3 lb=0:   2783 shell pairs
          la=3 lb=1:   1629 shell pairs
          la=3 lb=2:    812 shell pairs
          la=3 lb=3:    207 shell pairs

Calculating one electron integrals          ... done (  0.1 sec)
Calculating RI/J V-Matrix + Cholesky decomp.... done (  0.2 sec)
Calculating Nuclear repulsion               ... done (  0.0 sec) ENN=   2201.657277062204 Eh

SHARK setup successfully completed in   1.9 seconds

Maximum memory used throughout the entire GTOINT-calculation: 63.1 MB


           ************************************************************
           *        Program running with 24 parallel MPI-processes    *
           *              working on a common directory               *
           ************************************************************
-------------------------------------------------------------------------------
                                 ORCA SCF
-------------------------------------------------------------------------------

------------
SCF SETTINGS
------------
Hamiltonian:
 Density Functional     Method          .... DFT(GTOs)
 Exchange Functional    Exchange        .... PBE
   PBE kappa parameter   XKappa         ....  0.804000
   PBE mue parameter    XMuePBE         ....  0.219520
 Correlation Functional Correlation     .... PBE
   PBE beta parameter  CBetaPBE         ....  0.066725
 LDA part of GGA corr.  LDAOpt          .... PW91-LDA
 Gradients option       PostSCFGGA      .... off
 Hybrid DFT is turned on
   Fraction HF Exchange ScalHFX         ....  0.250000
   Scaling of DF-GGA-X  ScalDFX         ....  0.750000
   Scaling of DF-GGA-C  ScalDFC         ....  1.000000
   Scaling of DF-LDA-C  ScalLDAC        ....  1.000000
   Perturbative correction              ....  0.000000
   Density functional embedding theory  .... OFF
   NL short-range parameter             ....  6.900000
 RI-approximation to the Coulomb term is turned on
   Number of AuxJ basis functions       .... 1374
   RIJ-COSX (HFX calculated with COS-X)).... on


General Settings:
 Integral files         IntName         .... TS2_H/TS2_H
 Hartree-Fock type      HFTyp           .... RHF
 Total Charge           Charge          ....    0
 Multiplicity           Mult            ....    1
 Number of Electrons    NEL             ....  174
 Basis Dimension        Dim             ....  852
 Nuclear Repulsion      ENuc            ....   2201.6572770622 Eh

Convergence Acceleration:
 DIIS                   CNVDIIS         .... on
   Start iteration      DIISMaxIt       ....    12
   Startup error        DIISStart       ....  0.200000
   # of expansion vecs  DIISMaxEq       ....     5
   Bias factor          DIISBfac        ....   1.050
   Max. coefficient     DIISMaxC        ....  10.000
 Trust-Rad. Augm. Hess. CNVTRAH         .... auto
   Auto Start mean grad. ratio tolernc. ....  1.125000
   Auto Start start iteration           ....    20
   Auto Start num. interpolation iter.  ....    10
   Max. Number of Micro iterations      ....    16
   Max. Number of Macro iterations      .... Maxiter - #DIIS iter
   Number of Davidson start vectors     ....     2
   Converg. threshold I  (grad. norm)   ....   1.000e-05
   Converg. threshold II (energy diff.) ....   1.000e-08
   Grad. Scal. Fac. for Micro threshold ....   0.100
   Minimum threshold for Micro iter.    ....   0.010
   NR start threshold (gradient norm)   ....   0.001
   Initial trust radius                 ....   0.400
   Minimum AH scaling param. (alpha)    ....   1.000
   Maximum AH scaling param. (alpha)    .... 1000.000
   Orbital update algorithm             .... Taylor
   White noise on init. David. guess    .... on
   Maximum white noise                  ....   0.010
   Quad. conv. algorithm                .... NR
 SOSCF                  CNVSOSCF        .... on
   Start iteration      SOSCFMaxIt      ....   150
   Startup grad/error   SOSCFStart      ....  0.003300
 Level Shifting         CNVShift        .... on
   Level shift para.    LevelShift      ....    0.2500
   Turn off err/grad.   ShiftErr        ....    0.0010
 Zerner damping         CNVZerner       .... off
 Static damping         CNVDamp         .... on
   Fraction old density DampFac         ....    0.7000
   Max. Damping (<1)    DampMax         ....    0.9800
   Min. Damping (>=0)   DampMin         ....    0.0000
   Turn off err/grad.   DampErr         ....    0.1000
 Fernandez-Rico         CNVRico         .... off

SCF Procedure:
 Maximum # iterations   MaxIter         ....   800
 SCF integral mode      SCFMode         .... Direct
   Integral package                     .... SHARK and LIBINT hybrid scheme
 Reset frequency        DirectResetFreq ....    20
 Integral Threshold     Thresh          ....  2.500e-11 Eh
 Primitive CutOff       TCut            ....  2.500e-12 Eh

Convergence Tolerance:
 Convergence Check Mode ConvCheckMode   .... Total+1el-Energy
 Convergence forced     ConvForced      .... 0
 Energy Change          TolE            ....  1.000e-08 Eh
 1-El. energy change                    ....  1.000e-05 Eh
 Orbital Gradient       TolG            ....  1.000e-05
 Orbital Rotation angle TolX            ....  1.000e-05
 DIIS Error             TolErr          ....  5.000e-07


Diagonalization of the overlap matrix:
Smallest eigenvalue                        ... 6.121e-06
Time for diagonalization                   ...    0.230 sec
Threshold for overlap eigenvalues          ... 1.000e-08
Number of eigenvalues below threshold      ... 0
Time for construction of square roots      ...    0.125 sec
Total time needed                          ...    0.360 sec

Time for model grid setup =    0.313 sec

------------------------------
INITIAL GUESS: MODEL POTENTIAL
------------------------------
Loading Hartree-Fock densities                     ... done
Calculating cut-offs                               ... done
Initializing the effective Hamiltonian             ... done
Setting up the integral package (SHARK)            ... done
Starting the Coulomb interaction                   ... done (   0.5 sec)
Reading the grid                                   ... done
Mapping shells                                     ... done
Starting the XC term evaluation                    ... done (   0.2 sec)
  promolecular density results
     # of electrons  =    173.989317939
     EX              =   -146.099147089
     EC              =     -5.874169953
     EX+EC           =   -151.973317042
Transforming the Hamiltonian                       ... done (   0.1 sec)
Diagonalizing the Hamiltonian                      ... done (   0.2 sec)
Back transforming the eigenvectors                 ... done (   0.0 sec)
Now organizing SCF variables                       ... done
                      ------------------
                      INITIAL GUESS DONE (   1.6 sec)
                      ------------------
-------------------
DFT GRID GENERATION
-------------------

General Integration Accuracy     IntAcc      ... 4.388
Radial Grid Type                 RadialGrid  ... OptM3 with GC (2021)
Angular Grid (max. ang.)         AngularGrid ... 4 (Lebedev-302)
Angular grid pruning method      GridPruning ... 4 (adaptive)
Weight generation scheme         WeightScheme... Becke
Basis function cutoff            BFCut       ... 1.0000e-11
Integration weight cutoff        WCut        ... 1.0000e-14
Angular grids for H and He will be reduced by one unit
Partially contracted basis set               ... off
Rotationally invariant grid construction     ... off

Total number of grid points                  ...   200353
Total number of batches                      ...     3155
Average number of points per batch           ...       63
Average number of grid points per atom       ...     4770
Time for grid setup =    1.422 sec

--------------------
COSX GRID GENERATION
--------------------

GRIDX 1
-------
General Integration Accuracy     IntAcc      ... 3.816
Radial Grid Type                 RadialGrid  ... OptM3 with GC (2021)
Angular Grid (max. ang.)         AngularGrid ... 1 (Lebedev-50)
Angular grid pruning method      GridPruning ... 4 (adaptive)
Weight generation scheme         WeightScheme... Becke
Basis function cutoff            BFCut       ... 1.0000e-11
Integration weight cutoff        WCut        ... 1.0000e-14
Angular grids for H and He will be reduced by one unit
Partially contracted basis set               ... on
Rotationally invariant grid construction     ... off

Total number of grid points                  ...    25385
Total number of batches                      ...      418
Average number of points per batch           ...       60
Average number of grid points per atom       ...      604
UseSFitting                                  ... on

GRIDX 2
-------
General Integration Accuracy     IntAcc      ... 4.020
Radial Grid Type                 RadialGrid  ... OptM3 with GC (2021)
Angular Grid (max. ang.)         AngularGrid ... 2 (Lebedev-110)
Angular grid pruning method      GridPruning ... 4 (adaptive)
Weight generation scheme         WeightScheme... Becke
Basis function cutoff            BFCut       ... 1.0000e-11
Integration weight cutoff        WCut        ... 1.0000e-14
Angular grids for H and He will be reduced by one unit
Partially contracted basis set               ... on
Rotationally invariant grid construction     ... off

Total number of grid points                  ...    55046
Total number of batches                      ...      884
Average number of points per batch           ...       62
Average number of grid points per atom       ...     1311
UseSFitting                                  ... on

GRIDX 3
-------
General Integration Accuracy     IntAcc      ... 4.338
Radial Grid Type                 RadialGrid  ... OptM3 with GC (2021)
Angular Grid (max. ang.)         AngularGrid ... 3 (Lebedev-194)
Angular grid pruning method      GridPruning ... 4 (adaptive)
Weight generation scheme         WeightScheme... Becke
Basis function cutoff            BFCut       ... 1.0000e-11
Integration weight cutoff        WCut        ... 1.0000e-14
Angular grids for H and He will be reduced by one unit
Partially contracted basis set               ... on
Rotationally invariant grid construction     ... off

Total number of grid points                  ...   120200
Total number of batches                      ...     1902
Average number of points per batch           ...       63
Average number of grid points per atom       ...     2862
UseSFitting                                  ... on

Time for X-Grid setup             =    2.337 sec


--------------------
CPCM SOLVATION MODEL
--------------------
CPCM parameters:
  Epsilon                                         ...      47.2000
  Refrac                                          ...       1.4790
  Rsolv                                           ...       1.3000
  Surface type                                    ... GAUSSIAN VDW
  Epsilon function type                           ...         CPCM
Radii:
 Radius for C  used is    3.8550 Bohr (=   2.0400 Ang.)
 Radius for N  used is    3.5149 Bohr (=   1.8600 Ang.)
 Radius for O  used is    3.4469 Bohr (=   1.8240 Ang.)
 Radius for H  used is    2.4944 Bohr (=   1.3200 Ang.)
Calculating surface                               ...        done! (  0.0s)
GEPOL surface points                              ...         2156
GEPOL Volume                                      ...    2557.3601
GEPOL Surface-area                                ...    1261.2866
Calculating surface distance matrix               ...        done! (  0.1s)
Performing Cholesky decomposition & store         ...        done! (  0.4s)
Overall time for CPCM initialization              ...                 0.5s
--------------
SCF ITERATIONS
--------------
ITER       Energy         Delta-E        Max-DP      RMS-DP      [F,P]     Damp
               ***  Starting incremental Fock matrix formation  ***
  0  -1142.7585741276   0.000000000000 0.22431516  0.00080994  0.2728979 0.7000
  1  -1142.9816741619  -0.223100034259 0.21014767  0.00075524  0.1119980 0.7000
                               ***Turning on DIIS***
  2  -1143.0726377797  -0.090963617834 0.28535096  0.00134354  0.0319806 0.0000
  3  -1143.2227636486  -0.150125868924 0.18326396  0.00061980  0.0536719 0.0000
  4  -1143.2492674398  -0.026503791207 0.03579325  0.00022066  0.0185907 0.0000
  5  -1143.2509946818  -0.001727241971 0.01891124  0.00007132  0.0063670 0.0000
                      *** Initiating the SOSCF procedure ***
                           *** Shutting down DIIS ***
                      *** Re-Reading the Fockian *** 
                      *** Removing any level shift *** 
ITER      Energy       Delta-E        Grad      Rot      Max-DP    RMS-DP
  6  -1143.25112824  -0.0001335548  0.000229  0.000229  0.004622  0.000021
               *** Restarting incremental Fock matrix formation ***
  7  -1143.25112370   0.0000045393  0.000122  0.000526  0.001972  0.000020
  8  -1143.25112316   0.0000005382  0.000208  0.000358  0.000673  0.000006
  9  -1143.25112610  -0.0000029453  0.000046  0.000143  0.000297  0.000004
 10  -1143.25112590   0.0000002044  0.000063  0.000078  0.000159  0.000001
 11  -1143.25112621  -0.0000003066  0.000005  0.000017  0.000175  0.000001
 12  -1143.25112621  -0.0000000055  0.000008  0.000009  0.000137  0.000001
                  ***Gradient check signals convergence***
              ***Rediagonalizing the Fockian in SOSCF/NRSCF***

               *****************************************************
               *                     SUCCESS                       *
               *           SCF CONVERGED AFTER  13 CYCLES          *
               *****************************************************

Old exchange energy                            =    -37.195805633 Eh
New exchange energy                            =    -37.195830974 Eh
Exchange energy change after final integration =     -0.000025342 Eh
Total energy after final integration           =  -1143.251151522 Eh
Final COS-X integration done in                =    16.218 sec

----------------
TOTAL SCF ENERGY
----------------

Total Energy       :        -1143.25115152 Eh          -31109.44541 eV

Components:
Nuclear Repulsion  :         2201.65727706 Eh           59910.14028 eV
Electronic Energy  :        -3344.90842858 Eh          -91019.58569 eV
One Electron Energy:        -5936.58056418 Eh         -161542.56982 eV
Two Electron Energy:         2591.67213559 Eh           70522.98413 eV
Max COSX asymmetry :            0.00000136 Eh               0.00004 eV
CPCM Dielectric    :           -0.05337093 Eh              -1.45230 eV

Virial components:
Potential Energy   :        -2281.07738109 Eh          -62071.27118 eV
Kinetic Energy     :         1137.82622957 Eh           30961.82578 eV
Virial Ratio       :            2.00476779


DFT components:
N(Alpha)           :       87.000065207096 electrons
N(Beta)            :       87.000065207096 electrons
N(Total)           :      174.000130414192 electrons
E(X)               :     -111.431655788885 Eh       
E(C)               :       -5.870794029027 Eh       
E(XC)              :     -117.302449817912 Eh       
DFET-embed. en.    :        0.000000000000 Eh       
CPCM Solvation Model Properties:
Surface-charge          :           -0.02979084
Charge-correction       :           -0.00045543 Eh              -0.01239 eV
Free-energy (cav+disp)  :  This term is not implemented in the current solvation scheme

---------------
SCF CONVERGENCE
---------------

  Last Energy change         ...    3.1662e-08  Tolerance :   1.0000e-08
  Last MAX-Density change    ...    2.6645e-15  Tolerance :   1.0000e-07
  Last RMS-Density change    ...    1.3426e-17  Tolerance :   5.0000e-09
  Last Orbital Gradient      ...    1.5305e-06  Tolerance :   1.0000e-05
  Last Orbital Rotation      ...    3.6221e-06  Tolerance :   1.0000e-05

             **** THE GBW FILE WAS UPDATED (TS2_H/TS2_H.gbw) ****
             **** DENSITY TS2_H/TS2_H.scfp WAS UPDATED ****
             **** ENERGY FILE WAS UPDATED (TS2_H/TS2_H.en.tmp) ****
             **** THE GBW FILE WAS UPDATED (TS2_H/TS2_H.gbw) ****
             **** DENSITY TS2_H/TS2_H.scfp WAS UPDATED ****
----------------
ORBITAL ENERGIES
----------------

  NO   OCC          E(Eh)            E(eV) 
   0   2.0000     -19.265622      -524.2442 
   1   2.0000     -19.246275      -523.7178 
   2   2.0000     -19.210092      -522.7332 
   3   2.0000     -19.205778      -522.6158 
   4   2.0000     -19.181178      -521.9464 
   5   2.0000     -14.561132      -396.2285 
   6   2.0000     -14.444613      -393.0579 
   7   2.0000     -10.367555      -282.1155 
   8   2.0000     -10.326364      -280.9946 
   9   2.0000     -10.293896      -280.1111 
  10   2.0000     -10.288469      -279.9635 
  11   2.0000     -10.287643      -279.9410 
  12   2.0000     -10.273397      -279.5533 
  13   2.0000     -10.269253      -279.4406 
  14   2.0000     -10.263382      -279.2808 
  15   2.0000     -10.261429      -279.2277 
  16   2.0000     -10.254071      -279.0275 
  17   2.0000     -10.253678      -279.0168 
  18   2.0000     -10.246778      -278.8290 
  19   2.0000     -10.241133      -278.6754 
  20   2.0000     -10.232866      -278.4504 
  21   2.0000     -10.232788      -278.4483 
  22   2.0000     -10.229219      -278.3512 
  23   2.0000     -10.225037      -278.2374 
  24   2.0000      -1.197568       -32.5875 
  25   2.0000      -1.156909       -31.4811 
  26   2.0000      -1.110812       -30.2267 
  27   2.0000      -1.063960       -28.9518 
  28   2.0000      -1.022785       -27.8314 
  29   2.0000      -1.016924       -27.6719 
  30   2.0000      -0.896623       -24.3983 
  31   2.0000      -0.865634       -23.5551 
  32   2.0000      -0.852351       -23.1937 
  33   2.0000      -0.822422       -22.3792 
  34   2.0000      -0.813662       -22.1409 
  35   2.0000      -0.791833       -21.5469 
  36   2.0000      -0.777097       -21.1459 
  37   2.0000      -0.750124       -20.4119 
  38   2.0000      -0.717530       -19.5250 
  39   2.0000      -0.688500       -18.7350 
  40   2.0000      -0.680071       -18.5057 
  41   2.0000      -0.666015       -18.1232 
  42   2.0000      -0.624781       -17.0012 
  43   2.0000      -0.612551       -16.6684 
  44   2.0000      -0.602966       -16.4075 
  45   2.0000      -0.587153       -15.9772 
  46   2.0000      -0.569917       -15.5082 
  47   2.0000      -0.563236       -15.3264 
  48   2.0000      -0.546776       -14.8785 
  49   2.0000      -0.529583       -14.4107 
  50   2.0000      -0.524794       -14.2804 
  51   2.0000      -0.522390       -14.2150 
  52   2.0000      -0.510916       -13.9027 
  53   2.0000      -0.509790       -13.8721 
  54   2.0000      -0.501691       -13.6517 
  55   2.0000      -0.497588       -13.5401 
  56   2.0000      -0.495774       -13.4907 
  57   2.0000      -0.492224       -13.3941 
  58   2.0000      -0.481800       -13.1104 
  59   2.0000      -0.465355       -12.6630 
  60   2.0000      -0.462281       -12.5793 
  61   2.0000      -0.457298       -12.4437 
  62   2.0000      -0.450088       -12.2475 
  63   2.0000      -0.446880       -12.1602 
  64   2.0000      -0.432872       -11.7790 
  65   2.0000      -0.424060       -11.5393 
  66   2.0000      -0.421806       -11.4779 
  67   2.0000      -0.412943       -11.2367 
  68   2.0000      -0.410706       -11.1759 
  69   2.0000      -0.396087       -10.7781 
  70   2.0000      -0.393084       -10.6964 
  71   2.0000      -0.383336       -10.4311 
  72   2.0000      -0.379456       -10.3255 
  73   2.0000      -0.368081       -10.0160 
  74   2.0000      -0.355704        -9.6792 
  75   2.0000      -0.344981        -9.3874 
  76   2.0000      -0.341081        -9.2813 
  77   2.0000      -0.333013        -9.0617 
  78   2.0000      -0.326324        -8.8797 
  79   2.0000      -0.321536        -8.7494 
  80   2.0000      -0.305207        -8.3051 
  81   2.0000      -0.299214        -8.1420 
  82   2.0000      -0.296849        -8.0777 
  83   2.0000      -0.271763        -7.3951 
  84   2.0000      -0.270775        -7.3682 
  85   2.0000      -0.240627        -6.5478 
  86   2.0000      -0.220068        -5.9884 
  87   0.0000      -0.057095        -1.5536 
  88   0.0000      -0.037878        -1.0307 
  89   0.0000      -0.034020        -0.9257 
  90   0.0000      -0.018590        -0.5059 
  91   0.0000      -0.003609        -0.0982 
  92   0.0000       0.014330         0.3899 
  93   0.0000       0.047425         1.2905 
  94   0.0000       0.056135         1.5275 
  95   0.0000       0.063862         1.7378 
  96   0.0000       0.066241         1.8025 
  97   0.0000       0.072560         1.9745 
  98   0.0000       0.080911         2.2017 
  99   0.0000       0.082994         2.2584 
 100   0.0000       0.090786         2.4704 
 101   0.0000       0.096271         2.6197 
 102   0.0000       0.100881         2.7451 
 103   0.0000       0.103045         2.8040 
 104   0.0000       0.111562         3.0358 
 105   0.0000       0.114841         3.1250 
 106   0.0000       0.120522         3.2796 
 107   0.0000       0.122567         3.3352 
 108   0.0000       0.127590         3.4719 
 109   0.0000       0.131115         3.5678 
 110   0.0000       0.132900         3.6164 
 111   0.0000       0.139006         3.7825 
 112   0.0000       0.142978         3.8906 
 113   0.0000       0.145442         3.9577 
 114   0.0000       0.148210         4.0330 
 115   0.0000       0.153412         4.1745 
 116   0.0000       0.160296         4.3619 
 117   0.0000       0.162850         4.4314 
 118   0.0000       0.167847         4.5673 
 119   0.0000       0.184553         5.0220 
 120   0.0000       0.188105         5.1186 
 121   0.0000       0.195008         5.3064 
 122   0.0000       0.202265         5.5039 
 123   0.0000       0.210165         5.7189 
 124   0.0000       0.214495         5.8367 
 125   0.0000       0.215741         5.8706 
 126   0.0000       0.217795         5.9265 
 127   0.0000       0.223113         6.0712 
 128   0.0000       0.223713         6.0875 
 129   0.0000       0.226333         6.1588 
 130   0.0000       0.232681         6.3316 
 131   0.0000       0.239674         6.5219 
 132   0.0000       0.243123         6.6157 
 133   0.0000       0.246489         6.7073 
 134   0.0000       0.249661         6.7936 
 135   0.0000       0.251027         6.8308 
 136   0.0000       0.261700         7.1212 
 137   0.0000       0.264492         7.1972 
 138   0.0000       0.267904         7.2900 
 139   0.0000       0.274818         7.4782 
 140   0.0000       0.279427         7.6036 
 141   0.0000       0.283058         7.7024 
 142   0.0000       0.289901         7.8886 
 143   0.0000       0.297806         8.1037 
 144   0.0000       0.299335         8.1453 
 145   0.0000       0.302901         8.2424 
 146   0.0000       0.304857         8.2956 
 147   0.0000       0.313284         8.5249 
 148   0.0000       0.320145         8.7116 
 149   0.0000       0.327170         8.9027 
 150   0.0000       0.329517         8.9666 
 151   0.0000       0.333255         9.0683 
 152   0.0000       0.336684         9.1616 
 153   0.0000       0.345819         9.4102 
 154   0.0000       0.347036         9.4433 
 155   0.0000       0.349277         9.5043 
 156   0.0000       0.355268         9.6673 
 157   0.0000       0.363129         9.8812 
 158   0.0000       0.365875         9.9560 
 159   0.0000       0.369510        10.0549 
 160   0.0000       0.370065        10.0700 
 161   0.0000       0.372196        10.1280 
 162   0.0000       0.387402        10.5417 
 163   0.0000       0.392100        10.6696 
 164   0.0000       0.396668        10.7939 
 165   0.0000       0.397279        10.8105 
 166   0.0000       0.401659        10.9297 
 167   0.0000       0.405993        11.0476 
 168   0.0000       0.409263        11.1366 
 169   0.0000       0.412545        11.2259 
 170   0.0000       0.414415        11.2768 
 171   0.0000       0.418009        11.3746 
 172   0.0000       0.422249        11.4900 
 173   0.0000       0.426511        11.6060 
 174   0.0000       0.430987        11.7278 
 175   0.0000       0.431703        11.7472 
 176   0.0000       0.437586        11.9073 
 177   0.0000       0.444800        12.1036 
 178   0.0000       0.446709        12.1556 
 179   0.0000       0.448419        12.2021 
 180   0.0000       0.452671        12.3178 
 181   0.0000       0.457687        12.4543 
 182   0.0000       0.460737        12.5373 
 183   0.0000       0.465466        12.6660 
 184   0.0000       0.467359        12.7175 
 185   0.0000       0.472798        12.8655 
 186   0.0000       0.475348        12.9349 
 187   0.0000       0.476785        12.9740 
 188   0.0000       0.484473        13.1832 
 189   0.0000       0.484826        13.1928 
 190   0.0000       0.489155        13.3106 
 191   0.0000       0.492998        13.4152 
 192   0.0000       0.496267        13.5041 
 193   0.0000       0.499009        13.5787 
 194   0.0000       0.501237        13.6393 
 195   0.0000       0.507757        13.8168 
 196   0.0000       0.517589        14.0843 
 197   0.0000       0.521313        14.1856 
 198   0.0000       0.525765        14.3068 
 199   0.0000       0.530113        14.4251 
 200   0.0000       0.531136        14.4530 
 201   0.0000       0.538594        14.6559 
 202   0.0000       0.547566        14.9000 
 203   0.0000       0.548332        14.9209 
 204   0.0000       0.549659        14.9570 
 205   0.0000       0.560057        15.2399 
 206   0.0000       0.567756        15.4494 
 207   0.0000       0.569752        15.5037 
 208   0.0000       0.574840        15.6422 
 209   0.0000       0.579322        15.7641 
 210   0.0000       0.589463        16.0401 
 211   0.0000       0.591966        16.1082 
 212   0.0000       0.607178        16.5222 
 213   0.0000       0.610517        16.6130 
 214   0.0000       0.620380        16.8814 
 215   0.0000       0.626268        17.0416 
 216   0.0000       0.627076        17.0636 
 217   0.0000       0.633155        17.2290 
 218   0.0000       0.641148        17.4465 
 219   0.0000       0.648994        17.6600 
 220   0.0000       0.661086        17.9891 
 221   0.0000       0.663935        18.0666 
 222   0.0000       0.667783        18.1713 
 223   0.0000       0.673494        18.3267 
 224   0.0000       0.682185        18.5632 
 225   0.0000       0.684829        18.6351 
 226   0.0000       0.689087        18.7510 
 227   0.0000       0.692823        18.8527 
 228   0.0000       0.696041        18.9402 
 229   0.0000       0.700523        19.0622 
 230   0.0000       0.702991        19.1294 
 231   0.0000       0.714545        19.4438 
 232   0.0000       0.721748        19.6397 
 233   0.0000       0.726909        19.7802 
 234   0.0000       0.729400        19.8480 
 235   0.0000       0.738449        20.0942 
 236   0.0000       0.749327        20.3902 
 237   0.0000       0.750062        20.4102 
 238   0.0000       0.757637        20.6164 
 239   0.0000       0.765126        20.8201 
 240   0.0000       0.769171        20.9302 
 241   0.0000       0.779181        21.2026 
 242   0.0000       0.788478        21.4556 
 243   0.0000       0.790550        21.5120 
 244   0.0000       0.795900        21.6575 
 245   0.0000       0.805103        21.9080 
 246   0.0000       0.808888        22.0110 
 247   0.0000       0.814082        22.1523 
 248   0.0000       0.822787        22.3892 
 249   0.0000       0.828822        22.5534 
 250   0.0000       0.832083        22.6421 
 251   0.0000       0.839423        22.8419 
 252   0.0000       0.846340        23.0301 
 253   0.0000       0.855695        23.2847 
 254   0.0000       0.863176        23.4882 
 255   0.0000       0.870809        23.6959 
 256   0.0000       0.876889        23.8614 
 257   0.0000       0.879000        23.9188 
 258   0.0000       0.881132        23.9768 
 259   0.0000       0.892219        24.2785 
 260   0.0000       0.898854        24.4591 
 261   0.0000       0.905239        24.6328 
 262   0.0000       0.915777        24.9196 
 263   0.0000       0.928250        25.2590 
 264   0.0000       0.931452        25.3461 
 265   0.0000       0.940342        25.5880 
 266   0.0000       0.948997        25.8235 
 267   0.0000       0.959407        26.1068 
 268   0.0000       0.960518        26.1370 
[...]
 14:     95.58   0.000312    1.58  0.001018  ( 0.014364 -0.002834 -0.028354)
 15:    104.69   0.001699    8.59  0.005065  ( 0.041523 -0.049743  0.029429)
 16:    127.69   0.003255   16.45  0.007954  (-0.040704  0.062096  0.049405)
 17:    144.76   0.001090    5.51  0.002349  (-0.026907  0.040132  0.003752)
 18:    157.39   0.001843    9.31  0.003653  ( 0.058531 -0.009764 -0.011483)
 19:    161.89   0.000619    3.13  0.001193  ( 0.018657 -0.016617 -0.023855)
 20:    177.39   0.000744    3.76  0.001308  (-0.021105 -0.001139 -0.029350)
 21:    191.93   0.005300   26.78  0.008617  (-0.092796 -0.001833  0.001700)
 22:    215.11   0.000078    0.39  0.000113  (-0.009427 -0.001767 -0.004621)
 23:    232.79   0.002955   14.93  0.003961  ( 0.050801 -0.035523 -0.010897)
 24:    245.14   0.000105    0.53  0.000134  (-0.009425  0.006724  0.000475)
 25:    261.22   0.001406    7.11  0.001680  (-0.004054  0.040256 -0.006557)
 26:    275.16   0.001074    5.43  0.001217  (-0.009290  0.033299 -0.004730)
 27:    300.55   0.002923   14.77  0.003035  ( 0.005409  0.033071 -0.043727)
 28:    324.94   0.001789    9.04  0.001718  (-0.011732 -0.039136 -0.006976)
 29:    334.46   0.001518    7.67  0.001417  ( 0.002376 -0.029035  0.023830)
 30:    397.06   0.002903   14.67  0.002282  (-0.034722  0.031572  0.008900)
 31:    399.53   0.000225    1.14  0.000176  (-0.010153  0.008347  0.001811)
 32:    449.16   0.002317   11.71  0.001610  ( 0.023894  0.030715 -0.009785)
 33:    481.66   0.003425   17.31  0.002219  ( 0.042004  0.021300  0.000912)
 34:    492.81   0.000779    3.94  0.000493  ( 0.012776 -0.000128  0.018165)
 35:    547.16   0.003503   17.70  0.001998  (-0.039830  0.019887 -0.003978)
 36:    581.16   0.002537   12.82  0.001362  (-0.002733  0.027952  0.023951)
 37:    587.54   0.003450   17.44  0.001832  ( 0.042014 -0.005704  0.005895)
 38:    617.07   0.002424   12.25  0.001226  (-0.001424 -0.033951  0.008439)
 39:    634.64   0.002239   11.31  0.001101  ( 0.033053 -0.002863  0.000275)
 40:    659.28   0.000204    1.03  0.000096  ( 0.009410  0.002420  0.001414)
 41:    664.82   0.001464    7.40  0.000687  (-0.018079 -0.014306 -0.012471)
 42:    680.83   0.005160   26.08  0.002365  ( 0.004382  0.031769  0.036559)
 43:    713.58   0.019434   98.21  0.008499  (-0.006567  0.089566 -0.020829)
 44:    727.51   0.002839   14.35  0.001218  (-0.003103 -0.034732 -0.001371)
 45:    752.93   0.014072   71.11  0.005832  (-0.000598 -0.062890 -0.043321)
 46:    763.57   0.003946   19.94  0.001613  ( 0.030126 -0.010586 -0.024353)
 47:    767.86   0.014723   74.40  0.005983  (-0.063776  0.030873 -0.031031)
 48:    774.75   0.015058   76.10  0.006065  (-0.038014  0.060359 -0.031255)
 49:    778.23   0.005031   25.42  0.002017  ( 0.018631 -0.040755  0.003044)
 50:    794.27   0.002912   14.71  0.001144  ( 0.000932 -0.004430  0.033519)
 51:    808.98   0.002456   12.41  0.000948  (-0.002386 -0.012022 -0.028237)
 52:    862.78   0.002798   14.14  0.001012  ( 0.001896 -0.031505 -0.003971)
 53:    876.03   0.000562    2.84  0.000200  (-0.010856  0.008605 -0.002853)
 54:    895.37   0.000023    0.12  0.000008  ( 0.000199  0.001285 -0.002530)
 55:    962.68   0.001731    8.75  0.000561  ( 0.009474 -0.010977  0.018735)
 56:    967.40   0.000684    3.46  0.000221  (-0.003237 -0.009730  0.010745)
 57:    973.49   0.010868   54.92  0.003484  (-0.010246  0.057568 -0.008054)
 58:    982.77   0.002874   14.52  0.000913  (-0.003741  0.028324 -0.009813)
 59:    994.35   0.000027    0.14  0.000008  ( 0.001738 -0.001359 -0.001900)
 60:   1008.18   0.034194  172.80  0.010584  (-0.052784  0.064844 -0.059943)
 61:   1018.00   0.000114    0.57  0.000035  ( 0.002687 -0.002101  0.004818)
 62:   1041.01   0.007379   37.29  0.002212  (-0.036496 -0.021957  0.019947)
 63:   1041.56   0.002484   12.55  0.000744  (-0.019951 -0.014217  0.012004)
 64:   1058.32   0.008559   43.26  0.002524  ( 0.001576  0.050072  0.003769)
 65:   1061.20   0.006603   33.37  0.001942  (-0.001196  0.043931  0.003217)
 66:   1072.32   0.005559   28.09  0.001618  (-0.037871 -0.009829  0.009329)
 67:   1083.73   0.008467   42.79  0.002438  (-0.025478  0.001819  0.042257)
 68:   1096.20   0.008169   41.28  0.002326  (-0.047599 -0.002176  0.007432)
 69:   1112.18   0.001625    8.21  0.000456  ( 0.009629  0.008475 -0.017074)
 70:   1132.71   0.015618   78.93  0.004303  (-0.029064 -0.029569  0.050830)
 71:   1150.84   0.003627   18.33  0.000984  (-0.024383  0.019124  0.004830)
 72:   1168.94   0.000776    3.92  0.000207  ( 0.001743  0.006006  0.012963)
 73:   1171.19   0.000265    1.34  0.000071  ( 0.008406  0.000095 -0.000245)
 74:   1171.99   0.000441    2.23  0.000117  ( 0.010469  0.000763 -0.002689)
 75:   1174.24   0.001877    9.49  0.000499  ( 0.012882  0.011794 -0.013921)
 76:   1191.58   0.013558   68.51  0.003551  (-0.004033 -0.058727  0.009246)
 77:   1195.51   0.008030   40.58  0.002096  ( 0.003654 -0.045405 -0.004577)
 78:   1213.17   0.001873    9.46  0.000482  ( 0.020179  0.004151 -0.007572)
 79:   1219.65   0.013935   70.42  0.003565  (-0.006308 -0.058681  0.009067)
 80:   1224.93   0.001688    8.53  0.000430  ( 0.010338  0.017860 -0.002058)
 81:   1237.26   0.006592   33.31  0.001663  (-0.038039  0.014390  0.002945)
 82:   1273.51   0.104626  528.74  0.025638  ( 0.134476 -0.086913  0.000051)
 83:   1289.71   0.044272  223.73  0.010712  (-0.046552  0.072615 -0.057203)
 84:   1300.36   0.077658  392.45  0.018636  ( 0.073917 -0.004093 -0.114700)
 85:   1320.45   0.042937  216.99  0.010147  (-0.079064 -0.054518  0.030398)
 86:   1323.31   0.037071  187.34  0.008742  ( 0.067214  0.064641 -0.006774)
 87:   1341.73   0.002612   13.20  0.000608  ( 0.011249  0.018394  0.011947)
 88:   1347.01   0.002191   11.07  0.000508  ( 0.001384 -0.019347  0.011464)
 89:   1379.68   0.016985   85.84  0.003842  (-0.036371 -0.037201  0.033691)
 90:   1386.81   0.002092   10.57  0.000471  (-0.003931 -0.001632  0.021276)
 91:   1427.53   0.006705   33.89  0.001466  (-0.004588  0.038004 -0.000647)
 92:   1465.18   0.003572   18.05  0.000761  (-0.026626  0.000520  0.007179)
 93:   1465.85   0.005856   29.60  0.001247  ( 0.000658 -0.014665 -0.032113)
 94:   1472.42   0.007202   36.39  0.001526  ( 0.003345 -0.032661  0.021175)
 95:   1473.25   0.002962   14.97  0.000627  ( 0.014930 -0.019981  0.002300)
 96:   1480.74   0.015074   76.18  0.003177  (-0.008335 -0.054524 -0.011599)
 97:   1483.77   0.004654   23.52  0.000979  ( 0.000026  0.009744  0.029732)
 98:   1494.49   0.016588   83.83  0.003464  ( 0.006352 -0.000284  0.058509)
 99:   1497.63   0.011563   58.44  0.002409  (-0.017711  0.006884  0.045259)
100:   1528.30   0.000508    2.57  0.000104  (-0.009983 -0.001886  0.000727)
101:   1537.22   0.032991  166.72  0.006697  (-0.023249  0.022040  0.075307)
102:   1648.20   0.010995   55.56  0.002082  ( 0.034163  0.018662 -0.023798)
103:   1648.81   0.002804   14.17  0.000531  ( 0.004577  0.000043 -0.022577)
104:   1663.42   0.016534   83.56  0.003102  ( 0.022707 -0.004106 -0.050689)
105:   1666.25   0.005853   29.58  0.001096  ( 0.000218 -0.031330  0.010700)
106:   1667.76   0.096438  487.36  0.018045  (-0.110276 -0.067520  0.036404)
107:   1780.95   0.090427  456.98  0.015845  (-0.031201  0.007615 -0.121710)
108:   3036.84   0.012358   62.45  0.001270  (-0.025701 -0.011840  0.021660)
109:   3071.90   0.005885   29.74  0.000598  (-0.003789 -0.023480 -0.005676)
110:   3101.18   0.000467    2.36  0.000047  ( 0.000049  0.006821 -0.000663)
111:   3108.52   0.008005   40.46  0.000804  ( 0.015497 -0.020110  0.012613)
112:   3155.39   0.003875   19.58  0.000383  ( 0.018836 -0.000953 -0.005245)
113:   3164.87   0.003800   19.20  0.000375  ( 0.000888  0.010127  0.016471)
114:   3180.68   0.000795    4.02  0.000078  (-0.006289 -0.005736  0.002355)
115:   3190.69   0.002146   10.84  0.000210  ( 0.002687 -0.007541  0.012073)
116:   3195.09   0.001280    6.47  0.000125  (-0.007515 -0.008213 -0.001045)
117:   3201.60   0.000654    3.31  0.000064  (-0.007530 -0.000463 -0.002622)
118:   3206.79   0.001019    5.15  0.000099  ( 0.009800  0.001527  0.000915)
119:   3213.24   0.003041   15.37  0.000295  ( 0.000893 -0.007940 -0.015215)
120:   3213.58   0.000017    0.08  0.000002  ( 0.000635  0.000400  0.001020)
121:   3230.57   0.000132    0.67  0.000013  ( 0.000118 -0.000417 -0.003541)
122:   3231.01   0.000508    2.57  0.000049  (-0.004777 -0.003910  0.003308)
123:   3234.75   0.000353    1.78  0.000034  ( 0.005830 -0.000055 -0.000237)
124:   3267.37   0.002061   10.42  0.000197  (-0.010209 -0.008122  0.005163)
125:   3274.94   0.000215    1.09  0.000021  (-0.003742  0.001028  0.002337)

* The epsilon (eps) is given for a Dirac delta lineshape.
** The dipole moment derivative (T) already includes vibrational overlap.

The first frequency considered to be a vibration is 7
The total number of vibrations considered is 119


--------------------------
THERMOCHEMISTRY AT 298.15K
--------------------------

Temperature         ... 298.15 K
Pressure            ... 1.00 atm
Total Mass          ... 330.34 AMU

Throughout the following assumptions are being made:
  (1) The electronic state is orbitally nondegenerate
  (2) There are no thermally accessible electronically excited states
  (3) Hindered rotations indicated by low frequency modes are not
      treated as such but are treated as vibrations and this may
      cause some error
  (4) All equations used are the standard statistical mechanics
      equations for an ideal gas
  (5) All vibrations are strictly harmonic

freq.      20.65  E(vib)   ...       0.56 
freq.      40.35  E(vib)   ...       0.54 
freq.      43.49  E(vib)   ...       0.53 
freq.      55.92  E(vib)   ...       0.52 
freq.      65.82  E(vib)   ...       0.50 
freq.      77.06  E(vib)   ...       0.49 
freq.      85.03  E(vib)   ...       0.48 
freq.      95.58  E(vib)   ...       0.47 
freq.     104.69  E(vib)   ...       0.46 
freq.     127.69  E(vib)   ...       0.43 
freq.     144.76  E(vib)   ...       0.41 
freq.     157.39  E(vib)   ...       0.40 
freq.     161.89  E(vib)   ...       0.39 
freq.     177.39  E(vib)   ...       0.37 
freq.     191.93  E(vib)   ...       0.36 
freq.     215.11  E(vib)   ...       0.34 
freq.     232.79  E(vib)   ...       0.32 
freq.     245.14  E(vib)   ...       0.31 
freq.     261.22  E(vib)   ...       0.30 
freq.     275.16  E(vib)   ...       0.28 
freq.     300.55  E(vib)   ...       0.26 
freq.     324.94  E(vib)   ...       0.24 
freq.     334.46  E(vib)   ...       0.24 
freq.     397.06  E(vib)   ...       0.20 
freq.     399.53  E(vib)   ...       0.19 
freq.     449.16  E(vib)   ...       0.17 
freq.     481.66  E(vib)   ...       0.15 
freq.     492.81  E(vib)   ...       0.14 
freq.     547.16  E(vib)   ...       0.12 
freq.     581.16  E(vib)   ...       0.11 
freq.     587.54  E(vib)   ...       0.10 
freq.     617.07  E(vib)   ...       0.09 
freq.     634.64  E(vib)   ...       0.09 
freq.     659.28  E(vib)   ...       0.08 
freq.     664.82  E(vib)   ...       0.08 
freq.     680.83  E(vib)   ...       0.08 
freq.     713.58  E(vib)   ...       0.07 
freq.     727.51  E(vib)   ...       0.06 
freq.     752.93  E(vib)   ...       0.06 
freq.     763.57  E(vib)   ...       0.06 
freq.     767.86  E(vib)   ...       0.06 
freq.     774.75  E(vib)   ...       0.05 
freq.     778.23  E(vib)   ...       0.05 
freq.     794.27  E(vib)   ...       0.05 
freq.     808.98  E(vib)   ...       0.05 
freq.     862.78  E(vib)   ...       0.04 
freq.     876.03  E(vib)   ...       0.04 
freq.     895.37  E(vib)   ...       0.03 
freq.     962.68  E(vib)   ...       0.03 
freq.     967.40  E(vib)   ...       0.03 
freq.     973.49  E(vib)   ...       0.03 
freq.     982.77  E(vib)   ...       0.02 
freq.     994.35  E(vib)   ...       0.02 
freq.    1008.18  E(vib)   ...       0.02 
freq.    1018.00  E(vib)   ...       0.02 
freq.    1041.01  E(vib)   ...       0.02 
freq.    1041.56  E(vib)   ...       0.02 
freq.    1058.32  E(vib)   ...       0.02 
freq.    1061.20  E(vib)   ...       0.02 
freq.    1072.32  E(vib)   ...       0.02 
freq.    1083.73  E(vib)   ...       0.02 
freq.    1096.20  E(vib)   ...       0.02 
freq.    1112.18  E(vib)   ...       0.01 
freq.    1132.71  E(vib)   ...       0.01 
freq.    1150.84  E(vib)   ...       0.01 
freq.    1168.94  E(vib)   ...       0.01 
freq.    1171.19  E(vib)   ...       0.01 
freq.    1171.99  E(vib)   ...       0.01 
freq.    1174.24  E(vib)   ...       0.01 
freq.    1191.58  E(vib)   ...       0.01 
freq.    1195.51  E(vib)   ...       0.01 
freq.    1213.17  E(vib)   ...       0.01 
freq.    1219.65  E(vib)   ...       0.01 
freq.    1224.93  E(vib)   ...       0.01 
freq.    1237.26  E(vib)   ...       0.01 
freq.    1273.51  E(vib)   ...       0.01 
freq.    1289.71  E(vib)   ...       0.01 
freq.    1300.36  E(vib)   ...       0.01 
freq.    1320.45  E(vib)   ...       0.01 
freq.    1323.31  E(vib)   ...       0.01 
freq.    1341.73  E(vib)   ...       0.01 
freq.    1347.01  E(vib)   ...       0.01 
freq.    1379.68  E(vib)   ...       0.01 
freq.    1386.81  E(vib)   ...       0.00 
freq.    1427.53  E(vib)   ...       0.00 
freq.    1465.18  E(vib)   ...       0.00 
freq.    1465.85  E(vib)   ...       0.00 
freq.    1472.42  E(vib)   ...       0.00 
freq.    1473.25  E(vib)   ...       0.00 
freq.    1480.74  E(vib)   ...       0.00 
freq.    1483.77  E(vib)   ...       0.00 
freq.    1494.49  E(vib)   ...       0.00 
freq.    1497.63  E(vib)   ...       0.00 
freq.    1528.30  E(vib)   ...       0.00 
freq.    1537.22  E(vib)   ...       0.00 
freq.    1648.20  E(vib)   ...       0.00 
freq.    1648.81  E(vib)   ...       0.00 
freq.    1663.42  E(vib)   ...       0.00 
freq.    1666.25  E(vib)   ...       0.00 
freq.    1667.76  E(vib)   ...       0.00 
freq.    1780.95  E(vib)   ...       0.00 
freq.    3036.84  E(vib)   ...       0.00 
freq.    3071.90  E(vib)   ...       0.00 
freq.    3101.18  E(vib)   ...       0.00 
freq.    3108.52  E(vib)   ...       0.00 
freq.    3155.39  E(vib)   ...       0.00 
freq.    3164.87  E(vib)   ...       0.00 
freq.    3180.68  E(vib)   ...       0.00 
freq.    3190.69  E(vib)   ...       0.00 
freq.    3195.09  E(vib)   ...       0.00 
freq.    3201.60  E(vib)   ...       0.00 
freq.    3206.79  E(vib)   ...       0.00 
freq.    3213.24  E(vib)   ...       0.00 
freq.    3213.58  E(vib)   ...       0.00 
freq.    3230.57  E(vib)   ...       0.00 
freq.    3231.01  E(vib)   ...       0.00 
freq.    3234.75  E(vib)   ...       0.00 
freq.    3267.37  E(vib)   ...       0.00 
freq.    3274.94  E(vib)   ...       0.00 

------------
INNER ENERGY
------------

The inner energy is: U= E(el) + E(ZPE) + E(vib) + E(rot) + E(trans)
    E(el)   - is the total energy from the electronic structure calculation
              = E(kin-el) + E(nuc-el) + E(el-el) + E(nuc-nuc)
    E(ZPE)  - the the zero temperature vibrational energy from the frequency calculation
    E(vib)  - the the finite temperature correction to E(ZPE) due to population
              of excited vibrational states
    E(rot)  - is the rotational thermal energy
    E(trans)- is the translational thermal energy

Summary of contributions to the inner energy U:
Electronic energy                ...  -1143.30657590 Eh
Zero point energy                ...      0.33219410 Eh     208.45 kcal/mol
Thermal vibrational correction   ...      0.01906163 Eh      11.96 kcal/mol
Thermal rotational correction    ...      0.00141627 Eh       0.89 kcal/mol
Thermal translational correction ...      0.00141627 Eh       0.89 kcal/mol
-----------------------------------------------------------------------
Total thermal energy                  -1142.95248763 Eh


Summary of corrections to the electronic energy:
(perhaps to be used in another calculation)
Total thermal correction                  0.02189417 Eh      13.74 kcal/mol
Non-thermal (ZPE) correction              0.33219410 Eh     208.45 kcal/mol
-----------------------------------------------------------------------
Total correction                          0.35408827 Eh     222.19 kcal/mol


--------
ENTHALPY
--------

The enthalpy is H = U + kB*T
                kB is Boltzmann's constant
Total free energy                 ...  -1142.95248763 Eh 
Thermal Enthalpy correction       ...      0.00094421 Eh       0.59 kcal/mol
-----------------------------------------------------------------------
Total Enthalpy                    ...  -1142.95154342 Eh


Note: Only C1 symmetry has been detected, increase convergence thresholds 
      if your molecule has a higher symmetry. Symmetry factor of 1.0 is   
      used for the rotational entropy correction. 
 

Note: Rotational entropy computed according to Herzberg 
Infrared and Raman Spectra, Chapter V,1, Van Nostrand Reinhold, 1945 
Point Group:  C1, Symmetry Number:   1  
Rotational constants in cm-1:     0.010490     0.007901     0.005677 

Vibrational entropy computed according to the QRRHO of S. Grimme
Chem.Eur.J. 2012 18 9955


-------
ENTROPY
-------

The entropy contributions are T*S = T*(S(el)+S(vib)+S(rot)+S(trans))
     S(el)   - electronic entropy
     S(vib)  - vibrational entropy
     S(rot)  - rotational entropy
     S(trans)- translational entropy
The entropies will be listed as multiplied by the temperature to get
units of energy

Electronic entropy                ...      0.00000000 Eh      0.00 kcal/mol
Vibrational entropy               ...      0.03426904 Eh     21.50 kcal/mol
Rotational entropy                ...      0.01638890 Eh     10.28 kcal/mol
Translational entropy             ...      0.02056362 Eh     12.90 kcal/mol
-----------------------------------------------------------------------
Final entropy term                ...      0.07122156 Eh     44.69 kcal/mol

In case the symmetry of your molecule has not been determined correctly
or in case you have a reason to use a different symmetry number we print 
out the resulting rotational entropy values for sn=1,12 :
 --------------------------------------------------------
|  sn= 1 | S(rot)=       0.01638890 Eh     10.28 kcal/mol|
|  sn= 2 | S(rot)=       0.01573444 Eh      9.87 kcal/mol|
|  sn= 3 | S(rot)=       0.01535161 Eh      9.63 kcal/mol|
|  sn= 4 | S(rot)=       0.01507999 Eh      9.46 kcal/mol|
|  sn= 5 | S(rot)=       0.01486930 Eh      9.33 kcal/mol|
|  sn= 6 | S(rot)=       0.01469716 Eh      9.22 kcal/mol|
|  sn= 7 | S(rot)=       0.01455161 Eh      9.13 kcal/mol|
|  sn= 8 | S(rot)=       0.01442553 Eh      9.05 kcal/mol|
|  sn= 9 | S(rot)=       0.01431432 Eh      8.98 kcal/mol|
|  sn=10 | S(rot)=       0.01421484 Eh      8.92 kcal/mol|
|  sn=11 | S(rot)=       0.01412485 Eh      8.86 kcal/mol|
|  sn=12 | S(rot)=       0.01404270 Eh      8.81 kcal/mol|
 --------------------------------------------------------


-------------------
GIBBS FREE ENERGY
-------------------

The Gibbs free energy is G = H - T*S

Total enthalpy                    ...  -1142.95154342 Eh 
Total entropy correction          ...     -0.07122156 Eh    -44.69 kcal/mol
-----------------------------------------------------------------------
Final Gibbs free energy         ...  -1143.02276498 Eh

For completeness - the Gibbs free energy minus the electronic energy
G-E(el)                           ...      0.28381092 Eh    178.09 kcal/mol


Timings for individual modules:

Sum of individual times         ...     7422.297 sec (= 123.705 min)
GTO integral calculation        ...       41.279 sec (=   0.688 min)   0.6 %
SCF iterations                  ...     1864.184 sec (=  31.070 min)  25.1 %
SCF Gradient evaluation         ...      530.682 sec (=   8.845 min)   7.1 %
Geometry relaxation             ...        3.353 sec (=   0.056 min)   0.0 %
Analytical frequency calculation...     4982.799 sec (=  83.047 min)  67.1 %
                             ****ORCA TERMINATED NORMALLY****
TOTAL RUN TIME: 0 days 2 hours 4 minutes 33 seconds 284 msec
