
                                 *****************
                                 * O   R   C   A *
                                 *****************

                                            #,                                       
                                            ###                                      
                                            ####                                     
                                            #####                                    
                                            ######                                   
                                           ########,                                 
                                     ,,################,,,,,                         
                               ,,#################################,,                 
                          ,,##########################################,,             
                       ,#########################################, ''#####,          
                    ,#############################################,,   '####,        
                  ,##################################################,,,,####,       
                ,###########''''           ''''###############################       
              ,#####''   ,,,,##########,,,,          '''####'''          '####       
            ,##' ,,,,###########################,,,                        '##       
           ' ,,###''''                  '''############,,,                           
         ,,##''                                '''############,,,,        ,,,,,,###''
      ,#''                                            '''#######################'''  
     '                                                          ''''####''''         
             ,#######,   #######,   ,#######,      ##                                
            ,#'     '#,  ##    ##  ,#'     '#,    #''#        ######   ,####,        
            ##       ##  ##   ,#'  ##            #'  '#       #        #'  '#        
            ##       ##  #######   ##           ,######,      #####,   #    #        
            '#,     ,#'  ##    ##  '#,     ,#' ,#      #,         ##   #,  ,#        
             '#######'   ##     ##  '#######'  #'      '#     #####' # '####'        



                  #######################################################
                  #                        -***-                        #
                  #          Department of theory and spectroscopy      #
                  #    Directorship and core code : Frank Neese         #
                  #        Max Planck Institute fuer Kohlenforschung    #
                  #                Kaiser Wilhelm Platz 1               #
                  #                 D-45470 Muelheim/Ruhr               #
                  #                      Germany                        #
                  #                                                     #
                  #                  All rights reserved                #
                  #                        -***-                        #
                  #######################################################


                         Program Version 5.0.4 -  RELEASE  -


 With contributions from (in alphabetic order):
   Daniel Aravena         : Magnetic Suceptibility
   Michael Atanasov       : Ab Initio Ligand Field Theory (pilot matlab implementation)
   Alexander A. Auer      : GIAO ZORA, VPT2 properties, NMR spectrum
   Ute Becker             : Parallelization
   Giovanni Bistoni       : ED, misc. LED, open-shell LED, HFLD
   Martin Brehm           : Molecular dynamics
   Dmytro Bykov           : SCF Hessian
   Vijay G. Chilkuri      : MRCI spin determinant printing, contributions to CSF-ICE
   Dipayan Datta          : RHF DLPNO-CCSD density
   Achintya Kumar Dutta   : EOM-CC, STEOM-CC
   Dmitry Ganyushin       : Spin-Orbit,Spin-Spin,Magnetic field MRCI
   Miquel Garcia          : C-PCM and meta-GGA Hessian, CC/C-PCM, Gaussian charge scheme
   Yang Guo               : DLPNO-NEVPT2, F12-NEVPT2, CIM, IAO-localization
   Andreas Hansen         : Spin unrestricted coupled pair/coupled cluster methods
   Benjamin Helmich-Paris : MC-RPA, TRAH-SCF, COSX integrals
   Lee Huntington         : MR-EOM, pCC
   Robert Izsak           : Overlap fitted RIJCOSX, COSX-SCS-MP3, EOM
   Marcus Kettner         : VPT2
   Christian Kollmar      : KDIIS, OOCD, Brueckner-CCSD(T), CCSD density, CASPT2, CASPT2-K
   Simone Kossmann        : Meta GGA functionals, TD-DFT gradient, OOMP2, MP2 Hessian
   Martin Krupicka        : Initial AUTO-CI
   Lucas Lang             : DCDCAS
   Marvin Lechner         : AUTO-CI (C++ implementation), FIC-MRCC
   Dagmar Lenk            : GEPOL surface, SMD
   Dimitrios Liakos       : Extrapolation schemes; Compound Job, initial MDCI parallelization
   Dimitrios Manganas     : Further ROCIS development; embedding schemes
   Dimitrios Pantazis     : SARC Basis sets
   Anastasios Papadopoulos: AUTO-CI, single reference methods and gradients
   Taras Petrenko         : DFT Hessian,TD-DFT gradient, ASA, ECA, R-Raman, ABS, FL, XAS/XES, NRVS
   Peter Pinski           : DLPNO-MP2, DLPNO-MP2 Gradient
   Christoph Reimann      : Effective Core Potentials
   Marius Retegan         : Local ZFS, SOC
   Christoph Riplinger    : Optimizer, TS searches, QM/MM, DLPNO-CCSD(T), (RO)-DLPNO pert. Triples
   Tobias Risthaus        : Range-separated hybrids, TD-DFT gradient, RPA, STAB
   Michael Roemelt        : Original ROCIS implementation
   Masaaki Saitow         : Open-shell DLPNO-CCSD energy and density
   Barbara Sandhoefer     : DKH picture change effects
   Avijit Sen             : IP-ROCIS
   Kantharuban Sivalingam : CASSCF convergence, NEVPT2, FIC-MRCI
   Bernardo de Souza      : ESD, SOC TD-DFT
   Georgi Stoychev        : AutoAux, RI-MP2 NMR, DLPNO-MP2 response
   Willem Van den Heuvel  : Paramagnetic NMR
   Boris Wezisla          : Elementary symmetry handling
   Frank Wennmohs         : Technical directorship


 We gratefully acknowledge several colleagues who have allowed us to
 interface, adapt or use parts of their codes:
   Stefan Grimme, W. Hujo, H. Kruse, P. Pracht,  : VdW corrections, initial TS optimization,
                  C. Bannwarth, S. Ehlert          DFT functionals, gCP, sTDA/sTD-DF
   Ed Valeev, F. Pavosevic, A. Kumar             : LibInt (2-el integral package), F12 methods
   Garnet Chan, S. Sharma, J. Yang, R. Olivares  : DMRG
   Ulf Ekstrom                                   : XCFun DFT Library
   Mihaly Kallay                                 : mrcc  (arbitrary order and MRCC methods)
   Jiri Pittner, Ondrej Demel                    : Mk-CCSD
   Frank Weinhold                                : gennbo (NPA and NBO analysis)
   Christopher J. Cramer and Donald G. Truhlar   : smd solvation model
   Lars Goerigk                                  : TD-DFT with DH, B97 family of functionals
   V. Asgeirsson, H. Jonsson                     : NEB implementation
   FAccTs GmbH                                   : IRC, NEB, NEB-TS, DLPNO-Multilevel, CI-OPT
                                                   MM, QMMM, 2- and 3-layer-ONIOM, Crystal-QMMM,
                                                   LR-CPCM, SF, NACMEs, symmetry and pop. for TD-DFT,
                                                   nearIR, NL-DFT gradient (VV10), updates on ESD,
                                                   ML-optimized integration grids
   S Lehtola, MJT Oliveira, MAL Marques          : LibXC Library
   Liviu Ungur et al                             : ANISO software


 Your calculation uses the libint2 library for the computation of 2-el integrals
 For citations please refer to: http://libint.valeyev.net

 Your ORCA version has been built with support for libXC version: 5.1.0
 For citations please refer to: https://tddft.org/programs/libxc/

 This ORCA versions uses:
   CBLAS   interface :  Fast vector & matrix operations
   LAPACKE interface :  Fast linear algebra routines
   SCALAPACK package :  Parallel linear algebra routines
   Shared memory     :  Shared parallel matrices
   BLAS/LAPACK       :  OpenBLAS 0.3.15  USE64BITINT DYNAMIC_ARCH NO_AFFINITY Haswell SINGLE_THREADED
        Core in use  :  Haswell
   Copyright (c) 2011-2014, The OpenBLAS Project


Your calculation utilizes the atom-pairwise dispersion correction
with the Becke-Johnson damping scheme (D3BJ)
Cite in your paper:
S.Grimme, S.Ehrlich, L.Goerigk, J Comput Chem, (2011), 32, 1456–1465 
S.Grimme, J.Antony, S.Ehrlich and H.Krieg, J.Chem.Phys., 132, (2010), 154104 
   

================================================================================

----- Orbital basis set information -----
Your calculation utilizes the basis: def2-TZVP
   F. Weigend and R. Ahlrichs, Phys. Chem. Chem. Phys. 7, 3297 (2005).

----- AuxJ basis set information -----
Your calculation utilizes the auxiliary basis: def2/J
   F. Weigend, Phys. Chem. Chem. Phys. 8, 1057 (2006).

================================================================================
                                        WARNINGS
                       Please study these warnings very carefully!
================================================================================


WARNING: Geometry Optimization
  ===> : Switching off AutoStart
         For restart on a previous wavefunction, please use MOREAD

INFO   : the flag for use of the SHARK integral package has been found!

================================================================================
                                       INPUT FILE
================================================================================
NAME = TS2_CHCHCO2Me/TS2_CHCHCO2Me.inp
|  1> %pal nprocs 24 end
|  2> ! PBE0 D3BJ def2-TZVP TightSCF OPTTS FREQ TightOpt
|  3> ! CPCM(dmso)
|  4> %scf
|  5> MaxIter 800
|  6> end
|  7> 
|  8> %geom
|  9> MaxIter 800
| 10> MaxStep 0.15
| 11> end
| 12> 
| 13> *xyz 0 1
| 14> C      -3.92989200      1.16475300      0.76512400
| 15> C      -3.69236700      1.20167500     -0.60819700
| 16> C      -2.37835400      1.28112400     -1.05332500
| 17> N      -1.35422000      1.31862900     -0.20181200
| 18> C      -1.56494700      1.28364700      1.11350200
| 19> C      -2.84877300      1.21165300      1.64250900
| 20> C       0.49229600      1.25320100     -1.05652300
| 21> C       0.93739500      2.45552700     -0.27748400
| 22> O       0.73029500      3.59215700     -0.61717100
| 23> O       1.57771500      2.09946200      0.82815000
| 24> C       2.08406600      3.15543600      1.64015000
| 25> H      -4.95097500      1.09899100      1.14818300
| 26> H      -2.13761900      1.30188300     -2.12074500
| 27> H      -0.68231600      1.31068700      1.75920200
| 28> H      -2.98951200      1.18619700      2.72429500
| 29> H      -0.01573200      1.46504000     -1.99315900
| 30> H       2.81082200      3.75490600      1.07426900
| 31> H       2.57021000      2.67440300      2.49535900
| 32> C       2.20366700     -0.50159100     -0.84841900
| 33> C       0.76042100     -0.17557800     -0.61078400
| 34> C      -0.18041500     -1.14586500     -1.29852100
| 35> C      -0.16408500     -1.28578800     -2.68533200
| 36> C      -1.05287300     -2.13940900     -3.33833100
| 37> C      -1.97015000     -2.86909600     -2.58523600
| 38> C      -2.00006600     -2.75501600     -1.19525500
| 39> C      -1.10413600     -1.89704600     -0.54681500
| 40> O      -1.05942200     -1.73461000      0.79224100
| 41> C      -2.02084800     -2.37337500      1.59963000
| 42> N       2.84914100      0.37178000     -1.63446200
| 43> O       4.02244700      0.29708100     -1.99648700
| 44> H       0.58308100     -0.23185200      0.47150200
| 45> H       0.55857900     -0.70406200     -3.26527200
| 46> H      -1.02790300     -2.23221600     -4.42613800
| 47> H      -2.67560900     -3.54226100     -3.07897000
| 48> H      -2.72106300     -3.33820900     -0.62189000
| 49> H      -3.04242200     -2.06554700      1.32210300
| 50> H      -1.81753700     -2.05842400      2.63030000
| 51> H      -1.93915000     -3.47061200      1.53246300
| 52> O       2.14064500      1.39237300     -2.03644100
| 53> H       1.26415400      3.80344900      1.97990600
| 54> H      -4.50991800      1.16490700     -1.33009200
| 55> C       2.87190000     -1.63601300     -0.33237700
| 56> H       3.91989200     -1.75439900     -0.62321800
| 57> C       2.30847600     -2.56634900      0.48279200
| 58> H       1.26786300     -2.50052100      0.80807700
| 59> C       3.08589600     -3.70477200      0.96070600
| 60> O       4.25115000     -3.94337500      0.70567800
| 61> O       2.34438600     -4.50146100      1.74820700
| 62> C       2.99005200     -5.64874700      2.27240600
| 63> H       3.84833500     -5.36629400      2.90041400
| 64> H       2.24248100     -6.17525500      2.87708500
| 65> H       3.34709200     -6.30384000      1.46365900
| 66> *
| 67> 
| 68>                          ****END OF INPUT****
================================================================================

                       *****************************
                       * Geometry Optimization Run *
                       *****************************

Geometry optimization settings:
Update method            Update   .... Bofill
Choice of coordinates    CoordSys .... Z-matrix Internals
Initial Hessian          InHess   .... Almoef's Model

Convergence Tolerances:
Energy Change            TolE     ....  1.0000e-06 Eh
Max. Gradient            TolMAXG  ....  1.0000e-04 Eh/bohr
RMS Gradient             TolRMSG  ....  3.0000e-05 Eh/bohr
Max. Displacement        TolMAXD  ....  1.0000e-03 bohr
RMS Displacement         TolRMSD  ....  6.0000e-04 bohr
Strict Convergence                ....  False
------------------------------------------------------------------------------
                        ORCA OPTIMIZATION COORDINATE SETUP
------------------------------------------------------------------------------

The optimization will be done in new redundant internal coordinates
Making redundant internal coordinates   ...  (new redundants) done
Following TS mode number                ...     0
Evaluating the initial hessian          ...  (Almloef) done
Evaluating the coordinates              ...  done
Calculating the B-matrix                .... done
Calculating the G-matrix                .... done
Diagonalizing the G-matrix              .... done
Small eigenvalue found = 1.677e-03
Small eigenvalue found = 3.900e-03
Small eigenvalue found = 7.715e-03
Small eigenvalue found = 1.161e-02
Small eigenvalue found = 1.750e-02
Small eigenvalue found = 2.020e-02
Small eigenvalue found = 2.656e-02
The first mode is                       ....  194
The number of degrees of freedom        ....  150

    -----------------------------------------------------------------
                    Redundant Internal Coordinates


    -----------------------------------------------------------------
         Definition                    Initial Value    Approx d2E/dq
    -----------------------------------------------------------------
      1. B(C   1,C   0)                  1.3942         0.615232   
      2. B(C   2,C   1)                  1.3896         0.625638   
      3. B(N   3,C   2)                  1.3324         0.691429   
      4. B(C   4,N   3)                  1.3325         0.691096   
      5. B(C   5,C   0)                  1.3931         0.617644   
      6. B(C   5,C   4)                  1.3904         0.623855   
      7. B(C   6,N   3)                  2.0358         0.052187   
      8. B(C   7,N   3)                  2.5593         0.007628   
      9. B(C   7,C   6)                  1.5002         0.416793   
     10. B(O   8,C   7)                  1.2042         1.107226   
     11. B(O   9,C   7)                  1.3264         0.706995   
     12. B(C  10,O   9)                  1.4251         0.491958   
     13. B(H  11,C   0)                  1.0926         0.356740   
     14. B(H  12,C   2)                  1.0944         0.354291   
     15. B(H  13,O   9)                  2.5684         0.001412   
     16. B(H  13,C   4)                  1.0939         0.354930   
     17. B(H  14,C   5)                  1.0912         0.358517   
     18. B(H  15,C   2)                  2.5493         0.001691   
     19. B(H  15,H  12)                  2.1320         0.001500   
     20. B(H  15,N   3)                  2.2410         0.004702   
     21. B(H  15,C   6)                  1.0864         0.364900   
     22. B(H  16,C  10)                  1.0990         0.348413   
     23. B(H  17,C  10)                  1.0950         0.353495   
     24. B(C  19,N   3)                  2.6214         0.006071   
     25. B(C  19,C  18)                  1.4986         0.419296   
     26. B(C  19,C   6)                  1.5205         0.386813   
     27. B(C  20,C  19)                  1.5164         0.392645   
     28. B(C  21,C  20)                  1.3939         0.615801   
     29. B(C  22,C  21)                  1.3946         0.614237   
     30. B(C  23,C  22)                  1.3932         0.617506   
     31. B(C  24,C  23)                  1.3950         0.613480   
     32. B(C  25,C  24)                  1.3997         0.602831   
     33. B(C  25,C  20)                  1.4080         0.584718   
     34. B(O  26,C  25)                  1.3496         0.649098   
     35. B(C  27,O  26)                  1.4086         0.522580   
     36. B(N  28,C  18)                  1.3406         0.670887   
     37. B(O  29,N  28)                  1.2302         0.901633   
     38. B(H  30,H  13)                  2.3746         0.000615   
     39. B(H  30,C  19)                  1.0982         0.349463   
     40. B(H  30,N   3)                  2.5711         0.001398   
     41. B(H  31,C  21)                  1.0941         0.354762   
     42. B(H  32,C  22)                  1.0920         0.357406   
     43. B(H  33,C  23)                  1.0930         0.356184   
     44. B(H  34,C  24)                  1.0903         0.359737   
     45. B(H  35,C  27)                  1.1024         0.344003   
     46. B(H  36,C  27)                  1.0967         0.351310   
     47. B(H  37,C  27)                  1.1023         0.344162   
     48. B(O  38,N  28)                  1.3058         0.682838   
     49. B(O  38,C   6)                  1.9227         0.079074   
     50. B(H  39,C  10)                  1.0989         0.348500   
     51. B(H  40,C   1)                  1.0913         0.358422   
     52. B(C  41,C  18)                  1.4141         0.571807   
     53. B(H  42,C  41)                  1.0940         0.354814   
     54. B(C  43,C  41)                  1.3592         0.699600   
     55. B(H  44,C  43)                  1.0923         0.357130   
     56. B(C  45,C  43)                  1.4590         0.484835   
     57. B(O  46,C  45)                  1.2165         1.058618   
     58. B(O  47,C  45)                  1.3434         0.664098   
     59. B(C  48,O  47)                  1.4170         0.506726   
     60. B(H  49,C  48)                  1.1004         0.346634   
     61. B(H  50,C  48)                  1.0962         0.351958   
     62. B(H  51,C  48)                  1.1003         0.346708   
     63. A(C   5,C   0,H  11)          120.4300         0.352123   
     64. A(C   1,C   0,H  11)          120.4094         0.351890   
     65. A(C   1,C   0,C   5)          119.1606         0.433167   
     66. A(C   2,C   1,H  40)          119.8964         0.353171   
     67. A(C   0,C   1,H  40)          121.5394         0.352170   
     68. A(C   0,C   1,C   2)          118.5636         0.434170   
     69. A(C   1,C   2,N   3)          121.5810         0.440497   
     70. A(N   3,C   2,H  12)          116.9813         0.356292   
     71. A(C   1,C   2,H  12)          121.4326         0.352479   
     72. A(C   2,N   3,C   6)          115.3377         0.287687   
     73. A(C   4,N   3,C   6)          123.8490         0.287665   
     74. A(C   4,N   3,C   7)          100.5124         0.217557   
     75. A(C   2,N   3,C   4)          120.5654         0.445546   
     76. A(C   2,N   3,C   7)          132.9890         0.217571   
     77. A(C   6,N   3,C   7)           35.8736         0.160639   
     78. A(C   7,N   3,C  19)           61.7234         0.133024   
     79. A(C   2,N   3,C  19)          120.2847         0.211098   
     80. A(C   4,N   3,C  19)          105.4621         0.211085   
     81. A(C   6,N   3,C  19)           35.3620         0.157033   
     82. A(N   3,C   4,C   5)          121.5286         0.440232   
     83. A(N   3,C   4,H  13)          117.0250         0.356372   
     84. A(C   5,C   4,H  13)          121.4461         0.352416   
     85. A(C   0,C   5,C   4)          118.5988         0.434253   
     86. A(C   0,C   5,H  14)          121.5662         0.352419   
     87. A(C   4,C   5,H  14)          119.8336         0.353016   
     88. A(C  19,C   6,O  38)           93.7984         0.281980   
     89. A(C   7,C   6,O  38)           87.2654         0.285268   
     90. A(N   3,C   6,C   7)           91.4515         0.267650   
     91. A(H  15,C   6,C  19)          121.2267         0.326893   
     92. A(N   3,C   6,C  19)           93.8455         0.264657   
     93. A(C   7,C   6,C  19)          123.2669         0.372459   
     94. A(H  15,C   6,O  38)           86.9840         0.253718   
     95. A(N   3,C   6,O  38)          171.5983         0.210625   
     96. A(C   7,C   6,H  15)          115.4785         0.330946   
     97. A(N   3,C   6,H  15)           86.0750         0.238932   
     98. A(C   6,C   7,O   8)          123.9827         0.445680   
     99. A(N   3,C   7,O   8)          105.8809         0.232030   
    100. A(N   3,C   7,C   6)           52.6748         0.204605   
    101. A(C   6,C   7,O   9)          111.1590         0.411243   
    102. A(O   8,C   7,O   9)          124.8576         0.487689   
    103. A(N   3,C   7,O   9)          106.7609         0.218221   
    104. A(C   7,O   9,C  10)          116.5890         0.420813   
    105. A(H  16,C  10,H  17)          110.3757         0.288500   
    106. A(O   9,C  10,H  17)          106.0954         0.336347   
    107. A(O   9,C  10,H  16)          110.2290         0.335538   
    108. A(H  17,C  10,H  39)          110.4149         0.288511   
    109. A(H  16,C  10,H  39)          109.3259         0.287858   
    110. A(O   9,C  10,H  39)          110.3661         0.335552   
    111. A(C  19,C  18,N  28)          114.5160         0.407874   
    112. A(N  28,C  18,C  41)          120.6010         0.431069   
    113. A(C  19,C  18,C  41)          124.8723         0.399099   
    114. A(C  18,C  19,C  20)          112.7308         0.373807   
    115. A(N   3,C  19,H  30)           75.2371         0.180240   
    116. A(C   6,C  19,C  20)          111.0317         0.368656   
    117. A(N   3,C  19,C  18)          157.7672         0.198934   
    118. A(C   6,C  19,C  18)          109.1332         0.372844   
    119. A(C  20,C  19,H  30)          108.2995         0.325376   
    120. A(C  18,C  19,H  30)          107.4973         0.328916   
    121. A(C   6,C  19,H  30)          107.9741         0.324577   
    122. A(N   3,C  19,C  20)           86.2722         0.197312   
    123. A(N   3,C  19,C   6)           50.7925         0.196946   
    124. A(C  19,C  20,C  21)          120.5410         0.399693   
    125. A(C  21,C  20,C  25)          119.0299         0.428997   
    126. A(C  19,C  20,C  25)          120.4142         0.396072   
    127. A(C  20,C  21,C  22)          121.3186         0.432808   
    128. A(C  22,C  21,H  31)          119.8810         0.351463   
    129. A(C  20,C  21,H  31)          118.7984         0.351614   
    130. A(C  21,C  22,C  23)          119.1479         0.433023   
    131. A(C  23,C  22,H  32)          120.5972         0.352220   
    132. A(C  21,C  22,H  32)          120.2550         0.351904   
    133. A(C  22,C  23,C  24)          120.6575         0.432927   
    134. A(C  24,C  23,H  33)          119.1201         0.351628   
    135. A(C  22,C  23,H  33)          120.2222         0.352017   
    136. A(C  25,C  24,H  34)          120.4990         0.351177   
    137. A(C  23,C  24,H  34)          119.6332         0.352218   
    138. A(C  23,C  24,C  25)          119.8676         0.431060   
    139. A(C  24,C  25,O  26)          123.6840         0.432607   
    140. A(C  20,C  25,O  26)          116.3430         0.430242   
    141. A(C  20,C  25,C  24)          119.9729         0.427363   
    142. A(C  25,O  26,C  27)          119.4392         0.418937   
    143. A(H  36,C  27,H  37)          109.2306         0.287668   
    144. A(H  35,C  27,H  37)          109.3460         0.286725   
    145. A(O  26,C  27,H  37)          111.4607         0.338237   
    146. A(H  35,C  27,H  36)          109.1577         0.287647   
    147. A(O  26,C  27,H  36)          106.3737         0.339400   
    148. A(O  26,C  27,H  35)          111.1954         0.338211   
    149. A(O  29,N  28,O  38)          118.3176         0.460283   
    150. A(C  18,N  28,O  38)          115.3679         0.439194   
    151. A(C  18,N  28,O  29)          126.3142         0.461932   
    152. A(C   6,O  38,N  28)          104.5774         0.304838   
    153. A(H  42,C  41,C  43)          118.8454         0.359317   
    154. A(C  18,C  41,C  43)          124.8939         0.437194   
    155. A(C  18,C  41,H  42)          116.2606         0.347254   
    156. A(H  44,C  43,C  45)          117.2010         0.338154   
    157. A(C  41,C  43,C  45)          120.6394         0.424431   
    158. A(C  41,C  43,H  44)          122.1595         0.359716   
    159. A(O  46,C  45,O  47)          122.3645         0.478106   
    160. A(C  43,C  45,O  47)          111.1390         0.417772   
    161. A(C  43,C  45,O  46)          126.4964         0.454368   
    162. A(C  45,O  47,C  48)          116.4557         0.418343   
    163. A(H  50,C  48,H  51)          109.9237         0.288082   
    164. A(H  49,C  48,H  51)          108.6154         0.287397   
    165. A(O  47,C  48,H  51)          110.9767         0.336919   
    166. A(H  49,C  48,H  50)          109.9006         0.288073   
    167. A(O  47,C  48,H  50)          106.3910         0.337763   
    168. A(O  47,C  48,H  49)          111.0207         0.336907   
    169. D(H  40,C   1,C   0,C   5)    179.8589         0.026168   
    170. D(H  40,C   1,C   0,H  11)     -0.0882         0.026168   
    171. D(C   2,C   1,C   0,C   5)      0.1520         0.026168   
    172. D(C   2,C   1,C   0,H  11)   -179.7951         0.026168   
    173. D(N   3,C   2,C   1,C   0)      0.1766         0.029468   
    174. D(H  12,C   2,C   1,H  40)     -0.3856         0.029468   
    175. D(H  12,C   2,C   1,C   0)    179.3262         0.029468   
    176. D(N   3,C   2,C   1,H  40)   -179.5352         0.029468   
    177. D(C   6,N   3,C   2,H  12)     -4.8451         0.055133   
    178. D(C   6,N   3,C   2,C   1)    174.3406         0.055133   
    179. D(C   4,N   3,C   2,C   1)     -0.1547         0.055133   
    180. D(C   7,N   3,C   2,H  12)     33.4996         0.055133   
    181. D(C  19,N   3,C   2,C   1)    134.5500         0.055133   
    182. D(C   7,N   3,C   2,C   1)   -147.3146         0.055133   
    183. D(C  19,N   3,C   2,H  12)    -44.6357         0.055133   
    184. D(C   4,N   3,C   2,H  12)   -179.3404         0.055133   
    185. D(C   5,C   4,N   3,C  19)   -140.6507         0.052241   
    186. D(H  13,C   4,N   3,C   2)    179.5952         0.052241   
    187. D(H  13,C   4,N   3,C   6)      5.5874         0.052241   
    188. D(C   5,C   4,N   3,C   7)    156.0019         0.052241   
    189. D(H  13,C   4,N   3,C  19)     39.1484         0.052241   
    190. D(C   5,C   4,N   3,C   6)   -174.2117         0.052241   
    191. D(H  13,C   4,N   3,C   7)    -24.1991         0.052241   
    192. D(C   5,C   4,N   3,C   2)     -0.2039         0.052241   
    193. D(H  14,C   5,C   0,H  11)     -0.1130         0.026386   
    194. D(C   4,C   5,C   0,H  11)    179.4599         0.026386   
    195. D(C   0,C   5,C   4,N   3)      0.5248         0.026952   
    196. D(C   0,C   5,C   4,H  13)   -179.2654         0.026952   
    197. D(H  14,C   5,C   0,C   1)    179.9399         0.026386   
    198. D(C   4,C   5,C   0,C   1)     -0.4872         0.026386   
    199. D(H  14,C   5,C   4,H  13)      0.3151         0.026952   
    200. D(H  14,C   5,C   4,N   3)   -179.8947         0.026952   
    201. D(O  38,C   6,N   3,C   2)     48.1689         0.001734   
    202. D(O  38,C   6,N   3,C  19)    155.4402         0.001734   
    203. D(O  38,C   6,N   3,C   7)    -81.0790         0.001734   
    204. D(O  38,C   6,N   3,C   4)   -137.5389         0.001734   
    205. D(C  19,C   6,N   3,C   7)    123.4808         0.001734   
    206. D(C  19,C   6,N   3,C   4)     67.0209         0.001734   
    207. D(C  19,C   6,N   3,C   2)   -107.2713         0.001734   
    208. D(H  15,C   6,N   3,C  19)    121.0781         0.001734   
    209. D(H  15,C   6,N   3,C   7)   -115.4411         0.001734   
    210. D(H  15,C   6,N   3,C   4)   -171.9010         0.001734   
    211. D(H  15,C   6,N   3,C   2)     13.8068         0.001734   
    212. D(C   7,C   6,N   3,C   4)    -56.4599         0.001734   
    213. D(C   7,C   6,N   3,C  19)   -123.4808         0.001734   
    214. D(C   7,C   6,N   3,C   2)    129.2479         0.001734   
    215. D(O   9,C   7,C   6,H  15)   -178.2777         0.014600   
    216. D(O   8,C   7,C   6,N   3)    -84.3193         0.014600   
    217. D(O   8,C   7,C   6,O  38)     87.3718         0.014600   
    218. D(O   8,C   7,C   6,H  15)      2.0242         0.014600   
    219. D(O   9,C   7,N   3,C  19)    -70.9093         0.001505   
    220. D(O   9,C   7,N   3,C   6)   -104.1472         0.001505   
    221. D(O   8,C   7,N   3,C   6)    120.9209         0.001505   
    222. D(C   6,C   7,N   3,C  19)     33.2379         0.001505   
    223. D(C   6,C   7,N   3,C   4)    135.2475         0.001505   
    224. D(C   6,C   7,N   3,C   2)    -73.1063         0.001505   
    225. D(O   8,C   7,N   3,C   4)   -103.8316         0.001505   
    226. D(O   8,C   7,C   6,C  19)   -179.8777         0.014600   
    227. D(O   9,C   7,N   3,C   2)   -177.2535         0.001505   
    228. D(O   8,C   7,N   3,C  19)    154.1588         0.001505   
    229. D(O   8,C   7,N   3,C   2)     47.8146         0.001505   
    230. D(O   9,C   7,C   6,C  19)     -0.1797         0.014600   
    231. D(O   9,C   7,N   3,C   4)     31.1003         0.001505   
    232. D(N   3,C   7,C   6,O  38)    171.6912         0.014600   
    233. D(N   3,C   7,C   6,C  19)    -95.5584         0.014600   
    234. D(N   3,C   7,C   6,H  15)     86.3435         0.014600   
    235. D(O   9,C   7,C   6,N   3)     95.3787         0.014600   
    236. D(O   9,C   7,C   6,O  38)    -92.9301         0.014600   
    237. D(C  10,O   9,C   7,N   3)   -125.8448         0.045115   
    238. D(C  10,O   9,C   7,O   8)     -1.9246         0.045115   
    239. D(C  10,O   9,C   7,C   6)    178.3805         0.045115   
    240. D(H  39,C  10,O   9,C   7)     60.2069         0.020733   
    241. D(H  17,C  10,O   9,C   7)    179.8352         0.020733   
    242. D(H  16,C  10,O   9,C   7)    -60.6577         0.020733   
    243. D(N   3,C  19,C  18,C  41)    144.3613         0.013911   
    244. D(H  30,C  19,C  18,C  41)     50.6295         0.013911   
    245. D(H  30,C  19,C  18,N  28)   -130.5581         0.013911   
    246. D(C  20,C  19,C  18,C  41)    -68.6460         0.013911   
    247. D(C   6,C  19,C  18,C  41)    167.4916         0.013911   
    248. D(C   6,C  19,C  18,N  28)    -13.6961         0.013911   
    249. D(N   3,C  19,C   6,O  38)   -176.5106         0.013315   
    250. D(N   3,C  19,C   6,C   7)     94.2703         0.013315   
    251. D(H  30,C  19,C   6,N   3)    -52.3821         0.013315   
    252. D(H  30,C  19,C   6,O  38)    131.1073         0.013315   
    253. D(H  30,C  19,C   6,H  15)   -140.1197         0.013315   
    254. D(H  30,C  19,C   6,C   7)     41.8883         0.013315   
    255. D(C  20,C  19,C   6,N   3)     66.1984         0.013315   
    256. D(C  20,C  19,C   6,O  38)   -110.3122         0.013315   
    257. D(C  20,C  19,C   6,C   7)    160.4687         0.013315   
    258. D(C  18,C  19,C   6,N   3)   -168.9411         0.013315   
    259. D(C  18,C  19,C   6,O  38)     14.5483         0.013315   
    260. D(C  18,C  19,C   6,H  15)    103.3214         0.013315   
    261. D(C  18,C  19,C   6,C   7)    -74.6707         0.013315   
    262. D(C  20,C  19,C   6,H  15)    -21.5392         0.013315   
    263. D(H  30,C  19,N   3,C   7)     95.1059         0.001504   
    264. D(H  30,C  19,N   3,C   6)    128.8160         0.001504   
    265. D(H  30,C  19,N   3,C   4)      1.3127         0.001504   
    266. D(H  30,C  19,N   3,C   2)   -139.2699         0.001504   
    267. D(C  20,C  19,N   3,C   7)   -154.8611         0.001504   
    268. D(C  20,C  19,N   3,C   6)   -121.1510         0.001504   
    269. D(C  20,C  19,N   3,C   4)    111.3457         0.001504   
    270. D(N   3,C  19,C   6,H  15)    -87.7376         0.013315   
    271. D(C  20,C  19,N   3,C   2)    -29.2369         0.001504   
    272. D(C  18,C  19,N   3,C   7)     -5.0930         0.001504   
    273. D(C  18,C  19,N   3,C   6)     28.6171         0.001504   
    274. D(C  20,C  19,C  18,N  28)    110.1664         0.013911   
    275. D(C  18,C  19,N   3,C   4)    -98.8861         0.001504   
    276. D(C  18,C  19,N   3,C   2)    120.5312         0.001504   
    277. D(C   6,C  19,N   3,C   7)    -33.7101         0.001504   
    278. D(N   3,C  19,C  18,N  28)    -36.8264         0.013911   
    279. D(C   6,C  19,N   3,C   4)   -127.5033         0.001504   
    280. D(C   6,C  19,N   3,C   2)     91.9141         0.001504   
    281. D(C  25,C  20,C  19,N   3)    -71.3291         0.012250   
    282. D(C  25,C  20,C  19,H  30)      1.7825         0.012250   
    283. D(C  25,C  20,C  19,C  18)    120.5914         0.012250   
    284. D(C  25,C  20,C  19,C   6)   -116.6015         0.012250   
    285. D(C  21,C  20,C  19,N   3)    107.2542         0.012250   
    286. D(C  21,C  20,C  19,H  30)   -179.6342         0.012250   
    287. D(C  21,C  20,C  19,C  18)    -60.8253         0.012250   
    288. D(C  21,C  20,C  19,C   6)     61.9818         0.012250   
    289. D(H  31,C  21,C  20,C  25)   -179.6968         0.026219   
    290. D(H  31,C  21,C  20,C  19)      1.7005         0.026219   
    291. D(C  22,C  21,C  20,C  25)      0.8057         0.026219   
    292. D(C  22,C  21,C  20,C  19)   -177.7970         0.026219   
    293. D(H  32,C  22,C  21,C  20)    179.7153         0.026078   
    294. D(C  23,C  22,C  21,H  31)   -179.7547         0.026078   
    295. D(C  23,C  22,C  21,C  20)     -0.2626         0.026078   
    296. D(H  32,C  22,C  21,H  31)      0.2232         0.026078   
    297. D(H  33,C  23,C  22,H  32)     -0.0583         0.026373   
    298. D(H  33,C  23,C  22,C  21)    179.9195         0.026373   
    299. D(C  24,C  23,C  22,H  32)    179.7765         0.026373   
    300. D(C  24,C  23,C  22,C  21)     -0.2457         0.026373   
    301. D(H  34,C  24,C  23,H  33)      0.1885         0.026010   
    302. D(H  34,C  24,C  23,C  22)   -179.6481         0.026010   
    303. D(C  25,C  24,C  23,H  33)   -179.9686         0.026010   
    304. D(C  25,C  24,C  23,C  22)      0.1948         0.026010   
    305. D(O  26,C  25,C  24,H  34)      0.3180         0.025065   
    306. D(O  26,C  25,C  24,C  23)   -179.5236         0.025065   
    307. D(C  20,C  25,C  24,H  34)   -179.8006         0.025065   
    308. D(C  20,C  25,C  24,C  23)      0.3578         0.025065   
    309. D(O  26,C  25,C  20,C  21)    179.0423         0.023507   
    310. D(O  26,C  25,C  20,C  19)     -2.3531         0.023507   
    311. D(C  24,C  25,C  20,C  21)     -0.8476         0.023507   
    312. D(C  24,C  25,C  20,C  19)    177.7570         0.023507   
    313. D(C  27,O  26,C  25,C  24)     -5.0264         0.031131   
    314. D(C  27,O  26,C  25,C  20)    175.0882         0.031131   
    315. D(H  37,C  27,O  26,C  25)     63.8170         0.021660   
    316. D(H  36,C  27,O  26,C  25)   -177.2115         0.021660   
    317. D(H  35,C  27,O  26,C  25)    -58.4741         0.021660   
    318. D(O  38,N  28,C  18,C  41)   -178.9694         0.036941   
    319. D(O  38,N  28,C  18,C  19)      2.1626         0.036941   
    320. D(O  29,N  28,C  18,C  41)      0.8166         0.036941   
    321. D(O  29,N  28,C  18,C  19)   -178.0513         0.036941   
    322. D(C   6,O  38,N  28,O  29)   -172.0994         0.040962   
    323. D(C   6,O  38,N  28,C  18)      7.7047         0.040962   
    324. D(N  28,O  38,C   6,N   3)   -169.4393         0.001898   
    325. D(N  28,O  38,C   6,C  19)    -13.9977         0.001898   
    326. D(N  28,O  38,C   6,H  15)   -135.1149         0.001898   
    327. D(N  28,O  38,C   6,C   7)    109.1777         0.001898   
    328. D(C  43,C  41,C  18,N  28)    179.1932         0.022435   
    329. D(C  43,C  41,C  18,C  19)     -2.0622         0.022435   
    330. D(H  42,C  41,C  18,N  28)     -0.7927         0.022435   
    331. D(H  42,C  41,C  18,C  19)    177.9519         0.022435   
    332. D(C  45,C  43,C  41,H  42)     -0.0974         0.034468   
    333. D(C  45,C  43,C  41,C  18)    179.9170         0.034468   
    334. D(H  44,C  43,C  41,H  42)    179.8905         0.034468   
    335. D(H  44,C  43,C  41,C  18)     -0.0951         0.034468   
    336. D(O  47,C  45,C  43,H  44)      0.0962         0.016005   
    337. D(O  47,C  45,C  43,C  41)   -179.9153         0.016005   
    338. D(O  46,C  45,C  43,H  44)   -179.9961         0.016005   
    339. D(O  46,C  45,C  43,C  41)     -0.0076         0.016005   
    340. D(C  48,O  47,C  45,O  46)     -0.1292         0.032712   
    341. D(C  48,O  47,C  45,C  43)    179.7831         0.032712   
    342. D(H  51,C  48,O  47,C  45)    -60.1259         0.020318   
    343. D(H  50,C  48,O  47,C  45)   -179.6764         0.020318   
    344. D(H  49,C  48,O  47,C  45)     60.7765         0.020318   
    -----------------------------------------------------------------

Number of atoms                         .... 52
Number of degrees of freedom            .... 344

         *************************************************************
         *                GEOMETRY OPTIMIZATION CYCLE   1            *
         *************************************************************
---------------------------------
CARTESIAN COORDINATES (ANGSTROEM)
---------------------------------
  C     -3.929892    1.164753    0.765124
  C     -3.692367    1.201675   -0.608197
  C     -2.378354    1.281124   -1.053325
  N     -1.354220    1.318629   -0.201812
  C     -1.564947    1.283647    1.113502
  C     -2.848773    1.211653    1.642509
  C      0.492296    1.253201   -1.056523
  C      0.937395    2.455527   -0.277484
  O      0.730295    3.592157   -0.617171
  O      1.577715    2.099462    0.828150
  C      2.084066    3.155436    1.640150
  H     -4.950975    1.098991    1.148183
  H     -2.137619    1.301883   -2.120745
  H     -0.682316    1.310687    1.759202
  H     -2.989512    1.186197    2.724295
  H     -0.015732    1.465040   -1.993159
  H      2.810822    3.754906    1.074269
  H      2.570210    2.674403    2.495359
  C      2.203667   -0.501591   -0.848419
  C      0.760421   -0.175578   -0.610784
  C     -0.180415   -1.145865   -1.298521
  C     -0.164085   -1.285788   -2.685332
  C     -1.052873   -2.139409   -3.338331
  C     -1.970150   -2.869096   -2.585236
  C     -2.000066   -2.755016   -1.195255
  C     -1.104136   -1.897046   -0.546815
  O     -1.059422   -1.734610    0.792241
  C     -2.020848   -2.373375    1.599630
  N      2.849141    0.371780   -1.634462
  O      4.022447    0.297081   -1.996487
  H      0.583081   -0.231852    0.471502
  H      0.558579   -0.704062   -3.265272
  H     -1.027903   -2.232216   -4.426138
  H     -2.675609   -3.542261   -3.078970
  H     -2.721063   -3.338209   -0.621890
  H     -3.042422   -2.065547    1.322103
  H     -1.817537   -2.058424    2.630300
  H     -1.939150   -3.470612    1.532463
  O      2.140645    1.392373   -2.036441
  H      1.264154    3.803449    1.979906
  H     -4.509918    1.164907   -1.330092
  C      2.871900   -1.636013   -0.332377
  H      3.919892   -1.754399   -0.623218
  C      2.308476   -2.566349    0.482792
  H      1.267863   -2.500521    0.808077
  C      3.085896   -3.704772    0.960706
  O      4.251150   -3.943375    0.705678
  O      2.344386   -4.501461    1.748207
  C      2.990052   -5.648747    2.272406
  H      3.848335   -5.366294    2.900414
  H      2.242481   -6.175255    2.877085
  H      3.347092   -6.303840    1.463659

----------------------------
CARTESIAN COORDINATES (A.U.)
----------------------------
  NO LB      ZA    FRAG     MASS         X           Y           Z
   0 C     6.0000    0    12.011   -7.426420    2.201064    1.445875
   1 C     6.0000    0    12.011   -6.977562    2.270837   -1.149326
   2 C     6.0000    0    12.011   -4.494438    2.420974   -1.990496
   3 N     7.0000    0    14.007   -2.559105    2.491848   -0.381369
   4 C     6.0000    0    12.011   -2.957321    2.425741    2.104214
   5 C     6.0000    0    12.011   -5.383401    2.289692    3.103892
   6 C     6.0000    0    12.011    0.930305    2.368207   -1.996539
   7 C     6.0000    0    12.011    1.771420    4.640274   -0.524369
   8 O     8.0000    0    15.999    1.380058    6.788193   -1.166284
   9 O     8.0000    0    15.999    2.981449    3.967408    1.564977
  10 C     6.0000    0    12.011    3.938314    5.962910    3.099434
  11 H     1.0000    0     1.008   -9.355987    2.076792    2.169751
  12 H     1.0000    0     1.008   -4.039514    2.460202   -4.007627
  13 H     1.0000    0     1.008   -1.289390    2.476839    3.324410
  14 H     1.0000    0     1.008   -5.649359    2.241587    5.148171
  15 H     1.0000    0     1.008   -0.029729    2.768524   -3.766525
  16 H     1.0000    0     1.008    5.311684    7.095744    2.030074
  17 H     1.0000    0     1.008    4.856993    5.053889    4.715545
  18 C     6.0000    0    12.011    4.164327   -0.947870   -1.603280
  19 C     6.0000    0    12.011    1.436987   -0.331794   -1.154214
  20 C     6.0000    0    12.011   -0.340935   -2.165371   -2.453849
  21 C     6.0000    0    12.011   -0.310076   -2.429787   -5.074542
  22 C     6.0000    0    12.011   -1.989642   -4.042897   -6.308531
  23 C     6.0000    0    12.011   -3.723044   -5.421806   -4.885388
  24 C     6.0000    0    12.011   -3.779577   -5.206226   -2.258705
  25 C     6.0000    0    12.011   -2.086515   -3.584897   -1.033331
  26 O     8.0000    0    15.999   -2.002017   -3.277938    1.497119
  27 C     6.0000    0    12.011   -3.818849   -4.485029    3.022863
  28 N     7.0000    0    14.007    5.384096    0.702562   -3.088686
  29 O     8.0000    0    15.999    7.601323    0.561402   -3.772814
  30 H     1.0000    0     1.008    1.101863   -0.438137    0.891010
  31 H     1.0000    0     1.008    1.055561   -1.330484   -6.170470
  32 H     1.0000    0     1.008   -1.942455   -4.218277   -8.364189
  33 H     1.0000    0     1.008   -5.056168   -6.693903   -5.818410
  34 H     1.0000    0     1.008   -5.142064   -6.308301   -1.175202
  35 H     1.0000    0     1.008   -5.749344   -3.903318    2.498413
  36 H     1.0000    0     1.008   -3.434647   -3.889858    4.970547
  37 H     1.0000    0     1.008   -3.664462   -6.558506    2.895935
  38 O     8.0000    0    15.999    4.045233    2.631204   -3.848316
  39 H     1.0000    0     1.008    2.388905    7.187477    3.741480
  40 H     1.0000    0     1.008   -8.522510    2.201355   -2.513510
  41 C     6.0000    0    12.011    5.427104   -3.091617   -0.628102
  42 H     1.0000    0     1.008    7.407522   -3.315334   -1.177711
  43 C     6.0000    0    12.011    4.362387   -4.849697    0.912345
  44 H     1.0000    0     1.008    2.395914   -4.725300    1.527044
  45 C     6.0000    0    12.011    5.831498   -7.001004    1.815471
  46 O     8.0000    0    15.999    8.033509   -7.451899    1.333538
  47 O     8.0000    0    15.999    4.430247   -8.506528    3.303632
  48 C     6.0000    0    12.011    5.650379  -10.674585    4.294225
  49 H     1.0000    0     1.008    7.272299  -10.140826    5.480988
  50 H     1.0000    0     1.008    4.237675  -11.669541    5.436903
  51 H     1.0000    0     1.008    6.325087  -11.912531    2.765915

--------------------------------
INTERNAL COORDINATES (ANGSTROEM)
--------------------------------
 C      0   0   0     0.000000000000     0.00000000     0.00000000
 C      1   0   0     1.394199386297     0.00000000     0.00000000
 C      2   1   0     1.389633492743   118.56355636     0.00000000
 N      3   2   1     1.332415649919   121.58098496     0.17658669
 C      4   3   2     1.332546632373   120.56537209   359.84530395
 C      5   4   3     1.390410277710   121.52855884   359.79611845
 C      4   3   2     2.035788067300   115.33770141   174.34060431
 C      7   4   3     1.500200884414    91.45151946   129.24788514
 O      8   7   4     1.204244752892   123.98268852   275.68068273
 O      8   7   4     1.326355355318   111.15896611    95.37872789
 C     10   8   7     1.425067164690   116.58902632   178.38050425
 H      1   2   3     1.092551752099   120.40939593   180.20494427
 H      3   2   1     1.094426668492   121.43258850   179.32616621
 H      5   4   3     1.093936530956   117.02499144   179.59517268
 H      6   5   4     1.091199534390   119.83364806   180.10527016
 H      7   4   3     1.086395511405    86.07503327    13.80677807
 H     11  10   8     1.098981287646   110.22899889   299.34233107
 H     11  10   8     1.095039346099   106.09541696   179.83517136
 C      7   4   3     2.459957913811   128.20083753   244.65291412
 C     19   7   4     1.498570614255    35.72981772    14.09568415
 C     20  19   7     1.516446973169   112.73084897   123.86246929
 C     21  20  19     1.393947583143   120.54103298   299.17466538
 C     22  21  20     1.394639958766   121.31861986   182.20301172
 C     23  22  21     1.393194994149   119.14787889   359.73738942
 C     24  23  22     1.394975409754   120.65749623   359.75425344
 C     25  24  23     1.399741947432   119.86764277     0.19482186
 O     26  25  24     1.349613191632   123.68399873   180.47640869
 C     27  26  25     1.408629715724   119.43915847   354.97360521
 N     19   7   4     1.340625669665    79.66735005   181.44672534
 O     29  19   7     1.230158124333   126.31416556   173.86925282
 H     20  19   7     1.098161747864   107.49725593   243.13795664
 H     22  21  20     1.094065262940   118.79843647     1.70045601
 H     23  22  21     1.092044279962   120.25495424   179.71526763
 H     24  23  22     1.092976111661   120.22218295   179.91948330
 H     25  24  23     1.090274356519   119.63319515   180.35188330
 H     28  27  26     1.102448525233   111.19540608   301.52585104
 H     28  27  26     1.096727014358   106.37368003   182.78846324
 H     28  27  26     1.102322549557   111.46074682    63.81701319
 O     29  19   7     1.305819195029   115.36787431   354.08319370
 H     11  10   8     1.098913406711   110.36607481    60.20692908
 H      2   1   3     1.091271695981   121.53938774   179.70684570
 C     19   7   4     1.414124450725   158.72712243   344.77067007
 H     42  19   7     1.094025120526   116.26061153   198.35377982
 C     42  19   7     1.359217486362   124.89394649    18.33969752
 H     44  42  19     1.092254124542   122.15953186   359.90494153
 C     44  42  19     1.459037550828   120.63942535   179.91703470
 O     46  44  42     1.216465189354   126.49635747     0.00000000
 O     46  44  42     1.343394308393   111.13903893   180.08467002
 C     48  46  44     1.417015998835   116.45569531   179.78305307
 H     49  48  46     1.100374233323   111.02072349    60.77645033
 H     49  48  46     1.096225235591   106.39099641   180.32359510
 H     49  48  46     1.100316368259   110.97670581   299.87413751

---------------------------
INTERNAL COORDINATES (A.U.)
---------------------------
 C      0   0   0     0.000000000000     0.00000000     0.00000000
 C      1   0   0     2.634655016182     0.00000000     0.00000000
 C      2   1   0     2.626026727809   118.56355636     0.00000000
 N      3   2   1     2.517900674898   121.58098496     0.17658669
 C      4   3   2     2.518148195864   120.56537209   359.84530395
 C      5   4   3     2.627494638661   121.52855884   359.79611845
 C      4   3   2     3.847081913902   115.33770141   174.34060431
 C      7   4   3     2.834968817410    91.45151946   129.24788514
 O      8   7   4     2.275692781178   123.98268852   275.68068273
 O      8   7   4     2.506448377811   111.15896611    95.37872789
 C     10   8   7     2.692986663707   116.58902632   178.38050425
 H      1   2   3     2.064623598602   120.40939593   180.20494427
 H      3   2   1     2.068166677109   121.43258850   179.32616621
 H      5   4   3     2.067240451400   117.02499144   179.59517268
 H      6   5   4     2.062068277460   119.83364806   180.10527016
 H      7   4   3     2.052989989677    86.07503327    13.80677807
 H     11  10   8     2.076773659956   110.22899889   299.34233107
 H     11  10   8     2.069324469996   106.09541696   179.83517136
 C      7   4   3     4.648646758075   128.20083753   244.65291412
 C     19   7   4     2.831888053285    35.72981772    14.09568415
 C     20  19   7     2.865669475904   112.73084897   123.86246929
 C     21  20  19     2.634179177182   120.54103298   299.17466538
 C     22  21  20     2.635487577490   121.31861986   182.20301172
 C     23  22  21     2.632756990092   119.14787889   359.73738942
 C     24  23  22     2.636121487989   120.65749623   359.75425344
 C     25  24  23     2.645128938808   119.86764277     0.19482186
 O     26  25  24     2.550399318912   123.68399873   180.47640869
 C     27  26  25     2.661924386823   119.43915847   354.97360521
 N     19   7   4     2.533415363773    79.66735005   181.44672534
 O     29  19   7     2.324661956407   126.31416556   173.86925282
 H     20  19   7     2.075224954211   107.49725593   243.13795664
 H     22  21  20     2.067483719593   118.79843647     1.70045601
 H     23  22  21     2.063664615244   120.25495424   179.71526763
 H     24  23  22     2.065425521958   120.22218295   179.91948330
 H     25  24  23     2.060319944658   119.63319515   180.35188330
 H     28  27  26     2.083325789436   111.19540608   301.52585104
 H     28  27  26     2.072513700809   106.37368003   182.78846324
 H     28  27  26     2.083087729909   111.46074682    63.81701319
 O     29  19   7     2.467640659022   115.36787431   354.08319370
 H     11  10   8     2.076645383578   110.36607481    60.20692908
 H      2   1   3     2.062204643105   121.53938774   179.70684570
 C     19   7   4     2.672307931151   158.72712243   344.77067007
 H     42  19   7     2.067407861424   116.26061153   198.35377982
 C     42  19   7     2.568548805662   124.89394649    18.33969752
 H     44  42  19     2.064061164029   122.15953186   359.90494153
 C     44  42  19     2.757181390171   120.63942535   179.91703470
 O     46  44  42     2.298786059327   126.49635747     0.00000000
 O     46  44  42     2.538647332731   111.13903893   180.08467002
 C     48  46  44     2.677772165182   116.45569531   179.78305307
 H     49  48  46     2.079405945805   111.02072349    60.77645033
 H     49  48  46     2.071565476360   106.39099641   180.32359510
 H     49  48  46     2.079296596680   110.97670581   299.87413751

---------------------
BASIS SET INFORMATION
---------------------
There are 4 groups of distinct atoms

 Group   1 Type C   : 11s6p2d1f contracted to 5s3p2d1f pattern {62111/411/11/1}
 Group   2 Type N   : 11s6p2d1f contracted to 5s3p2d1f pattern {62111/411/11/1}
 Group   3 Type O   : 11s6p2d1f contracted to 5s3p2d1f pattern {62111/411/11/1}
 Group   4 Type H   : 5s1p contracted to 3s1p pattern {311/1}

Atom   0C    basis set group =>   1
Atom   1C    basis set group =>   1
Atom   2C    basis set group =>   1
Atom   3N    basis set group =>   2
Atom   4C    basis set group =>   1
Atom   5C    basis set group =>   1
Atom   6C    basis set group =>   1
Atom   7C    basis set group =>   1
Atom   8O    basis set group =>   3
Atom   9O    basis set group =>   3
Atom  10C    basis set group =>   1
Atom  11H    basis set group =>   4
Atom  12H    basis set group =>   4
Atom  13H    basis set group =>   4
Atom  14H    basis set group =>   4
Atom  15H    basis set group =>   4
Atom  16H    basis set group =>   4
Atom  17H    basis set group =>   4
Atom  18C    basis set group =>   1
Atom  19C    basis set group =>   1
Atom  20C    basis set group =>   1
Atom  21C    basis set group =>   1
Atom  22C    basis set group =>   1
Atom  23C    basis set group =>   1
Atom  24C    basis set group =>   1
Atom  25C    basis set group =>   1
Atom  26O    basis set group =>   3
Atom  27C    basis set group =>   1
Atom  28N    basis set group =>   2
Atom  29O    basis set group =>   3
Atom  30H    basis set group =>   4
Atom  31H    basis set group =>   4
Atom  32H    basis set group =>   4
Atom  33H    basis set group =>   4
Atom  34H    basis set group =>   4
Atom  35H    basis set group =>   4
Atom  36H    basis set group =>   4
Atom  37H    basis set group =>   4
Atom  38O    basis set group =>   3
Atom  39H    basis set group =>   4
Atom  40H    basis set group =>   4
Atom  41C    basis set group =>   1
Atom  42H    basis set group =>   4
Atom  43C    basis set group =>   1
Atom  44H    basis set group =>   4
Atom  45C    basis set group =>   1
Atom  46O    basis set group =>   3
Atom  47O    basis set group =>   3
Atom  48C    basis set group =>   1
Atom  49H    basis set group =>   4
Atom  50H    basis set group =>   4
Atom  51H    basis set group =>   4
---------------------------------
AUXILIARY/J BASIS SET INFORMATION
---------------------------------
There are 4 groups of distinct atoms

 Group   1 Type C   : 12s5p4d2f1g contracted to 6s4p3d1f1g pattern {711111/2111/211/2/1}
 Group   2 Type N   : 12s5p4d2f1g contracted to 6s4p3d1f1g pattern {711111/2111/211/2/1}
 Group   3 Type O   : 12s5p4d2f1g contracted to 6s4p3d1f1g pattern {711111/2111/211/2/1}
 Group   4 Type H   : 5s2p1d contracted to 3s1p1d pattern {311/2/1}

Atom   0C    basis set group =>   1
Atom   1C    basis set group =>   1
Atom   2C    basis set group =>   1
Atom   3N    basis set group =>   2
Atom   4C    basis set group =>   1
Atom   5C    basis set group =>   1
Atom   6C    basis set group =>   1
Atom   7C    basis set group =>   1
Atom   8O    basis set group =>   3
Atom   9O    basis set group =>   3
Atom  10C    basis set group =>   1
Atom  11H    basis set group =>   4
Atom  12H    basis set group =>   4
Atom  13H    basis set group =>   4
Atom  14H    basis set group =>   4
Atom  15H    basis set group =>   4
Atom  16H    basis set group =>   4
Atom  17H    basis set group =>   4
Atom  18C    basis set group =>   1
Atom  19C    basis set group =>   1
Atom  20C    basis set group =>   1
Atom  21C    basis set group =>   1
Atom  22C    basis set group =>   1
Atom  23C    basis set group =>   1
Atom  24C    basis set group =>   1
Atom  25C    basis set group =>   1
Atom  26O    basis set group =>   3
Atom  27C    basis set group =>   1
Atom  28N    basis set group =>   2
Atom  29O    basis set group =>   3
Atom  30H    basis set group =>   4
Atom  31H    basis set group =>   4
Atom  32H    basis set group =>   4
Atom  33H    basis set group =>   4
Atom  34H    basis set group =>   4
Atom  35H    basis set group =>   4
Atom  36H    basis set group =>   4
Atom  37H    basis set group =>   4
Atom  38O    basis set group =>   3
Atom  39H    basis set group =>   4
Atom  40H    basis set group =>   4
Atom  41C    basis set group =>   1
Atom  42H    basis set group =>   4
Atom  43C    basis set group =>   1
Atom  44H    basis set group =>   4
Atom  45C    basis set group =>   1
Atom  46O    basis set group =>   3
Atom  47O    basis set group =>   3
Atom  48C    basis set group =>   1
Atom  49H    basis set group =>   4
Atom  50H    basis set group =>   4
Atom  51H    basis set group =>   4


           ************************************************************
           *        Program running with 24 parallel MPI-processes    *
           *              working on a common directory               *
           ************************************************************
------------------------------------------------------------------------------
                           ORCA GTO INTEGRAL CALCULATION
                           -- RI-GTO INTEGRALS CHOSEN --
------------------------------------------------------------------------------
------------------------------------------------------------------------------
                   ___                                                        
                  /   \      - P O W E R E D   B Y -                         
                 /     \                                                     
                 |  |  |   _    _      __       _____    __    __             
                 |  |  |  | |  | |    /  \     |  _  \  |  |  /  |          
                  \  \/   | |  | |   /    \    | | | |  |  | /  /          
                 / \  \   | |__| |  /  /\  \   | |_| |  |  |/  /          
                |  |  |   |  __  | /  /__\  \  |    /   |      \           
                |  |  |   | |  | | |   __   |  |    \   |  |\   \          
                \     /   | |  | | |  |  |  |  | |\  \  |  | \   \       
                 \___/    |_|  |_| |__|  |__|  |_| \__\ |__|  \__/        
                                                                              
                      - O R C A' S   B I G   F R I E N D -                    
                                      &                                       
                       - I N T E G R A L  F E E D E R -                       
                                                                              
 v1 FN, 2020, v2 2021                                                         
------------------------------------------------------------------------------


Reading SHARK input file TS2_CHCHCO2Me/TS2_CHCHCO2Me.SHARKINP.tmp ... ok
----------------------
SHARK INTEGRAL PACKAGE
----------------------

Number of atoms                             ...     52
Number of basis functions                   ...   1062
Number of shells                            ...    418
Maximum angular momentum                    ...      3
Integral batch strategy                     ... SHARK/LIBINT Hybrid
RI-J (if used) integral strategy            ... SPLIT-RIJ (Revised 2003 algorithm where possible)
Printlevel                                  ...      1
Contraction scheme used                     ... SEGMENTED contraction
Coulomb Range Separation                    ... NOT USED
Exchange Range Separation                   ... NOT USED
Finite Nucleus Model                        ... NOT USED
Auxiliary Coulomb fitting basis             ... AVAILABLE
   # of basis functions in Aux-J            ...   1712
   # of shells in Aux-J                     ...    560
   Maximum angular momentum in Aux-J        ...      4
Auxiliary J/K fitting basis                 ... NOT available
Auxiliary Correlation fitting basis         ... NOT available
Auxiliary 'external' fitting basis          ... NOT available
Integral threshold                          ...     2.500000e-11
Primitive cut-off                           ...     2.500000e-12
Primitive pair pre-selection threshold      ...     2.500000e-12

Calculating pre-screening integrals         ... done (  0.1 sec) Dimension = 418
Organizing shell pair data                  ... done (  0.7 sec)
Shell pair information
Total number of shell pairs                 ...     87571
Shell pairs after pre-screening             ...     58256
Total number of primitive shell pairs       ...    269004
Primitive shell pairs kept                  ...    114484
          la=0 lb=0:  14988 shell pairs
          la=1 lb=0:  16960 shell pairs
          la=1 lb=1:   4793 shell pairs
          la=2 lb=0:   8253 shell pairs
          la=2 lb=1:   4735 shell pairs
          la=2 lb=2:   1169 shell pairs
          la=3 lb=0:   3781 shell pairs
          la=3 lb=1:   2252 shell pairs
          la=3 lb=2:   1065 shell pairs
          la=3 lb=3:    260 shell pairs

Calculating one electron integrals          ... done (  0.1 sec)
Calculating RI/J V-Matrix + Cholesky decomp.... done (  0.3 sec)
Calculating Nuclear repulsion               ... done (  0.0 sec) ENN=   3120.022728817459 Eh

SHARK setup successfully completed in   2.2 seconds

Maximum memory used throughout the entire GTOINT-calculation: 87.3 MB


           ************************************************************
           *        Program running with 24 parallel MPI-processes    *
           *              working on a common directory               *
           ************************************************************
-------------------------------------------------------------------------------
                                 ORCA SCF
-------------------------------------------------------------------------------

------------
SCF SETTINGS
------------
Hamiltonian:
 Density Functional     Method          .... DFT(GTOs)
 Exchange Functional    Exchange        .... PBE
   PBE kappa parameter   XKappa         ....  0.804000
   PBE mue parameter    XMuePBE         ....  0.219520
 Correlation Functional Correlation     .... PBE
   PBE beta parameter  CBetaPBE         ....  0.066725
 LDA part of GGA corr.  LDAOpt          .... PW91-LDA
 Gradients option       PostSCFGGA      .... off
 Hybrid DFT is turned on
   Fraction HF Exchange ScalHFX         ....  0.250000
   Scaling of DF-GGA-X  ScalDFX         ....  0.750000
   Scaling of DF-GGA-C  ScalDFC         ....  1.000000
   Scaling of DF-LDA-C  ScalLDAC        ....  1.000000
   Perturbative correction              ....  0.000000
   Density functional embedding theory  .... OFF
   NL short-range parameter             ....  6.900000
 RI-approximation to the Coulomb term is turned on
   Number of AuxJ basis functions       .... 1712
   RIJ-COSX (HFX calculated with COS-X)).... on


General Settings:
 Integral files         IntName         .... TS2_CHCHCO2Me/TS2_CHCHCO2Me
 Hartree-Fock type      HFTyp           .... RHF
 Total Charge           Charge          ....    0
 Multiplicity           Mult            ....    1
 Number of Electrons    NEL             ....  218
 Basis Dimension        Dim             .... 1062
 Nuclear Repulsion      ENuc            ....   3120.0227288175 Eh

Convergence Acceleration:
 DIIS                   CNVDIIS         .... on
   Start iteration      DIISMaxIt       ....    12
   Startup error        DIISStart       ....  0.200000
   # of expansion vecs  DIISMaxEq       ....     5
   Bias factor          DIISBfac        ....   1.050
   Max. coefficient     DIISMaxC        ....  10.000
 Trust-Rad. Augm. Hess. CNVTRAH         .... auto
   Auto Start mean grad. ratio tolernc. ....  1.125000
   Auto Start start iteration           ....    20
   Auto Start num. interpolation iter.  ....    10
   Max. Number of Micro iterations      ....    16
   Max. Number of Macro iterations      .... Maxiter - #DIIS iter
   Number of Davidson start vectors     ....     2
   Converg. threshold I  (grad. norm)   ....   1.000e-05
   Converg. threshold II (energy diff.) ....   1.000e-08
   Grad. Scal. Fac. for Micro threshold ....   0.100
   Minimum threshold for Micro iter.    ....   0.010
   NR start threshold (gradient norm)   ....   0.001
   Initial trust radius                 ....   0.400
   Minimum AH scaling param. (alpha)    ....   1.000
   Maximum AH scaling param. (alpha)    .... 1000.000
   Orbital update algorithm             .... Taylor
   White noise on init. David. guess    .... on
   Maximum white noise                  ....   0.010
   Quad. conv. algorithm                .... NR
 SOSCF                  CNVSOSCF        .... on
   Start iteration      SOSCFMaxIt      ....   150
   Startup grad/error   SOSCFStart      ....  0.003300
 Level Shifting         CNVShift        .... on
   Level shift para.    LevelShift      ....    0.2500
   Turn off err/grad.   ShiftErr        ....    0.0010
 Zerner damping         CNVZerner       .... off
 Static damping         CNVDamp         .... on
   Fraction old density DampFac         ....    0.7000
   Max. Damping (<1)    DampMax         ....    0.9800
   Min. Damping (>=0)   DampMin         ....    0.0000
   Turn off err/grad.   DampErr         ....    0.1000
 Fernandez-Rico         CNVRico         .... off

SCF Procedure:
 Maximum # iterations   MaxIter         ....   800
 SCF integral mode      SCFMode         .... Direct
   Integral package                     .... SHARK and LIBINT hybrid scheme
 Reset frequency        DirectResetFreq ....    20
 Integral Threshold     Thresh          ....  2.500e-11 Eh
 Primitive CutOff       TCut            ....  2.500e-12 Eh

Convergence Tolerance:
 Convergence Check Mode ConvCheckMode   .... Total+1el-Energy
 Convergence forced     ConvForced      .... 0
 Energy Change          TolE            ....  1.000e-08 Eh
 1-El. energy change                    ....  1.000e-05 Eh
 Orbital Gradient       TolG            ....  1.000e-05
 Orbital Rotation angle TolX            ....  1.000e-05
 DIIS Error             TolErr          ....  5.000e-07


Diagonalization of the overlap matrix:
Smallest eigenvalue                        ... 5.527e-06
Time for diagonalization                   ...    0.216 sec
Threshold for overlap eigenvalues          ... 1.000e-08
Number of eigenvalues below threshold      ... 0
Time for construction of square roots      ...    0.171 sec
Total time needed                          ...    0.394 sec

Time for model grid setup =    0.539 sec

------------------------------
INITIAL GUESS: MODEL POTENTIAL
------------------------------
Loading Hartree-Fock densities                     ... done
Calculating cut-offs                               ... done
Initializing the effective Hamiltonian             ... done
Setting up the integral package (SHARK)            ... done
Starting the Coulomb interaction                   ... done (   0.6 sec)
Reading the grid                                   ... done
Mapping shells                                     ... done
Starting the XC term evaluation                    ... done (   0.3 sec)
  promolecular density results
     # of electrons  =    217.994828032
     EX              =   -184.060866915
     EC              =     -7.363061605
     EX+EC           =   -191.423928520
Transforming the Hamiltonian                       ... done (   0.1 sec)
Diagonalizing the Hamiltonian                      ... done (   0.2 sec)
Back transforming the eigenvectors                 ... done (   0.1 sec)
Now organizing SCF variables                       ... done
                      ------------------
                      INITIAL GUESS DONE (   2.0 sec)
                      ------------------
-------------------
DFT GRID GENERATION
-------------------

General Integration Accuracy     IntAcc      ... 4.388
Radial Grid Type                 RadialGrid  ... OptM3 with GC (2021)
Angular Grid (max. ang.)         AngularGrid ... 4 (Lebedev-302)
Angular grid pruning method      GridPruning ... 4 (adaptive)
Weight generation scheme         WeightScheme... Becke
Basis function cutoff            BFCut       ... 1.0000e-11
Integration weight cutoff        WCut        ... 1.0000e-14
Angular grids for H and He will be reduced by one unit
Partially contracted basis set               ... off
Rotationally invariant grid construction     ... off

Total number of grid points                  ...   248689
Total number of batches                      ...     3913
Average number of points per batch           ...       63
Average number of grid points per atom       ...     4782
Time for grid setup =    2.051 sec

--------------------
COSX GRID GENERATION
--------------------

GRIDX 1
-------
General Integration Accuracy     IntAcc      ... 3.816
Radial Grid Type                 RadialGrid  ... OptM3 with GC (2021)
Angular Grid (max. ang.)         AngularGrid ... 1 (Lebedev-50)
Angular grid pruning method      GridPruning ... 4 (adaptive)
Weight generation scheme         WeightScheme... Becke
Basis function cutoff            BFCut       ... 1.0000e-11
Integration weight cutoff        WCut        ... 1.0000e-14
Angular grids for H and He will be reduced by one unit
Partially contracted basis set               ... on
Rotationally invariant grid construction     ... off

Total number of grid points                  ...    31494
Total number of batches                      ...      519
Average number of points per batch           ...       60
Average number of grid points per atom       ...      606
UseSFitting                                  ... on

GRIDX 2
-------
General Integration Accuracy     IntAcc      ... 4.020
Radial Grid Type                 RadialGrid  ... OptM3 with GC (2021)
Angular Grid (max. ang.)         AngularGrid ... 2 (Lebedev-110)
Angular grid pruning method      GridPruning ... 4 (adaptive)
Weight generation scheme         WeightScheme... Becke
Basis function cutoff            BFCut       ... 1.0000e-11
Integration weight cutoff        WCut        ... 1.0000e-14
Angular grids for H and He will be reduced by one unit
Partially contracted basis set               ... on
Rotationally invariant grid construction     ... off

Total number of grid points                  ...    68256
Total number of batches                      ...     1093
Average number of points per batch           ...       62
Average number of grid points per atom       ...     1313
UseSFitting                                  ... on

GRIDX 3
-------
General Integration Accuracy     IntAcc      ... 4.338
Radial Grid Type                 RadialGrid  ... OptM3 with GC (2021)
Angular Grid (max. ang.)         AngularGrid ... 3 (Lebedev-194)
Angular grid pruning method      GridPruning ... 4 (adaptive)
Weight generation scheme         WeightScheme... Becke
Basis function cutoff            BFCut       ... 1.0000e-11
Integration weight cutoff        WCut        ... 1.0000e-14
Angular grids for H and He will be reduced by one unit
Partially contracted basis set               ... on
Rotationally invariant grid construction     ... off

Total number of grid points                  ...   148940
Total number of batches                      ...     2355
Average number of points per batch           ...       63
Average number of grid points per atom       ...     2864
UseSFitting                                  ... on

Time for X-Grid setup             =    3.731 sec


--------------------
CPCM SOLVATION MODEL
--------------------
CPCM parameters:
  Epsilon                                         ...      47.2000
  Refrac                                          ...       1.4790
  Rsolv                                           ...       1.3000
  Surface type                                    ... GAUSSIAN VDW
  Epsilon function type                           ...         CPCM
Radii:
 Radius for C  used is    3.8550 Bohr (=   2.0400 Ang.)
 Radius for N  used is    3.5149 Bohr (=   1.8600 Ang.)
 Radius for O  used is    3.4469 Bohr (=   1.8240 Ang.)
 Radius for H  used is    2.4944 Bohr (=   1.3200 Ang.)
Calculating surface                               ...        done! (  0.0s)
GEPOL surface points                              ...         2661
GEPOL Volume                                      ...    3184.5595
GEPOL Surface-area                                ...    1568.4237
Calculating surface distance matrix               ...        done! (  0.1s)
Performing Cholesky decomposition & store         ...        done! (  1.6s)
Overall time for CPCM initialization              ...                 1.7s
--------------
SCF ITERATIONS
--------------
ITER       Energy         Delta-E        Max-DP      RMS-DP      [F,P]     Damp
               ***  Starting incremental Fock matrix formation  ***
  0  -1447.6761710847   0.000000000000 0.50541316  0.00104757  0.2845497 0.7000
  1  -1447.9749534438  -0.298782359151 0.37615497  0.00083978  0.1184136 0.7000
                               ***Turning on DIIS***
  2  -1448.0931307479  -0.118177304092 0.33286675  0.00120439  0.0326204 0.0000
  3  -1448.2908757649  -0.197745016965 0.34778837  0.00072623  0.0620158 0.0000
  4  -1448.3257130768  -0.034837311935 0.03372953  0.00019024  0.0191123 0.0000
  5  -1448.3281850558  -0.002471978987 0.04141976  0.00009072  0.0061620 0.0000
                      *** Initiating the SOSCF procedure ***
                           *** Shutting down DIIS ***
                      *** Re-Reading the Fockian *** 
                      *** Removing any level shift *** 
ITER      Energy       Delta-E        Grad      Rot      Max-DP    RMS-DP
  6  -1448.32835476  -0.0001697032  0.000527  0.000527  0.006251  0.000022
               *** Restarting incremental Fock matrix formation ***
  7  -1448.32835234   0.0000024216  0.000355  0.002395  0.003267  0.000020
  8  -1448.32835297  -0.0000006368  0.000298  0.000793  0.001598  0.000009
  9  -1448.32835811  -0.0000051384  0.000118  0.000387  0.002028  0.000006
 10  -1448.32835788   0.0000002308  0.000096  0.000110  0.001233  0.000002
 11  -1448.32835845  -0.0000005643  0.000010  0.000045  0.000311  0.000001
 12  -1448.32835844   0.0000000058  0.000018  0.000030  0.000289  0.000001
 13  -1448.32835845  -0.0000000087  0.000006  0.000017  0.000148  0.000001
 14  -1448.32835844   0.0000000040  0.000007  0.000009  0.000208  0.000001
                  ***Gradient check signals convergence***
              ***Rediagonalizing the Fockian in SOSCF/NRSCF***

               *****************************************************
               *                     SUCCESS                       *
               *           SCF CONVERGED AFTER  15 CYCLES          *
               *****************************************************

Old exchange energy                            =    -46.850014562 Eh
New exchange energy                            =    -46.850032223 Eh
Exchange energy change after final integration =     -0.000017660 Eh
Total energy after final integration           =  -1448.328376169 Eh
Final COS-X integration done in                =    25.853 sec

----------------
TOTAL SCF ENERGY
----------------

Total Energy       :        -1448.32837617 Eh          -39411.01873 eV

Components:
Nuclear Repulsion  :         3120.02272882 Eh           84900.13469 eV
Electronic Energy  :        -4568.35110499 Eh         -124311.15342 eV
One Electron Energy:        -8183.64793075 Eh         -222688.38145 eV
Two Electron Energy:         3615.29682576 Eh           98377.22803 eV
Max COSX asymmetry :            0.00000154 Eh               0.00004 eV
CPCM Dielectric    :           -0.05480144 Eh              -1.49122 eV

Virial components:
Potential Energy   :        -2889.86754091 Eh          -78637.29363 eV
Kinetic Energy     :         1441.53916474 Eh           39226.27490 eV
Virial Ratio       :            2.00470970


DFT components:
N(Alpha)           :      109.000009527579 electrons
N(Beta)            :      109.000009527579 electrons
N(Total)           :      218.000019055158 electrons
E(X)               :     -140.365976991751 Eh       
E(C)               :       -7.358612200985 Eh       
E(XC)              :     -147.724589192737 Eh       
DFET-embed. en.    :        0.000000000000 Eh       
CPCM Solvation Model Properties:
Surface-charge          :           -0.03169221
Charge-correction       :           -0.00029084 Eh              -0.00791 eV
Free-energy (cav+disp)  :  This term is not implemented in the current solvation scheme

---------------
SCF CONVERGENCE
---------------

  Last Energy change         ...   -6.3793e-08  Tolerance :   1.0000e-08
  Last MAX-Density change    ...    2.1094e-15  Tolerance :   1.0000e-07
  Last RMS-Density change    ...    1.3014e-17  Tolerance :   5.0000e-09
  Last Orbital Gradient      ...    1.0902e-06  Tolerance :   1.0000e-05
  Last Orbital Rotation      ...    4.7494e-06  Tolerance :   1.0000e-05

             **** THE GBW FILE WAS UPDATED (TS2_CHCHCO2Me/TS2_CHCHCO2Me.gbw) ****
             **** DENSITY TS2_CHCHCO2Me/TS2_CHCHCO2Me.scfp WAS UPDATED ****
             **** ENERGY FILE WAS UPDATED (TS2_CHCHCO2Me/TS2_CHCHCO2Me.en.tmp) ****
             **** THE GBW FILE WAS UPDATED (TS2_CHCHCO2Me/TS2_CHCHCO2Me.gbw) ****
             **** DENSITY TS2_CHCHCO2Me/TS2_CHCHCO2Me.scfp WAS UPDATED ****
----------------
ORBITAL ENERGIES
----------------

  NO   OCC          E(Eh)            E(eV) 
   0   2.0000     -19.272225      -524.4239 
   1   2.0000     -19.252638      -523.8909 
   2   2.0000     -19.248864      -523.7882 
   3   2.0000     -19.235553      -523.4260 
   4   2.0000     -19.210290      -522.7386 
   5   2.0000     -19.207931      -522.6744 
   6   2.0000     -19.187653      -522.1226 
   7   2.0000     -14.587454      -396.9448 
   8   2.0000     -14.441622      -392.9765 
   9   2.0000     -10.371822      -282.2316 
  10   2.0000     -10.347026      -281.5569 
  11   2.0000     -10.334375      -281.2126 
  12   2.0000     -10.295625      -280.1582 
  13   2.0000     -10.287623      -279.9405 
  14   2.0000     -10.287560      -279.9387 
  15   2.0000     -10.275786      -279.6184 
  16   2.0000     -10.270404      -279.4719 
  17   2.0000     -10.268961      -279.4326 
  18   2.0000     -10.267524      -279.3935 
  19   2.0000     -10.267344      -279.3886 
  20   2.0000     -10.262907      -279.2679 
  21   2.0000     -10.253590      -279.0144 
  22   2.0000     -10.253433      -279.0101 
  23   2.0000     -10.252015      -278.9715 
  24   2.0000     -10.244185      -278.7585 
  25   2.0000     -10.234905      -278.5059 
  26   2.0000     -10.234149      -278.4854 
  27   2.0000     -10.230760      -278.3931 
  28   2.0000     -10.229424      -278.3568 
  29   2.0000     -10.226525      -278.2779 
  30   2.0000      -1.230612       -33.4867 
  31   2.0000      -1.161604       -31.6088 
  32   2.0000      -1.138321       -30.9753 
  33   2.0000      -1.112877       -30.2829 
  34   2.0000      -1.068248       -29.0685 
  35   2.0000      -1.054320       -28.6895 
  36   2.0000      -1.043631       -28.3986 
  37   2.0000      -1.015456       -27.6320 
  38   2.0000      -0.909291       -24.7431 
  39   2.0000      -0.881661       -23.9912 
  40   2.0000      -0.855949       -23.2916 
  41   2.0000      -0.834607       -22.7108 
  42   2.0000      -0.812936       -22.1211 
  43   2.0000      -0.812468       -22.1084 
  44   2.0000      -0.795060       -21.6347 
  45   2.0000      -0.779327       -21.2066 
  46   2.0000      -0.751775       -20.4568 
  47   2.0000      -0.750276       -20.4160 
  48   2.0000      -0.719667       -19.5831 
  49   2.0000      -0.699499       -19.0343 
  50   2.0000      -0.678937       -18.4748 
  51   2.0000      -0.667770       -18.1709 
  52   2.0000      -0.664612       -18.0850 
  53   2.0000      -0.627005       -17.0617 
  54   2.0000      -0.614881       -16.7318 
  55   2.0000      -0.601388       -16.3646 
[...]
 61:    777.86   0.010374   52.43  0.004162  ( 0.030025 -0.056175 -0.010235)
 62:    780.23   0.008820   44.57  0.003528  (-0.025537  0.053425 -0.004610)
 63:    810.96   0.005766   29.14  0.002219  ( 0.014675  0.004464  0.044537)
 64:    850.85   0.008455   42.73  0.003101  (-0.004866 -0.048529  0.026874)
 65:    873.31   0.003245   16.40  0.001160  ( 0.017383 -0.021578  0.019797)
 66:    883.06   0.012350   62.41  0.004365  (-0.013758 -0.039458 -0.051169)
 67:    894.07   0.000039    0.20  0.000014  (-0.001224 -0.003356  0.000863)
 68:    896.16   0.007553   38.17  0.002630  (-0.009130 -0.049608  0.009257)
 69:    908.08   0.033455  169.07  0.011497  ( 0.000954 -0.093986  0.051601)
 70:    963.62   0.000625    3.16  0.000202  (-0.010610  0.009277  0.001901)
 71:    967.81   0.003902   19.72  0.001258  ( 0.017742 -0.029404  0.008873)
 72:    979.26   0.000315    1.59  0.000101  ( 0.000205 -0.009507  0.003180)
 73:    995.10   0.000093    0.47  0.000029  (-0.002637  0.004080 -0.002357)
 74:   1013.79   0.010246   51.78  0.003154  (-0.013729 -0.032498 -0.043695)
 75:   1016.30   0.000017    0.09  0.000005  (-0.001012 -0.001881 -0.000880)
 76:   1036.84   0.016174   81.74  0.004868  (-0.056512  0.040723 -0.004006)
 77:   1040.80   0.000022    0.11  0.000007  (-0.001288  0.002174  0.000576)
 78:   1060.27   0.000208    1.05  0.000061  ( 0.000874 -0.007281  0.002716)
 79:   1067.04   0.019449   98.29  0.005688  ( 0.034442 -0.058977  0.031992)
 80:   1070.78   0.014007   70.79  0.004082  ( 0.029759  0.040266 -0.039688)
 81:   1081.34   0.025350  128.11  0.007316  (-0.049941 -0.012568 -0.068291)
 82:   1084.14   0.011218   56.69  0.003229  (-0.017984 -0.033391  0.042316)
 83:   1094.27   0.022518  113.80  0.006422  ( 0.035927 -0.071295 -0.006920)
 84:   1106.51   0.045162  228.23  0.012737  (-0.021938 -0.104023  0.037880)
 85:   1113.85   0.012863   65.00  0.003604  (-0.003009  0.058465 -0.013282)
 86:   1126.97   0.063259  319.68  0.017517  (-0.016614  0.118283 -0.057007)
 87:   1138.98   0.035369  178.74  0.009691  (-0.034483 -0.058474  0.071290)
 88:   1168.47   0.000893    4.51  0.000239  (-0.005590  0.002276 -0.014217)
 89:   1170.72   0.000159    0.81  0.000042  ( 0.001692  0.002937  0.005566)
 90:   1171.22   0.000306    1.55  0.000082  (-0.005122  0.007108 -0.002202)
 91:   1172.98   0.000433    2.19  0.000115  (-0.009671  0.001634  0.004365)
 92:   1175.27   0.001412    7.14  0.000375  ( 0.011919  0.010800 -0.010786)
 93:   1194.69   0.008993   45.45  0.002349  (-0.005941 -0.036829  0.030942)
 94:   1201.02   0.110447  558.16  0.028698  (-0.023682 -0.137552  0.096002)
 95:   1208.22   0.000558    2.82  0.000144  ( 0.007515  0.009271 -0.001328)
 96:   1213.07   0.047165  238.35  0.012133  ( 0.030870  0.081802 -0.066999)
 97:   1213.61   0.032055  161.99  0.008242  ( 0.001479 -0.075299  0.050699)
 98:   1222.32   0.123508  624.16  0.031532  ( 0.002433 -0.153781  0.088756)
 99:   1234.54   0.052950  267.59  0.013384  ( 0.035675 -0.101576  0.042357)
100:   1239.46   0.007192   36.34  0.001811  ( 0.026379  0.019115 -0.027376)
101:   1265.48   0.058287  294.56  0.014373  ( 0.005505 -0.113311  0.038776)
102:   1287.33   0.016909   85.45  0.004099  ( 0.019602 -0.047153 -0.038619)
103:   1302.14   0.067391  340.57  0.016151  (-0.040864 -0.010259  0.119898)
104:   1305.85   0.046290  233.93  0.011062  ( 0.053166  0.051616  0.074642)
105:   1325.02   0.011785   59.56  0.002776  ( 0.011660  0.015536  0.048972)
106:   1338.69   0.025461  128.67  0.005935  (-0.018904  0.067135 -0.032723)
107:   1344.11   0.125997  636.74  0.029253  ( 0.002449 -0.120511  0.121342)
108:   1350.72   0.084317  426.10  0.019480  ( 0.133644  0.013402 -0.037944)
109:   1373.84   0.025193  127.31  0.005723  ( 0.074387  0.010233  0.009188)
110:   1388.30   0.001116    5.64  0.000251  (-0.005489 -0.004615  0.014122)
111:   1399.91   0.028458  143.82  0.006344  ( 0.027022 -0.037046  0.065125)
112:   1456.46   0.017933   90.63  0.003842  (-0.033956  0.049291 -0.016119)
113:   1463.70   0.003026   15.29  0.000645  ( 0.006696  0.014143  0.020007)
114:   1466.04   0.005711   28.86  0.001216  ( 0.001480 -0.012677 -0.032445)
115:   1466.11   0.002783   14.06  0.000592  (-0.021767 -0.000656  0.010870)
116:   1470.71   0.013203   66.72  0.002801  (-0.036259 -0.016038 -0.035064)
117:   1473.26   0.032079  162.11  0.006795  ( 0.037884  0.054657 -0.048707)
118:   1473.77   0.013315   67.29  0.002819  ( 0.030625  0.013686 -0.041161)
119:   1474.04   0.004851   24.51  0.001027  (-0.004855  0.027644 -0.015464)
120:   1478.50   0.008813   44.54  0.001860  ( 0.014049  0.026602 -0.030906)
121:   1483.09   0.003699   18.69  0.000778  (-0.003270  0.000297 -0.027705)
122:   1493.16   0.013408   67.76  0.002802  ( 0.013984 -0.007259  0.050536)
123:   1498.56   0.010359   52.35  0.002157  ( 0.009707 -0.004270 -0.045218)
124:   1529.02   0.049021  247.73  0.010005  ( 0.025494  0.080560 -0.053525)
125:   1533.86   0.296816  1499.99  0.060387  (-0.036445 -0.191566  0.149537)
126:   1539.22   0.026161  132.21  0.005304  ( 0.001734  0.059008  0.042650)
127:   1648.48   0.001487    7.52  0.000282  ( 0.007497 -0.000013  0.015012)
128:   1650.31   0.004393   22.20  0.000831  ( 0.022767 -0.003002 -0.017419)
129:   1664.66   0.012001   60.65  0.002250  (-0.011450  0.016590  0.042934)
130:   1666.20   0.012475   63.04  0.002336  (-0.046418  0.006606  0.011756)
131:   1671.27   0.086438  436.82  0.016140  (-0.078331  0.085013 -0.052697)
132:   1739.42   0.112799  570.04  0.020237  (-0.138138  0.024265  0.023794)
133:   1798.37   0.107997  545.77  0.018740  (-0.025794  0.119707 -0.061197)
134:   3038.16   0.012182   61.56  0.001251  ( 0.022301  0.016592 -0.021878)
135:   3064.20   0.008919   45.07  0.000908  (-0.010136  0.024707 -0.013968)
136:   3075.54   0.005527   27.93  0.000561  ( 0.009546  0.016840  0.013643)
137:   3110.70   0.007389   37.34  0.000741  ( 0.017083 -0.020972  0.003097)
138:   3114.89   0.000822    4.15  0.000082  (-0.001796 -0.008852 -0.000865)
139:   3142.25   0.005220   26.38  0.000518  ( 0.005927  0.012513  0.018076)
140:   3160.53   0.003355   16.96  0.000331  (-0.015771  0.000630  0.009066)
141:   3166.71   0.003616   18.27  0.000356  ( 0.003794  0.005705  0.017589)
142:   3179.37   0.003495   17.66  0.000343  (-0.013757 -0.007551  0.009837)
143:   3183.33   0.000641    3.24  0.000063  (-0.005786 -0.005151  0.001683)
144:   3195.58   0.001727    8.73  0.000169  (-0.005927  0.006610 -0.009477)
145:   3196.31   0.001350    6.82  0.000132  ( 0.008147  0.007861  0.001908)
146:   3197.12   0.000663    3.35  0.000065  (-0.007798  0.001119 -0.001614)
147:   3197.62   0.000284    1.43  0.000028  ( 0.004491  0.000397 -0.002709)
148:   3203.76   0.000736    3.72  0.000072  ( 0.008011  0.000113 -0.002736)
149:   3212.86   0.000040    0.20  0.000004  ( 0.001150  0.000163 -0.001580)
150:   3214.48   0.002866   14.49  0.000278  (-0.001664 -0.003300 -0.016267)
151:   3215.91   0.001063    5.37  0.000103  ( 0.007085  0.006467 -0.003334)
152:   3229.97   0.000214    1.08  0.000021  (-0.001646  0.000418 -0.004219)
153:   3231.93   0.000420    2.12  0.000041  (-0.004454 -0.003728  0.002609)
154:   3234.30   0.000306    1.55  0.000030  (-0.005073  0.000932  0.001715)
155:   3277.25   0.000303    1.53  0.000029  (-0.003099  0.000663  0.004335)

* The epsilon (eps) is given for a Dirac delta lineshape.
** The dipole moment derivative (T) already includes vibrational overlap.

The first frequency considered to be a vibration is 7
The total number of vibrations considered is 149


--------------------------
THERMOCHEMISTRY AT 298.15K
--------------------------

Temperature         ... 298.15 K
Pressure            ... 1.00 atm
Total Mass          ... 414.41 AMU

Throughout the following assumptions are being made:
  (1) The electronic state is orbitally nondegenerate
  (2) There are no thermally accessible electronically excited states
  (3) Hindered rotations indicated by low frequency modes are not
      treated as such but are treated as vibrations and this may
      cause some error
  (4) All equations used are the standard statistical mechanics
      equations for an ideal gas
  (5) All vibrations are strictly harmonic

freq.      16.73  E(vib)   ...       0.57 
freq.      26.70  E(vib)   ...       0.56 
freq.      31.85  E(vib)   ...       0.55 
freq.      35.51  E(vib)   ...       0.54 
freq.      44.74  E(vib)   ...       0.53 
freq.      51.74  E(vib)   ...       0.52 
freq.      55.68  E(vib)   ...       0.52 
freq.      63.28  E(vib)   ...       0.51 
freq.      70.88  E(vib)   ...       0.50 
freq.      84.47  E(vib)   ...       0.48 
freq.      94.57  E(vib)   ...       0.47 
freq.     103.12  E(vib)   ...       0.46 
freq.     111.87  E(vib)   ...       0.45 
freq.     137.33  E(vib)   ...       0.42 
freq.     147.18  E(vib)   ...       0.41 
freq.     151.51  E(vib)   ...       0.40 
freq.     156.73  E(vib)   ...       0.40 
freq.     162.92  E(vib)   ...       0.39 
freq.     169.28  E(vib)   ...       0.38 
freq.     179.25  E(vib)   ...       0.37 
freq.     192.24  E(vib)   ...       0.36 
freq.     211.46  E(vib)   ...       0.34 
freq.     218.93  E(vib)   ...       0.33 
freq.     239.50  E(vib)   ...       0.31 
freq.     247.27  E(vib)   ...       0.31 
freq.     251.70  E(vib)   ...       0.30 
freq.     260.42  E(vib)   ...       0.30 
freq.     265.04  E(vib)   ...       0.29 
freq.     307.46  E(vib)   ...       0.26 
freq.     312.27  E(vib)   ...       0.25 
freq.     334.24  E(vib)   ...       0.24 
freq.     340.52  E(vib)   ...       0.23 
freq.     395.19  E(vib)   ...       0.20 
freq.     411.93  E(vib)   ...       0.19 
freq.     431.68  E(vib)   ...       0.18 
freq.     448.73  E(vib)   ...       0.17 
freq.     485.08  E(vib)   ...       0.15 
freq.     496.04  E(vib)   ...       0.14 
freq.     503.16  E(vib)   ...       0.14 
freq.     559.63  E(vib)   ...       0.12 
freq.     584.37  E(vib)   ...       0.11 
freq.     610.82  E(vib)   ...       0.10 
freq.     634.09  E(vib)   ...       0.09 
freq.     637.02  E(vib)   ...       0.09 
freq.     659.72  E(vib)   ...       0.08 
freq.     680.78  E(vib)   ...       0.08 
freq.     699.02  E(vib)   ...       0.07 
freq.     712.60  E(vib)   ...       0.07 
freq.     726.44  E(vib)   ...       0.06 
freq.     736.23  E(vib)   ...       0.06 
freq.     758.78  E(vib)   ...       0.06 
freq.     763.34  E(vib)   ...       0.06 
freq.     768.38  E(vib)   ...       0.06 
freq.     772.14  E(vib)   ...       0.05 
freq.     777.86  E(vib)   ...       0.05 
freq.     780.23  E(vib)   ...       0.05 
freq.     810.96  E(vib)   ...       0.05 
freq.     850.85  E(vib)   ...       0.04 
freq.     873.31  E(vib)   ...       0.04 
freq.     883.06  E(vib)   ...       0.04 
freq.     894.07  E(vib)   ...       0.03 
freq.     896.16  E(vib)   ...       0.03 
freq.     908.08  E(vib)   ...       0.03 
freq.     963.62  E(vib)   ...       0.03 
freq.     967.81  E(vib)   ...       0.03 
freq.     979.26  E(vib)   ...       0.03 
freq.     995.10  E(vib)   ...       0.02 
freq.    1013.79  E(vib)   ...       0.02 
freq.    1016.30  E(vib)   ...       0.02 
freq.    1036.84  E(vib)   ...       0.02 
freq.    1040.80  E(vib)   ...       0.02 
freq.    1060.27  E(vib)   ...       0.02 
freq.    1067.04  E(vib)   ...       0.02 
freq.    1070.78  E(vib)   ...       0.02 
freq.    1081.34  E(vib)   ...       0.02 
freq.    1084.14  E(vib)   ...       0.02 
freq.    1094.27  E(vib)   ...       0.02 
freq.    1106.51  E(vib)   ...       0.02 
freq.    1113.85  E(vib)   ...       0.01 
freq.    1126.97  E(vib)   ...       0.01 
freq.    1138.98  E(vib)   ...       0.01 
freq.    1168.47  E(vib)   ...       0.01 
freq.    1170.72  E(vib)   ...       0.01 
freq.    1171.22  E(vib)   ...       0.01 
freq.    1172.98  E(vib)   ...       0.01 
freq.    1175.27  E(vib)   ...       0.01 
freq.    1194.69  E(vib)   ...       0.01 
freq.    1201.02  E(vib)   ...       0.01 
freq.    1208.22  E(vib)   ...       0.01 
freq.    1213.07  E(vib)   ...       0.01 
freq.    1213.61  E(vib)   ...       0.01 
freq.    1222.32  E(vib)   ...       0.01 
freq.    1234.54  E(vib)   ...       0.01 
freq.    1239.46  E(vib)   ...       0.01 
freq.    1265.48  E(vib)   ...       0.01 
freq.    1287.33  E(vib)   ...       0.01 
freq.    1302.14  E(vib)   ...       0.01 
freq.    1305.85  E(vib)   ...       0.01 
freq.    1325.02  E(vib)   ...       0.01 
freq.    1338.69  E(vib)   ...       0.01 
freq.    1344.11  E(vib)   ...       0.01 
freq.    1350.72  E(vib)   ...       0.01 
freq.    1373.84  E(vib)   ...       0.01 
freq.    1388.30  E(vib)   ...       0.00 
freq.    1399.91  E(vib)   ...       0.00 
freq.    1456.46  E(vib)   ...       0.00 
freq.    1463.70  E(vib)   ...       0.00 
freq.    1466.04  E(vib)   ...       0.00 
freq.    1466.11  E(vib)   ...       0.00 
freq.    1470.71  E(vib)   ...       0.00 
freq.    1473.26  E(vib)   ...       0.00 
freq.    1473.77  E(vib)   ...       0.00 
freq.    1474.04  E(vib)   ...       0.00 
freq.    1478.50  E(vib)   ...       0.00 
freq.    1483.09  E(vib)   ...       0.00 
freq.    1493.16  E(vib)   ...       0.00 
freq.    1498.56  E(vib)   ...       0.00 
freq.    1529.02  E(vib)   ...       0.00 
freq.    1533.86  E(vib)   ...       0.00 
freq.    1539.22  E(vib)   ...       0.00 
freq.    1648.48  E(vib)   ...       0.00 
freq.    1650.31  E(vib)   ...       0.00 
freq.    1664.66  E(vib)   ...       0.00 
freq.    1666.20  E(vib)   ...       0.00 
freq.    1671.27  E(vib)   ...       0.00 
freq.    1739.42  E(vib)   ...       0.00 
freq.    1798.37  E(vib)   ...       0.00 
freq.    3038.16  E(vib)   ...       0.00 
freq.    3064.20  E(vib)   ...       0.00 
freq.    3075.54  E(vib)   ...       0.00 
freq.    3110.70  E(vib)   ...       0.00 
freq.    3114.89  E(vib)   ...       0.00 
freq.    3142.25  E(vib)   ...       0.00 
freq.    3160.53  E(vib)   ...       0.00 
freq.    3166.71  E(vib)   ...       0.00 
freq.    3179.37  E(vib)   ...       0.00 
freq.    3183.33  E(vib)   ...       0.00 
freq.    3195.58  E(vib)   ...       0.00 
freq.    3196.31  E(vib)   ...       0.00 
freq.    3197.12  E(vib)   ...       0.00 
freq.    3197.62  E(vib)   ...       0.00 
freq.    3203.76  E(vib)   ...       0.00 
freq.    3212.86  E(vib)   ...       0.00 
freq.    3214.48  E(vib)   ...       0.00 
freq.    3215.91  E(vib)   ...       0.00 
freq.    3229.97  E(vib)   ...       0.00 
freq.    3231.93  E(vib)   ...       0.00 
freq.    3234.30  E(vib)   ...       0.00 
freq.    3277.25  E(vib)   ...       0.00 

------------
INNER ENERGY
------------

The inner energy is: U= E(el) + E(ZPE) + E(vib) + E(rot) + E(trans)
    E(el)   - is the total energy from the electronic structure calculation
              = E(kin-el) + E(nuc-el) + E(el-el) + E(nuc-nuc)
    E(ZPE)  - the the zero temperature vibrational energy from the frequency calculation
    E(vib)  - the the finite temperature correction to E(ZPE) due to population
              of excited vibrational states
    E(rot)  - is the rotational thermal energy
    E(trans)- is the translational thermal energy

Summary of contributions to the inner energy U:
Electronic energy                ...  -1448.39740592 Eh
Zero point energy                ...      0.40877557 Eh     256.51 kcal/mol
Thermal vibrational correction   ...      0.02584215 Eh      16.22 kcal/mol
Thermal rotational correction    ...      0.00141627 Eh       0.89 kcal/mol
Thermal translational correction ...      0.00141627 Eh       0.89 kcal/mol
-----------------------------------------------------------------------
Total thermal energy                  -1447.95995565 Eh


Summary of corrections to the electronic energy:
(perhaps to be used in another calculation)
Total thermal correction                  0.02867469 Eh      17.99 kcal/mol
Non-thermal (ZPE) correction              0.40877557 Eh     256.51 kcal/mol
-----------------------------------------------------------------------
Total correction                          0.43745027 Eh     274.50 kcal/mol


--------
ENTHALPY
--------

The enthalpy is H = U + kB*T
                kB is Boltzmann's constant
Total free energy                 ...  -1447.95995565 Eh 
Thermal Enthalpy correction       ...      0.00094421 Eh       0.59 kcal/mol
-----------------------------------------------------------------------
Total Enthalpy                    ...  -1447.95901144 Eh


Note: Only C1 symmetry has been detected, increase convergence thresholds 
      if your molecule has a higher symmetry. Symmetry factor of 1.0 is   
      used for the rotational entropy correction. 
 

Note: Rotational entropy computed according to Herzberg 
Infrared and Raman Spectra, Chapter V,1, Van Nostrand Reinhold, 1945 
Point Group:  C1, Symmetry Number:   1  
Rotational constants in cm-1:     0.006281     0.004481     0.003635 

Vibrational entropy computed according to the QRRHO of S. Grimme
Chem.Eur.J. 2012 18 9955


-------
ENTROPY
-------

The entropy contributions are T*S = T*(S(el)+S(vib)+S(rot)+S(trans))
     S(el)   - electronic entropy
     S(vib)  - vibrational entropy
     S(rot)  - rotational entropy
     S(trans)- translational entropy
The entropies will be listed as multiplied by the temperature to get
units of energy

Electronic entropy                ...      0.00000000 Eh      0.00 kcal/mol
Vibrational entropy               ...      0.04726608 Eh     29.66 kcal/mol
Rotational entropy                ...      0.01710921 Eh     10.74 kcal/mol
Translational entropy             ...      0.02088475 Eh     13.11 kcal/mol
-----------------------------------------------------------------------
Final entropy term                ...      0.08526004 Eh     53.50 kcal/mol

In case the symmetry of your molecule has not been determined correctly
or in case you have a reason to use a different symmetry number we print 
out the resulting rotational entropy values for sn=1,12 :
 --------------------------------------------------------
|  sn= 1 | S(rot)=       0.01710921 Eh     10.74 kcal/mol|
|  sn= 2 | S(rot)=       0.01645475 Eh     10.33 kcal/mol|
|  sn= 3 | S(rot)=       0.01607192 Eh     10.09 kcal/mol|
|  sn= 4 | S(rot)=       0.01580029 Eh      9.91 kcal/mol|
|  sn= 5 | S(rot)=       0.01558961 Eh      9.78 kcal/mol|
|  sn= 6 | S(rot)=       0.01541746 Eh      9.67 kcal/mol|
|  sn= 7 | S(rot)=       0.01527191 Eh      9.58 kcal/mol|
|  sn= 8 | S(rot)=       0.01514584 Eh      9.50 kcal/mol|
|  sn= 9 | S(rot)=       0.01503463 Eh      9.43 kcal/mol|
|  sn=10 | S(rot)=       0.01493515 Eh      9.37 kcal/mol|
|  sn=11 | S(rot)=       0.01484516 Eh      9.32 kcal/mol|
|  sn=12 | S(rot)=       0.01476300 Eh      9.26 kcal/mol|
 --------------------------------------------------------


-------------------
GIBBS FREE ENERGY
-------------------

The Gibbs free energy is G = H - T*S

Total enthalpy                    ...  -1447.95901144 Eh 
Total entropy correction          ...     -0.08526004 Eh    -53.50 kcal/mol
-----------------------------------------------------------------------
Final Gibbs free energy         ...  -1448.04427148 Eh

For completeness - the Gibbs free energy minus the electronic energy
G-E(el)                           ...      0.35313444 Eh    221.59 kcal/mol


Timings for individual modules:

Sum of individual times         ...    14289.515 sec (= 238.159 min)
GTO integral calculation        ...      112.487 sec (=   1.875 min)   0.8 %
SCF iterations                  ...     6666.860 sec (= 111.114 min)  46.7 %
SCF Gradient evaluation         ...     1837.058 sec (=  30.618 min)  12.9 %
Geometry relaxation             ...        9.477 sec (=   0.158 min)   0.1 %
Analytical frequency calculation...     5663.633 sec (=  94.394 min)  39.6 %
                             ****ORCA TERMINATED NORMALLY****
TOTAL RUN TIME: 0 days 3 hours 59 minutes 58 seconds 84 msec
