
                                 *****************
                                 * O   R   C   A *
                                 *****************

                                            #,                                       
                                            ###                                      
                                            ####                                     
                                            #####                                    
                                            ######                                   
                                           ########,                                 
                                     ,,################,,,,,                         
                               ,,#################################,,                 
                          ,,##########################################,,             
                       ,#########################################, ''#####,          
                    ,#############################################,,   '####,        
                  ,##################################################,,,,####,       
                ,###########''''           ''''###############################       
              ,#####''   ,,,,##########,,,,          '''####'''          '####       
            ,##' ,,,,###########################,,,                        '##       
           ' ,,###''''                  '''############,,,                           
         ,,##''                                '''############,,,,        ,,,,,,###''
      ,#''                                            '''#######################'''  
     '                                                          ''''####''''         
             ,#######,   #######,   ,#######,      ##                                
            ,#'     '#,  ##    ##  ,#'     '#,    #''#        ######   ,####,        
            ##       ##  ##   ,#'  ##            #'  '#       #        #'  '#        
            ##       ##  #######   ##           ,######,      #####,   #    #        
            '#,     ,#'  ##    ##  '#,     ,#' ,#      #,         ##   #,  ,#        
             '#######'   ##     ##  '#######'  #'      '#     #####' # '####'        



                  #######################################################
                  #                        -***-                        #
                  #          Department of theory and spectroscopy      #
                  #    Directorship and core code : Frank Neese         #
                  #        Max Planck Institute fuer Kohlenforschung    #
                  #                Kaiser Wilhelm Platz 1               #
                  #                 D-45470 Muelheim/Ruhr               #
                  #                      Germany                        #
                  #                                                     #
                  #                  All rights reserved                #
                  #                        -***-                        #
                  #######################################################


                         Program Version 5.0.4 -  RELEASE  -


 With contributions from (in alphabetic order):
   Daniel Aravena         : Magnetic Suceptibility
   Michael Atanasov       : Ab Initio Ligand Field Theory (pilot matlab implementation)
   Alexander A. Auer      : GIAO ZORA, VPT2 properties, NMR spectrum
   Ute Becker             : Parallelization
   Giovanni Bistoni       : ED, misc. LED, open-shell LED, HFLD
   Martin Brehm           : Molecular dynamics
   Dmytro Bykov           : SCF Hessian
   Vijay G. Chilkuri      : MRCI spin determinant printing, contributions to CSF-ICE
   Dipayan Datta          : RHF DLPNO-CCSD density
   Achintya Kumar Dutta   : EOM-CC, STEOM-CC
   Dmitry Ganyushin       : Spin-Orbit,Spin-Spin,Magnetic field MRCI
   Miquel Garcia          : C-PCM and meta-GGA Hessian, CC/C-PCM, Gaussian charge scheme
   Yang Guo               : DLPNO-NEVPT2, F12-NEVPT2, CIM, IAO-localization
   Andreas Hansen         : Spin unrestricted coupled pair/coupled cluster methods
   Benjamin Helmich-Paris : MC-RPA, TRAH-SCF, COSX integrals
   Lee Huntington         : MR-EOM, pCC
   Robert Izsak           : Overlap fitted RIJCOSX, COSX-SCS-MP3, EOM
   Marcus Kettner         : VPT2
   Christian Kollmar      : KDIIS, OOCD, Brueckner-CCSD(T), CCSD density, CASPT2, CASPT2-K
   Simone Kossmann        : Meta GGA functionals, TD-DFT gradient, OOMP2, MP2 Hessian
   Martin Krupicka        : Initial AUTO-CI
   Lucas Lang             : DCDCAS
   Marvin Lechner         : AUTO-CI (C++ implementation), FIC-MRCC
   Dagmar Lenk            : GEPOL surface, SMD
   Dimitrios Liakos       : Extrapolation schemes; Compound Job, initial MDCI parallelization
   Dimitrios Manganas     : Further ROCIS development; embedding schemes
   Dimitrios Pantazis     : SARC Basis sets
   Anastasios Papadopoulos: AUTO-CI, single reference methods and gradients
   Taras Petrenko         : DFT Hessian,TD-DFT gradient, ASA, ECA, R-Raman, ABS, FL, XAS/XES, NRVS
   Peter Pinski           : DLPNO-MP2, DLPNO-MP2 Gradient
   Christoph Reimann      : Effective Core Potentials
   Marius Retegan         : Local ZFS, SOC
   Christoph Riplinger    : Optimizer, TS searches, QM/MM, DLPNO-CCSD(T), (RO)-DLPNO pert. Triples
   Tobias Risthaus        : Range-separated hybrids, TD-DFT gradient, RPA, STAB
   Michael Roemelt        : Original ROCIS implementation
   Masaaki Saitow         : Open-shell DLPNO-CCSD energy and density
   Barbara Sandhoefer     : DKH picture change effects
   Avijit Sen             : IP-ROCIS
   Kantharuban Sivalingam : CASSCF convergence, NEVPT2, FIC-MRCI
   Bernardo de Souza      : ESD, SOC TD-DFT
   Georgi Stoychev        : AutoAux, RI-MP2 NMR, DLPNO-MP2 response
   Willem Van den Heuvel  : Paramagnetic NMR
   Boris Wezisla          : Elementary symmetry handling
   Frank Wennmohs         : Technical directorship


 We gratefully acknowledge several colleagues who have allowed us to
 interface, adapt or use parts of their codes:
   Stefan Grimme, W. Hujo, H. Kruse, P. Pracht,  : VdW corrections, initial TS optimization,
                  C. Bannwarth, S. Ehlert          DFT functionals, gCP, sTDA/sTD-DF
   Ed Valeev, F. Pavosevic, A. Kumar             : LibInt (2-el integral package), F12 methods
   Garnet Chan, S. Sharma, J. Yang, R. Olivares  : DMRG
   Ulf Ekstrom                                   : XCFun DFT Library
   Mihaly Kallay                                 : mrcc  (arbitrary order and MRCC methods)
   Jiri Pittner, Ondrej Demel                    : Mk-CCSD
   Frank Weinhold                                : gennbo (NPA and NBO analysis)
   Christopher J. Cramer and Donald G. Truhlar   : smd solvation model
   Lars Goerigk                                  : TD-DFT with DH, B97 family of functionals
   V. Asgeirsson, H. Jonsson                     : NEB implementation
   FAccTs GmbH                                   : IRC, NEB, NEB-TS, DLPNO-Multilevel, CI-OPT
                                                   MM, QMMM, 2- and 3-layer-ONIOM, Crystal-QMMM,
                                                   LR-CPCM, SF, NACMEs, symmetry and pop. for TD-DFT,
                                                   nearIR, NL-DFT gradient (VV10), updates on ESD,
                                                   ML-optimized integration grids
   S Lehtola, MJT Oliveira, MAL Marques          : LibXC Library
   Liviu Ungur et al                             : ANISO software


 Your calculation uses the libint2 library for the computation of 2-el integrals
 For citations please refer to: http://libint.valeyev.net

 Your ORCA version has been built with support for libXC version: 5.1.0
 For citations please refer to: https://tddft.org/programs/libxc/

 This ORCA versions uses:
   CBLAS   interface :  Fast vector & matrix operations
   LAPACKE interface :  Fast linear algebra routines
   SCALAPACK package :  Parallel linear algebra routines
   Shared memory     :  Shared parallel matrices
   BLAS/LAPACK       :  OpenBLAS 0.3.15  USE64BITINT DYNAMIC_ARCH NO_AFFINITY Haswell SINGLE_THREADED
        Core in use  :  Haswell
   Copyright (c) 2011-2014, The OpenBLAS Project


Your calculation utilizes the atom-pairwise dispersion correction
with the Becke-Johnson damping scheme (D3BJ)
Cite in your paper:
S.Grimme, S.Ehrlich, L.Goerigk, J Comput Chem, (2011), 32, 1456–1465 
S.Grimme, J.Antony, S.Ehrlich and H.Krieg, J.Chem.Phys., 132, (2010), 154104 
   

================================================================================

----- Orbital basis set information -----
Your calculation utilizes the basis: def2-TZVP
   F. Weigend and R. Ahlrichs, Phys. Chem. Chem. Phys. 7, 3297 (2005).

----- AuxJ basis set information -----
Your calculation utilizes the auxiliary basis: def2/J
   F. Weigend, Phys. Chem. Chem. Phys. 8, 1057 (2006).

================================================================================
                                        WARNINGS
                       Please study these warnings very carefully!
================================================================================


WARNING: Geometry Optimization
  ===> : Switching off AutoStart
         For restart on a previous wavefunction, please use MOREAD

INFO   : the flag for use of the SHARK integral package has been found!

================================================================================
                                       INPUT FILE
================================================================================
NAME = TS2_Me/TS2_Me.inp
|  1> %pal nprocs 24 end
|  2> %maxcore 3500
|  3> ! PBE0 D3BJ def2-TZVP TightSCF OPTTS FREQ TightOpt
|  4> ! CPCM(dmso)
|  5> %scf
|  6> MaxIter 800
|  7> end
|  8> %geom
|  9> calc_hess True
| 10> MaxIter 800
| 11> MaxStep 0.2
| 12> end
| 13> *xyz 0 1
| 14> C       -2.914969536     -2.943513004      0.380367495
| 15> C       -2.647945583     -2.151209757      1.486612888
| 16> C       -1.459443042     -1.447178421      1.525672304
| 17> N       -0.580434810     -1.508345934      0.531181285
| 18> C       -0.825385854     -2.261968792     -0.536204497
| 19> C       -1.985953608     -3.004855673     -0.646402358
| 20> C        1.016857684     -0.354888338      0.718633743
| 21> C        1.961748645     -1.481883647      0.461292866
| 22> O        2.312611517     -2.269189642      1.304875141
| 23> O        2.333341340     -1.525508340     -0.810899765
| 24> C        3.260724699     -2.557634284     -1.159200608
| 25> H       -3.838427935     -3.507043511      0.319374468
| 26> H       -1.204819074     -0.809007322      2.364721148
| 27> H       -0.074564604     -2.262604252     -1.318123431
| 28> H       -2.154222135     -3.610196683     -1.527595913
| 29> H        0.736678727     -0.207820854      1.747813876
| 30> H        4.186143884     -2.434941053     -0.596451893
| 31> H        3.443706267     -2.440041996     -2.223825244
| 32> C        1.734725162      1.565387175     -0.651046375
| 33> C        0.600459731      0.643976814     -0.345225840
| 34> C       -0.639825686      1.406588155      0.074669723
| 35> C       -0.601885326      2.245607147      1.178426239
| 36> C       -1.728353572      2.934853645      1.604592115
| 37> C       -2.914506952      2.786658388      0.903091286
| 38> C       -2.977165899      1.963685108     -0.212758021
| 39> C       -1.841820184      1.274791098     -0.632843864
| 40> O       -1.823896004      0.457654813     -1.708173030
| 41> C       -3.038871933      0.213964623     -2.388853015
| 42> N        2.732917984      1.522520405      0.178209879
| 43> O        3.776333693      2.233600188      0.139689642
| 44> H        0.368282694      0.092909790     -1.258221044
| 45> H        0.334543437      2.355904925      1.716767035
| 46> H       -1.677668828      3.581069740      2.472592797
| 47> H       -3.806253914      3.316145204      1.219218414
| 48> H       -3.910279364      1.861231320     -0.750182661
| 49> H       -3.437324796      1.131638224     -2.830745252
| 50> H       -3.785051563     -0.221820164     -1.718347692
| 51> H       -2.802907521     -0.495999174     -3.178970853
| 52> O        2.650853748      0.633552272      1.165629822
| 53> H        2.830230096     -3.537144208     -0.950728726
| 54> C        1.705669471      2.501332996     -1.794840789
| 55> H        1.137372977      3.449180011     -1.537184865
| 56> H        2.758132677      2.777483200     -2.078994734
| 57> H        1.183520768      2.008915589     -2.666747433
| 58> H       -3.346585530     -2.072026131      2.309260339
| 59> *
| 60> 
| 61>                          ****END OF INPUT****
================================================================================

                       *****************************
                       * Geometry Optimization Run *
                       *****************************

Geometry optimization settings:
Update method            Update   .... Bofill
Choice of coordinates    CoordSys .... Z-matrix Internals
Initial Hessian          InHess   .... Almoef's Model

Convergence Tolerances:
Energy Change            TolE     ....  1.0000e-06 Eh
Max. Gradient            TolMAXG  ....  1.0000e-04 Eh/bohr
RMS Gradient             TolRMSG  ....  3.0000e-05 Eh/bohr
Max. Displacement        TolMAXD  ....  1.0000e-03 bohr
RMS Displacement         TolRMSD  ....  6.0000e-04 bohr
Strict Convergence                ....  False
------------------------------------------------------------------------------
                        ORCA OPTIMIZATION COORDINATE SETUP
------------------------------------------------------------------------------

The optimization will be done in new redundant internal coordinates
Making redundant internal coordinates   ...  (new redundants) done
Following TS mode number                ...     0
Evaluating the initial hessian          ...  (Is done on the fly) done
Evaluating the coordinates              ...  done
Calculating the B-matrix                .... done
Calculating the G-matrix                .... done
Diagonalizing the G-matrix              .... done
Small eigenvalue found = 4.583e-03
Small eigenvalue found = 1.189e-02
Small eigenvalue found = 1.731e-02
Small eigenvalue found = 2.430e-02
Small eigenvalue found = 2.818e-02
The first mode is                       ....  146
The number of degrees of freedom        ....  129

    -----------------------------------------------------------------
                    Redundant Internal Coordinates


    -----------------------------------------------------------------
         Definition                    Initial Value    d2E/dq (diagonal element)
    -----------------------------------------------------------------
      1. B(C   1,C   0)                  1.3867         0.000000   
      2. B(C   2,C   1)                  1.3819         0.000000   
      3. B(N   3,C   2)                  1.3287         0.000000   
      4. B(C   4,N   3)                  1.3294         0.000000   
      5. B(C   5,C   0)                  1.3860         0.000000   
      6. B(C   5,C   4)                  1.3824         0.000000   
      7. B(C   6,N   3)                  1.9791         0.000000   
      8. B(C   7,C   6)                  1.4930         0.000000   
      9. B(C   7,N   3)                  2.5433         0.000000   
     10. B(O   8,C   7)                  1.2061         0.000000   
     11. B(O   9,C   7)                  1.3261         0.000000   
     12. B(C  10,O   9)                  1.4306         0.000000   
     13. B(H  11,C   0)                  1.0835         0.000000   
     14. B(H  12,C   2)                  1.0845         0.000000   
     15. B(H  13,C   4)                  1.0840         0.000000   
     16. B(H  13,O   9)                  2.5688         0.000000   
     17. B(H  14,C   5)                  1.0822         0.000000   
     18. B(H  15,C   6)                  1.0767         0.000000   
     19. B(H  15,N   3)                  2.2150         0.000000   
     20. B(H  15,C   2)                  2.5315         0.000000   
     21. B(H  15,H  12)                  2.1240         0.000000   
     22. B(H  16,C  10)                  1.0900         0.000000   
     23. B(H  17,C  10)                  1.0866         0.000000   
     24. B(C  19,C  18)                  1.4930         0.000000   
     25. B(C  19,C   6)                  1.5175         0.000000   
     26. B(C  20,C  19)                  1.5153         0.000000   
     27. B(C  21,C  20)                  1.3870         0.000000   
     28. B(C  22,C  21)                  1.3877         0.000000   
     29. B(C  23,C  22)                  1.3860         0.000000   
     30. B(C  24,C  23)                  1.3879         0.000000   
     31. B(C  25,C  24)                  1.3929         0.000000   
     32. B(C  25,C  20)                  1.4010         0.000000   
     33. B(O  26,C  25)                  1.3507         0.000000   
     34. B(C  27,O  26)                  1.4138         0.000000   
     35. B(N  28,C  18)                  1.2984         0.000000   
     36. B(O  29,N  28)                  1.2633         0.000000   
     37. B(H  30,C  19)                  1.0914         0.000000   
     38. B(H  30,H  13)                  2.3975         0.000000   
     39. B(H  31,C  21)                  1.0858         0.000000   
     40. B(H  32,C  22)                  1.0833         0.000000   
     41. B(H  33,C  23)                  1.0842         0.000000   
     42. B(H  34,C  24)                  1.0817         0.000000   
     43. B(H  35,C  27)                  1.0937         0.000000   
     44. B(H  36,H  11)                  3.8662         0.000000   
     45. B(H  36,C  27)                  1.0937         0.000000   
     46. B(H  37,C  27)                  1.0881         0.000000   
     47. B(O  38,N  28)                  1.3312         0.000000   
     48. B(O  38,C   6)                  1.9613         0.000000   
     49. B(H  39,C  10)                  1.0901         0.000000   
     50. B(C  40,C  18)                  1.4782         0.000000   
     51. B(H  41,C  40)                  1.1348         0.000000   
     52. B(H  42,C  40)                  1.1246         0.000000   
     53. B(H  43,C  40)                  1.1293         0.000000   
     54. B(H  44,C   1)                  1.0822         0.000000   
     55. A(C   5,C   0,H  11)          120.4327         0.000000   
     56. A(C   1,C   0,C   5)          119.1572         0.000000   
     57. A(C   1,C   0,H  11)          120.4101         0.000000   
     58. A(C   0,C   1,H  44)          121.5969         0.000000   
     59. A(C   2,C   1,H  44)          119.7661         0.000000   
     60. A(C   0,C   1,C   2)          118.6366         0.000000   
     61. A(C   1,C   2,H  12)          121.5732         0.000000   
     62. A(C   1,C   2,N   3)          121.6249         0.000000   
     63. A(N   3,C   2,H  12)          116.7982         0.000000   
     64. A(C   2,N   3,C   6)          115.8619         0.000000   
     65. A(C   6,N   3,C   7)           35.8863         0.000000   
     66. A(C   2,N   3,C   4)          120.3422         0.000000   
     67. A(C   4,N   3,C   7)           99.6724         0.000000   
     68. A(C   4,N   3,C   6)          123.7211         0.000000   
     69. A(C   2,N   3,C   7)          132.9504         0.000000   
     70. A(N   3,C   4,H  13)          116.8631         0.000000   
     71. A(C   5,C   4,H  13)          121.5789         0.000000   
     72. A(N   3,C   4,C   5)          121.5574         0.000000   
     73. A(C   0,C   5,C   4)          118.6780         0.000000   
     74. A(C   0,C   5,H  14)          121.5820         0.000000   
     75. A(C   4,C   5,H  14)          119.7378         0.000000   
     76. A(C   7,C   6,O  38)           83.8257         0.000000   
     77. A(N   3,C   6,C  19)           95.4953         0.000000   
     78. A(N   3,C   6,C   7)           93.1250         0.000000   
     79. A(H  15,C   6,C  19)          120.5828         0.000000   
     80. A(C   7,C   6,C  19)          123.3439         0.000000   
     81. A(C  19,C   6,O  38)           93.2476         0.000000   
     82. A(N   3,C   6,H  15)           87.7148         0.000000   
     83. A(C   7,C   6,H  15)          115.6282         0.000000   
     84. A(N   3,C   6,O  38)          170.9980         0.000000   
     85. A(H  15,C   6,O  38)           85.9923         0.000000   
     86. A(C   6,C   7,O   8)          123.8004         0.000000   
     87. A(N   3,C   7,O   8)          105.3537         0.000000   
     88. A(N   3,C   7,C   6)           50.9887         0.000000   
     89. A(O   8,C   7,O   9)          124.6135         0.000000   
     90. A(N   3,C   7,O   9)          107.8256         0.000000   
     91. A(C   6,C   7,O   9)          111.5635         0.000000   
     92. A(C   7,O   9,C  10)          116.0374         0.000000   
     93. A(H  16,C  10,H  39)          109.7368         0.000000   
     94. A(H  16,C  10,H  17)          110.5288         0.000000   
     95. A(O   9,C  10,H  17)          105.6418         0.000000   
     96. A(O   9,C  10,H  16)          110.0874         0.000000   
     97. A(H  17,C  10,H  39)          110.5562         0.000000   
     98. A(O   9,C  10,H  39)          110.2258         0.000000   
     99. A(C  19,C  18,N  28)          115.6489         0.000000   
    100. A(N  28,C  18,C  40)          122.0186         0.000000   
    101. A(C  19,C  18,C  40)          122.2976         0.000000   
    102. A(C  18,C  19,C  20)          111.5920         0.000000   
    103. A(C   6,C  19,C  20)          111.1977         0.000000   
    104. A(C   6,C  19,C  18)          109.9595         0.000000   
    105. A(C  20,C  19,H  30)          108.1673         0.000000   
    106. A(C  18,C  19,H  30)          107.5703         0.000000   
    107. A(C   6,C  19,H  30)          108.2086         0.000000   
    108. A(C  19,C  20,C  21)          120.1702         0.000000   
    109. A(C  21,C  20,C  25)          118.8340         0.000000   
    110. A(C  19,C  20,C  25)          120.9948         0.000000   
    111. A(C  20,C  21,C  22)          121.5110         0.000000   
    112. A(C  22,C  21,H  31)          119.8279         0.000000   
    113. A(C  20,C  21,H  31)          118.6607         0.000000   
    114. A(C  21,C  22,C  23)          119.0894         0.000000   
    115. A(C  23,C  22,H  32)          120.6206         0.000000   
    116. A(C  21,C  22,H  32)          120.2898         0.000000   
    117. A(C  22,C  23,C  24)          120.5938         0.000000   
    118. A(C  24,C  23,H  33)          119.1345         0.000000   
    119. A(C  22,C  23,H  33)          120.2714         0.000000   
    120. A(C  25,C  24,H  34)          120.4291         0.000000   
    121. A(C  23,C  24,H  34)          119.6405         0.000000   
    122. A(C  23,C  24,C  25)          119.9303         0.000000   
    123. A(C  24,C  25,O  26)          123.3770         0.000000   
    124. A(C  20,C  25,O  26)          116.5889         0.000000   
    125. A(C  20,C  25,C  24)          120.0335         0.000000   
    126. A(C  25,O  26,C  27)          118.4355         0.000000   
    127. A(H  36,C  27,H  37)          109.4585         0.000000   
    128. A(H  35,C  27,H  37)          109.4558         0.000000   
    129. A(O  26,C  27,H  37)          106.0037         0.000000   
    130. A(H  35,C  27,H  36)          109.4785         0.000000   
    131. A(O  26,C  27,H  36)          111.0883         0.000000   
    132. A(O  26,C  27,H  35)          111.2834         0.000000   
    133. A(O  29,N  28,O  38)          116.7080         0.000000   
    134. A(C  18,N  28,O  38)          116.6410         0.000000   
    135. A(C  18,N  28,O  29)          126.6501         0.000000   
    136. A(C   6,O  38,N  28)          102.6422         0.000000   
    137. A(H  42,C  40,H  43)          110.1635         0.000000   
    138. A(H  41,C  40,H  43)          107.9360         0.000000   
    139. A(C  18,C  40,H  43)          109.2939         0.000000   
    140. A(H  41,C  40,H  42)          108.7199         0.000000   
    141. A(C  18,C  40,H  42)          109.4264         0.000000   
    142. A(C  18,C  40,H  41)          111.2853         0.000000   
    143. D(C   2,C   1,C   0,H  11)   -179.9428         0.000000   
    144. D(H  44,C   1,C   0,H  11)     -0.1567         0.000000   
    145. D(H  44,C   1,C   0,C   5)    179.8135         0.000000   
    146. D(C   2,C   1,C   0,C   5)      0.0274         0.000000   
    147. D(N   3,C   2,C   1,C   0)      0.3712         0.000000   
    148. D(H  12,C   2,C   1,C   0)    179.6457         0.000000   
    149. D(N   3,C   2,C   1,H  44)   -179.4189         0.000000   
    150. D(H  12,C   2,C   1,H  44)     -0.1444         0.000000   
    151. D(C   7,N   3,C   2,H  12)     36.2699         0.000000   
    152. D(C   6,N   3,C   2,C   1)    176.7311         0.000000   
    153. D(C   4,N   3,C   2,H  12)   -179.5489         0.000000   
    154. D(C   6,N   3,C   2,H  12)     -2.5764         0.000000   
    155. D(C   4,N   3,C   2,C   1)     -0.2414         0.000000   
    156. D(C   7,N   3,C   2,C   1)   -144.4225         0.000000   
    157. D(C   5,C   4,N   3,C   2)     -0.2963         0.000000   
    158. D(C   5,C   4,N   3,C   6)   -177.0207         0.000000   
    159. D(H  13,C   4,N   3,C   6)      2.6832         0.000000   
    160. D(H  13,C   4,N   3,C   7)    -26.3477         0.000000   
    161. D(C   5,C   4,N   3,C   7)    153.9484         0.000000   
    162. D(H  13,C   4,N   3,C   2)    179.4076         0.000000   
    163. D(H  14,C   5,C   0,C   1)   -179.9841         0.000000   
    164. D(C   0,C   5,C   4,N   3)      0.6812         0.000000   
    165. D(H  14,C   5,C   0,H  11)     -0.0140         0.000000   
    166. D(H  14,C   5,C   4,H  13)      0.4549         0.000000   
    167. D(H  14,C   5,C   4,N   3)   -179.8552         0.000000   
    168. D(C   4,C   5,C   0,H  11)    179.4393         0.000000   
    169. D(C   4,C   5,C   0,C   1)     -0.5309         0.000000   
    170. D(C   0,C   5,C   4,H  13)   -179.0087         0.000000   
    171. D(H  15,C   6,N   3,C   2)     12.8921         0.000000   
    172. D(C   7,C   6,N   3,C   4)    -54.6967         0.000000   
    173. D(C   7,C   6,N   3,C   2)    128.4447         0.000000   
    174. D(O  38,C   6,N   3,C   2)     58.5515         0.000000   
    175. D(O  38,C   6,N   3,C   4)   -124.5899         0.000000   
    176. D(C  19,C   6,N   3,C   7)    123.9366         0.000000   
    177. D(C  19,C   6,N   3,C   4)     69.2399         0.000000   
    178. D(C  19,C   6,N   3,C   2)   -107.6187         0.000000   
    179. D(H  15,C   6,N   3,C   7)   -115.5527         0.000000   
    180. D(H  15,C   6,N   3,C   4)   -170.2494         0.000000   
    181. D(O  38,C   6,N   3,C   7)    -69.8932         0.000000   
    182. D(N   3,C   7,C   6,O  38)    171.5011         0.000000   
    183. D(N   3,C   7,C   6,C  19)    -98.6691         0.000000   
    184. D(N   3,C   7,C   6,H  15)     88.9630         0.000000   
    185. D(O   9,C   7,C   6,O  38)    -92.5601         0.000000   
    186. D(O   9,C   7,C   6,C  19)     -2.7302         0.000000   
    187. D(O   9,C   7,C   6,H  15)   -175.0982         0.000000   
    188. D(O   8,C   7,C   6,N   3)    -82.3998         0.000000   
    189. D(O   8,C   7,C   6,O  38)     89.1013         0.000000   
    190. D(O   8,C   7,C   6,C  19)    178.9312         0.000000   
    191. D(O   8,C   7,C   6,H  15)      6.5632         0.000000   
    192. D(O   9,C   7,N   3,C   6)   -103.6716         0.000000   
    193. D(O   9,C   7,N   3,C   4)     32.8104         0.000000   
    194. D(O   9,C   7,N   3,C   2)   -178.0098         0.000000   
    195. D(O   8,C   7,N   3,C   6)    121.3322         0.000000   
    196. D(O   9,C   7,C   6,N   3)     95.9388         0.000000   
    197. D(O   8,C   7,N   3,C   4)   -102.1858         0.000000   
    198. D(O   8,C   7,N   3,C   2)     46.9940         0.000000   
    199. D(C   6,C   7,N   3,C   4)    136.4820         0.000000   
    200. D(C   6,C   7,N   3,C   2)    -74.3382         0.000000   
    201. D(C  10,O   9,C   7,N   3)   -126.8323         0.000000   
    202. D(C  10,O   9,C   7,O   8)     -2.7844         0.000000   
    203. D(C  10,O   9,C   7,C   6)    178.8931         0.000000   
    204. D(H  17,C  10,O   9,C   7)    179.8637         0.000000   
    205. D(H  16,C  10,O   9,C   7)    -60.7862         0.000000   
    206. D(H  39,C  10,O   9,C   7)     60.4080         0.000000   
    207. D(H  30,C  19,C  18,C  40)     52.2753         0.000000   
    208. D(H  30,C  19,C  18,N  28)   -129.8314         0.000000   
    209. D(C  20,C  19,C  18,C  40)    -66.2177         0.000000   
    210. D(C   6,C  19,C  18,C  40)    169.9023         0.000000   
    211. D(C   6,C  19,C  18,N  28)    -12.2044         0.000000   
    212. D(H  30,C  19,C   6,N   3)    -52.5381         0.000000   
    213. D(H  30,C  19,C   6,O  38)    129.6088         0.000000   
    214. D(H  30,C  19,C   6,H  15)   -143.1298         0.000000   
    215. D(H  30,C  19,C   6,C   7)     44.8656         0.000000   
    216. D(C  20,C  19,C   6,N   3)     66.1228         0.000000   
    217. D(C  20,C  19,C   6,O  38)   -111.7302         0.000000   
    218. D(C  20,C  19,C   6,H  15)    -24.4689         0.000000   
    219. D(C  20,C  19,C   6,C   7)    163.5265         0.000000   
    220. D(C  20,C  19,C  18,N  28)    111.6756         0.000000   
    221. D(C  18,C  19,C   6,N   3)   -169.7680         0.000000   
    222. D(C  18,C  19,C   6,O  38)     12.3789         0.000000   
    223. D(C  18,C  19,C   6,H  15)     99.6403         0.000000   
    224. D(C  18,C  19,C   6,C   7)    -72.3644         0.000000   
    225. D(C  25,C  20,C  19,H  30)      3.4031         0.000000   
    226. D(C  25,C  20,C  19,C  18)    121.5389         0.000000   
    227. D(C  25,C  20,C  19,C   6)   -115.2827         0.000000   
    228. D(C  21,C  20,C  19,H  30)   -176.9672         0.000000   
    229. D(C  21,C  20,C  19,C  18)    -58.8314         0.000000   
    230. D(C  21,C  20,C  19,C   6)     64.3471         0.000000   
    231. D(H  31,C  21,C  20,C  25)   -179.1942         0.000000   
    232. D(H  31,C  21,C  20,C  19)      1.1681         0.000000   
    233. D(C  22,C  21,C  20,C  25)      1.0400         0.000000   
    234. D(C  22,C  21,C  20,C  19)   -178.5977         0.000000   
    235. D(H  32,C  22,C  21,H  31)     -0.0884         0.000000   
    236. D(H  32,C  22,C  21,C  20)    179.6747         0.000000   
    237. D(C  23,C  22,C  21,H  31)    179.7628         0.000000   
    238. D(C  23,C  22,C  21,C  20)     -0.4740         0.000000   
    239. D(H  33,C  23,C  22,H  32)     -0.1494         0.000000   
    240. D(H  33,C  23,C  22,C  21)    179.9998         0.000000   
    241. D(C  24,C  23,C  22,H  32)    179.6835         0.000000   
    242. D(C  24,C  23,C  22,C  21)     -0.1673         0.000000   
    243. D(H  34,C  24,C  23,H  33)     -0.0132         0.000000   
    244. D(H  34,C  24,C  23,C  22)   -179.8480         0.000000   
    245. D(C  25,C  24,C  23,H  33)   -179.9464         0.000000   
    246. D(C  25,C  24,C  23,C  22)      0.2188         0.000000   
    247. D(O  26,C  25,C  24,H  34)      0.1288         0.000000   
    248. D(O  26,C  25,C  24,C  23)   -179.9386         0.000000   
    249. D(C  20,C  25,C  24,H  34)   -179.5731         0.000000   
    250. D(C  20,C  25,C  24,C  23)      0.3595         0.000000   
    251. D(O  26,C  25,C  20,C  21)    179.3046         0.000000   
    252. D(O  26,C  25,C  20,C  19)     -1.0608         0.000000   
    253. D(C  24,C  25,C  20,C  21)     -0.9738         0.000000   
    254. D(C  24,C  25,C  20,C  19)    178.6608         0.000000   
    255. D(C  27,O  26,C  25,C  24)     -4.5685         0.000000   
    256. D(C  27,O  26,C  25,C  20)    175.1429         0.000000   
    257. D(H  37,C  27,O  26,C  25)   -177.4241         0.000000   
    258. D(H  36,C  27,O  26,C  25)    -58.6057         0.000000   
    259. D(H  35,C  27,O  26,C  25)     63.6550         0.000000   
    260. D(O  38,N  28,C  18,C  40)   -179.6272         0.000000   
    261. D(O  38,N  28,C  18,C  19)      2.4731         0.000000   
    262. D(O  29,N  28,C  18,C  40)      0.0038         0.000000   
    263. D(O  29,N  28,C  18,C  19)   -177.8959         0.000000   
    264. D(C   6,O  38,N  28,O  29)   -173.7604         0.000000   
    265. D(C   6,O  38,N  28,C  18)      5.9082         0.000000   
    266. D(N  28,O  38,C   6,N   3)   -177.5847         0.000000   
    267. D(N  28,O  38,C   6,C  19)    -11.3723         0.000000   
    268. D(N  28,O  38,C   6,H  15)   -131.8282         0.000000   
    269. D(N  28,O  38,C   6,C   7)    111.8316         0.000000   
    270. D(H  43,C  40,C  18,N  28)    145.4315         0.000000   
    271. D(H  43,C  40,C  18,C  19)    -36.8084         0.000000   
    272. D(H  42,C  40,C  18,N  28)     24.7197         0.000000   
    273. D(H  42,C  40,C  18,C  19)   -157.5202         0.000000   
    274. D(H  41,C  40,C  18,N  28)    -95.4544         0.000000   
    275. D(H  41,C  40,C  18,C  19)     82.3057         0.000000   
    -----------------------------------------------------------------

Number of atoms                         .... 45
Number of degrees of freedom            .... 275

         *************************************************************
         *                GEOMETRY OPTIMIZATION CYCLE   1            *
         *************************************************************
---------------------------------
CARTESIAN COORDINATES (ANGSTROEM)
---------------------------------
  C     -2.914970   -2.943513    0.380367
  C     -2.647946   -2.151210    1.486613
  C     -1.459443   -1.447178    1.525672
  N     -0.580435   -1.508346    0.531181
  C     -0.825386   -2.261969   -0.536204
  C     -1.985954   -3.004856   -0.646402
  C      1.016858   -0.354888    0.718634
  C      1.961749   -1.481884    0.461293
  O      2.312612   -2.269190    1.304875
  O      2.333341   -1.525508   -0.810900
  C      3.260725   -2.557634   -1.159201
  H     -3.838428   -3.507044    0.319374
  H     -1.204819   -0.809007    2.364721
  H     -0.074565   -2.262604   -1.318123
  H     -2.154222   -3.610197   -1.527596
  H      0.736679   -0.207821    1.747814
  H      4.186144   -2.434941   -0.596452
  H      3.443706   -2.440042   -2.223825
  C      1.734725    1.565387   -0.651046
  C      0.600460    0.643977   -0.345226
  C     -0.639826    1.406588    0.074670
  C     -0.601885    2.245607    1.178426
  C     -1.728354    2.934854    1.604592
  C     -2.914507    2.786658    0.903091
  C     -2.977166    1.963685   -0.212758
  C     -1.841820    1.274791   -0.632844
  O     -1.823896    0.457655   -1.708173
  C     -3.038872    0.213965   -2.388853
  N      2.732918    1.522520    0.178210
  O      3.776334    2.233600    0.139690
  H      0.368283    0.092910   -1.258221
  H      0.334543    2.355905    1.716767
  H     -1.677669    3.581070    2.472593
  H     -3.806254    3.316145    1.219218
  H     -3.910279    1.861231   -0.750183
  H     -3.437325    1.131638   -2.830745
  H     -3.785052   -0.221820   -1.718348
  H     -2.802908   -0.495999   -3.178971
  O      2.650854    0.633552    1.165630
  H      2.830230   -3.537144   -0.950729
  C      1.705669    2.501333   -1.794841
  H      1.137373    3.449180   -1.537185
  H      2.758133    2.777483   -2.078995
  H      1.183521    2.008916   -2.666747
  H     -3.346586   -2.072026    2.309260

----------------------------
CARTESIAN COORDINATES (A.U.)
----------------------------
  NO LB      ZA    FRAG     MASS         X           Y           Z
   0 C     6.0000    0    12.011   -5.508494   -5.562433    0.718790
   1 C     6.0000    0    12.011   -5.003892   -4.065197    2.809291
   2 C     6.0000    0    12.011   -2.757948   -2.734771    2.883103
   3 N     7.0000    0    14.007   -1.096863   -2.850361    1.003787
   4 C     6.0000    0    12.011   -1.559753   -4.274502   -1.013280
   5 C     6.0000    0    12.011   -3.752908   -5.678354   -1.221523
   6 C     6.0000    0    12.011    1.921583   -0.670642    1.358021
   7 C     6.0000    0    12.011    3.707168   -2.800354    0.871717
   8 O     8.0000    0    15.999    4.370202   -4.288147    2.465857
   9 O     8.0000    0    15.999    4.409376   -2.882793   -1.532378
  10 C     6.0000    0    12.011    6.161877   -4.833228   -2.190572
  11 H     1.0000    0     1.008   -7.253578   -6.627352    0.603530
  12 H     1.0000    0     1.008   -2.276778   -1.528802    4.468675
  13 H     1.0000    0     1.008   -0.140907   -4.275702   -2.490892
  14 H     1.0000    0     1.008   -4.070890   -6.822283   -2.886738
  15 H     1.0000    0     1.008    1.392121   -0.392724    3.302890
  16 H     1.0000    0     1.008    7.910665   -4.601372   -1.127131
  17 H     1.0000    0     1.008    6.507662   -4.611011   -4.202421
  18 C     6.0000    0    12.011    3.278155    2.958153   -1.230299
  19 C     6.0000    0    12.011    1.134704    1.216940   -0.652382
  20 C     6.0000    0    12.011   -1.209095    2.658066    0.141105
  21 C     6.0000    0    12.011   -1.137398    4.243583    2.226903
  22 C     6.0000    0    12.011   -3.266115    5.546070    3.032240
  23 C     6.0000    0    12.011   -5.507620    5.266021    1.706595
  24 C     6.0000    0    12.011   -5.626028    3.710827   -0.402054
  25 C     6.0000    0    12.011   -3.480536    2.409006   -1.195902
  26 O     8.0000    0    15.999   -3.446664    0.864842   -3.227979
  27 C     6.0000    0    12.011   -5.742636    0.404335   -4.514278
  28 N     7.0000    0    14.007    5.164467    2.877147    0.336768
  29 O     8.0000    0    15.999    7.136236    4.220893    0.263975
  30 H     1.0000    0     1.008    0.695953    0.175574   -2.377693
  31 H     1.0000    0     1.008    0.632195    4.452015    3.244220
  32 H     1.0000    0     1.008   -3.170335    6.767241    4.672523
  33 H     1.0000    0     1.008   -7.192777    6.266606    2.303989
  34 H     1.0000    0     1.008   -7.389357    3.517217   -1.417640
  35 H     1.0000    0     1.008   -6.495602    2.138486   -5.349333
  36 H     1.0000    0     1.008   -7.152711   -0.419179   -3.247207
  37 H     1.0000    0     1.008   -5.296728   -0.937303   -6.007384
  38 O     8.0000    0    15.999    5.009388    1.197240    2.202721
  39 H     1.0000    0     1.008    5.348360   -6.684234   -1.796617
  40 C     6.0000    0    12.011    3.223248    4.726834   -3.391758
  41 H     1.0000    0     1.008    2.149323    6.518006   -2.904858
  42 H     1.0000    0     1.008    5.212115    5.248683   -3.928731
  43 H     1.0000    0     1.008    2.236530    3.796300   -5.039422
  44 H     1.0000    0     1.008   -6.324130   -3.915562    4.363870

--------------------------------
INTERNAL COORDINATES (ANGSTROEM)
--------------------------------
 C      0   0   0     0.000000000000     0.00000000     0.00000000
 C      1   0   0     1.386659690125     0.00000000     0.00000000
 C      2   1   0     1.381927657300   118.63660134     0.00000000
 N      3   2   1     1.328687067538   121.62488035     0.37124328
 C      4   3   2     1.329383629233   120.34224171   359.75860138
 C      5   4   3     1.382368257070   121.55735455   359.70372103
 C      4   3   2     1.979127626296   115.86191377   176.73112500
 C      7   4   3     1.493037736182    93.12502315   128.44471776
 O      8   7   4     1.206062411074   123.80036155   277.60024162
 O      8   7   4     1.326068752059   111.56351255    95.93884031
 C     10   8   7     1.430607331193   116.03744213   178.89313124
 H      1   2   3     1.083541506517   120.41009867   180.05722633
 H      3   2   1     1.084480833992   121.57317785   179.64574709
 H      5   4   3     1.084034211918   116.86305383   179.40761759
 H      6   5   4     1.082244943134   119.73775444   180.14482775
 H      7   4   3     1.076726910111    87.71482000    12.89205414
 H     11  10   8     1.090018537977   110.08742770   299.21375921
 H     11  10   8     1.086616683105   105.64178994   179.86374485
 C      7   4   3     2.465525377570   129.51598399   244.85048691
 C     19   7   4     1.493010824123    35.34732307    13.25011054
 C     20  19   7     1.515320512919   111.59200006   123.88006087
 C     21  20  19     1.386964594525   120.17022891   301.16861938
 C     22  21  20     1.387663070820   121.51097264   181.40225832
 C     23  22  21     1.386010493528   119.08939493   359.52595162
 C     24  23  22     1.387923210832   120.59384944   359.83270778
 C     25  24  23     1.392859276837   119.93032681     0.21881127
 O     26  25  24     1.350690860168   123.37699537   180.06137485
 C     27  26  25     1.413816345475   118.43547875   355.43147996
 N     19   7   4     1.298419194506    80.98604182   182.12496723
 O     29  19   7     1.263263475383   126.65005520   174.99082464
 H     20  19   7     1.091394192754   107.57034055   242.37307844
 H     22  21  20     1.085760213235   118.66069561     1.16805968
 H     23  22  21     1.083323298311   120.28982571   179.67467115
 H     24  23  22     1.084207218945   120.27142093   179.99978503
 H     25  24  23     1.081675903827   119.64052010   180.15195859
 H     28  27  26     1.093690208023   111.28340573    63.65499624
 H     28  27  26     1.093741198355   111.08834183   301.39430532
 H     28  27  26     1.088124071376   106.00367795   182.57586120
 O     29  19   7     1.331163785623   116.64096473   355.35979939
 H     11  10   8     1.090057714074   110.22583055    60.40800161
 C     19   7   4     1.478209888522   156.53014118   351.40386186
 H     41  19   7     1.134795771983   111.28528469    97.06065830
 H     41  19   7     1.124580454931   109.42638203   217.23471488
 H     41  19   7     1.129307472132   109.29388981   337.94654315
 H      2   1   3     1.082181431557   121.59692685   179.78610552

---------------------------
INTERNAL COORDINATES (A.U.)
---------------------------
 C      0   0   0     0.000000000000     0.00000000     0.00000000
 C      1   0   0     2.620407055283     0.00000000     0.00000000
 C      2   1   0     2.611464809189   118.63660134     0.00000000
 N      3   2   1     2.510854675329   121.62488035     0.37124328
 C      4   3   2     2.512170986169   120.34224171   359.75860138
 C      5   4   3     2.612297422089   121.55735455   359.70372103
 C      4   3   2     3.740009197778   115.86191377   176.73112500
 C      7   4   3     2.821432428993    93.12502315   128.44471776
 O      8   7   4     2.279127657346   123.80036155   277.60024162
 O      8   7   4     2.505906776142   111.56351255    95.93884031
 C     10   8   7     2.703456061134   116.03744213   178.89313124
 H      1   2   3     2.047596702054   120.41009867   180.05722633
 H      3   2   1     2.049371773732   121.57317785   179.64574709
 H      5   4   3     2.048527780326   116.86305383   179.40761759
 H      6   5   4     2.045146552345   119.73775444   180.14482775
 H      7   4   3     2.034718981133    87.71482000    12.89205414
 H     11  10   8     2.059836517674   110.08742770   299.21375921
 H     11  10   8     2.053407943619   105.64178994   179.86374485
 C      7   4   3     4.659167739840   129.51598399   244.85048691
 C     19   7   4     2.821381572572    35.34732307    13.25011054
 C     20  19   7     2.863540774529   111.59200006   123.88006087
 C     21  20  19     2.620983241098   120.17022891   301.16861938
 C     22  21  20     2.622303170007   121.51097264   181.40225832
 C     23  22  21     2.619180251509   119.08939493   359.52595162
 C     24  23  22     2.622794763385   120.59384944   359.83270778
 C     25  24  23     2.632122576314   119.93032681     0.21881127
 O     26  25  24     2.552435817309   123.37699537   180.06137485
 C     27  26  25     2.671725696608   118.43547875   355.43147996
 N     19   7   4     2.453656684642    80.98604182   182.12496723
 O     29  19   7     2.387222003460   126.65005520   174.99082464
 H     20  19   7     2.062436128457   107.57034055   242.37307844
 H     22  21  20     2.051789450121   118.66069561     1.16805968
 H     23  22  21     2.047184348304   120.28982571   179.67467115
 H     24  23  22     2.048854716226   120.27142093   179.99978503
 H     25  24  23     2.044071223894   119.64052010   180.15195859
 H     28  27  26     2.066774968515   111.28340573    63.65499624
 H     28  27  26     2.066871326278   111.08834183   301.39430532
 H     28  27  26     2.056256494627   106.00367795   182.57586120
 O     29  19   7     2.515534994221   116.64096473   355.35979939
 H     11  10   8     2.059910549767   110.22583055    60.40800161
 C     19   7   4     2.793411857761   156.53014118   351.40386186
 H     41  19   7     2.144453226979   111.28528469    97.06065830
 H     41  19   7     2.125149075380   109.42638203   217.23471488
 H     41  19   7     2.134081843320   109.29388981   337.94654315
 H      2   1   3     2.045026532858   121.59692685   179.78610552

---------------------
BASIS SET INFORMATION
---------------------
There are 4 groups of distinct atoms

 Group   1 Type C   : 11s6p2d1f contracted to 5s3p2d1f pattern {62111/411/11/1}
 Group   2 Type N   : 11s6p2d1f contracted to 5s3p2d1f pattern {62111/411/11/1}
 Group   3 Type O   : 11s6p2d1f contracted to 5s3p2d1f pattern {62111/411/11/1}
 Group   4 Type H   : 5s1p contracted to 3s1p pattern {311/1}

Atom   0C    basis set group =>   1
Atom   1C    basis set group =>   1
Atom   2C    basis set group =>   1
Atom   3N    basis set group =>   2
Atom   4C    basis set group =>   1
Atom   5C    basis set group =>   1
Atom   6C    basis set group =>   1
Atom   7C    basis set group =>   1
Atom   8O    basis set group =>   3
Atom   9O    basis set group =>   3
Atom  10C    basis set group =>   1
Atom  11H    basis set group =>   4
Atom  12H    basis set group =>   4
Atom  13H    basis set group =>   4
Atom  14H    basis set group =>   4
Atom  15H    basis set group =>   4
Atom  16H    basis set group =>   4
Atom  17H    basis set group =>   4
Atom  18C    basis set group =>   1
Atom  19C    basis set group =>   1
Atom  20C    basis set group =>   1
Atom  21C    basis set group =>   1
Atom  22C    basis set group =>   1
Atom  23C    basis set group =>   1
Atom  24C    basis set group =>   1
Atom  25C    basis set group =>   1
Atom  26O    basis set group =>   3
Atom  27C    basis set group =>   1
Atom  28N    basis set group =>   2
Atom  29O    basis set group =>   3
Atom  30H    basis set group =>   4
Atom  31H    basis set group =>   4
Atom  32H    basis set group =>   4
Atom  33H    basis set group =>   4
Atom  34H    basis set group =>   4
Atom  35H    basis set group =>   4
Atom  36H    basis set group =>   4
Atom  37H    basis set group =>   4
Atom  38O    basis set group =>   3
Atom  39H    basis set group =>   4
Atom  40C    basis set group =>   1
Atom  41H    basis set group =>   4
Atom  42H    basis set group =>   4
Atom  43H    basis set group =>   4
Atom  44H    basis set group =>   4
---------------------------------
AUXILIARY/J BASIS SET INFORMATION
---------------------------------
There are 4 groups of distinct atoms

 Group   1 Type C   : 12s5p4d2f1g contracted to 6s4p3d1f1g pattern {711111/2111/211/2/1}
 Group   2 Type N   : 12s5p4d2f1g contracted to 6s4p3d1f1g pattern {711111/2111/211/2/1}
 Group   3 Type O   : 12s5p4d2f1g contracted to 6s4p3d1f1g pattern {711111/2111/211/2/1}
 Group   4 Type H   : 5s2p1d contracted to 3s1p1d pattern {311/2/1}

Atom   0C    basis set group =>   1
Atom   1C    basis set group =>   1
Atom   2C    basis set group =>   1
Atom   3N    basis set group =>   2
Atom   4C    basis set group =>   1
Atom   5C    basis set group =>   1
Atom   6C    basis set group =>   1
Atom   7C    basis set group =>   1
Atom   8O    basis set group =>   3
Atom   9O    basis set group =>   3
Atom  10C    basis set group =>   1
Atom  11H    basis set group =>   4
Atom  12H    basis set group =>   4
Atom  13H    basis set group =>   4
Atom  14H    basis set group =>   4
Atom  15H    basis set group =>   4
Atom  16H    basis set group =>   4
Atom  17H    basis set group =>   4
Atom  18C    basis set group =>   1
Atom  19C    basis set group =>   1
Atom  20C    basis set group =>   1
Atom  21C    basis set group =>   1
Atom  22C    basis set group =>   1
Atom  23C    basis set group =>   1
Atom  24C    basis set group =>   1
Atom  25C    basis set group =>   1
Atom  26O    basis set group =>   3
Atom  27C    basis set group =>   1
Atom  28N    basis set group =>   2
Atom  29O    basis set group =>   3
Atom  30H    basis set group =>   4
Atom  31H    basis set group =>   4
Atom  32H    basis set group =>   4
Atom  33H    basis set group =>   4
Atom  34H    basis set group =>   4
Atom  35H    basis set group =>   4
Atom  36H    basis set group =>   4
Atom  37H    basis set group =>   4
Atom  38O    basis set group =>   3
Atom  39H    basis set group =>   4
Atom  40C    basis set group =>   1
Atom  41H    basis set group =>   4
Atom  42H    basis set group =>   4
Atom  43H    basis set group =>   4
Atom  44H    basis set group =>   4


           ************************************************************
           *        Program running with 24 parallel MPI-processes    *
           *              working on a common directory               *
           ************************************************************
------------------------------------------------------------------------------
                           ORCA GTO INTEGRAL CALCULATION
                           -- RI-GTO INTEGRALS CHOSEN --
------------------------------------------------------------------------------
------------------------------------------------------------------------------
                   ___                                                        
                  /   \      - P O W E R E D   B Y -                         
                 /     \                                                     
                 |  |  |   _    _      __       _____    __    __             
                 |  |  |  | |  | |    /  \     |  _  \  |  |  /  |          
                  \  \/   | |  | |   /    \    | | | |  |  | /  /          
                 / \  \   | |__| |  /  /\  \   | |_| |  |  |/  /          
                |  |  |   |  __  | /  /__\  \  |    /   |      \           
                |  |  |   | |  | | |   __   |  |    \   |  |\   \          
                \     /   | |  | | |  |  |  |  | |\  \  |  | \   \       
                 \___/    |_|  |_| |__|  |__|  |_| \__\ |__|  \__/        
                                                                              
                      - O R C A' S   B I G   F R I E N D -                    
                                      &                                       
                       - I N T E G R A L  F E E D E R -                       
                                                                              
 v1 FN, 2020, v2 2021                                                         
------------------------------------------------------------------------------


Reading SHARK input file TS2_Me/TS2_Me.SHARKINP.tmp ... ok
----------------------
SHARK INTEGRAL PACKAGE
----------------------

Number of atoms                             ...     45
Number of basis functions                   ...    895
Number of shells                            ...    355
Maximum angular momentum                    ...      3
Integral batch strategy                     ... SHARK/LIBINT Hybrid
RI-J (if used) integral strategy            ... SPLIT-RIJ (Revised 2003 algorithm where possible)
Printlevel                                  ...      1
Contraction scheme used                     ... SEGMENTED contraction
Coulomb Range Separation                    ... NOT USED
Exchange Range Separation                   ... NOT USED
Finite Nucleus Model                        ... NOT USED
Auxiliary Coulomb fitting basis             ... AVAILABLE
   # of basis functions in Aux-J            ...   1445
   # of shells in Aux-J                     ...    475
   Maximum angular momentum in Aux-J        ...      4
Auxiliary J/K fitting basis                 ... NOT available
Auxiliary Correlation fitting basis         ... NOT available
Auxiliary 'external' fitting basis          ... NOT available
Integral threshold                          ...     2.500000e-11
Primitive cut-off                           ...     2.500000e-12
Primitive pair pre-selection threshold      ...     2.500000e-12

Calculating pre-screening integrals         ... done (  0.1 sec) Dimension = 355
Organizing shell pair data                  ... done (  0.6 sec)
Shell pair information
Total number of shell pairs                 ...     63190
Shell pairs after pre-screening             ...     46547
Total number of primitive shell pairs       ...    193120
Primitive shell pairs kept                  ...     93015
          la=0 lb=0:  12142 shell pairs
          la=1 lb=0:  13425 shell pairs
          la=1 lb=1:   3710 shell pairs
          la=2 lb=0:   6661 shell pairs
          la=2 lb=1:   3715 shell pairs
          la=2 lb=2:    944 shell pairs
          la=3 lb=0:   3067 shell pairs
          la=3 lb=1:   1781 shell pairs
          la=3 lb=2:    878 shell pairs
          la=3 lb=3:    224 shell pairs

Calculating one electron integrals          ... done (  0.1 sec)
Calculating RI/J V-Matrix + Cholesky decomp.... done (  0.2 sec)
Calculating Nuclear repulsion               ... done (  0.0 sec) ENN=   2386.175722470296 Eh

SHARK setup successfully completed in   1.8 seconds

Maximum memory used throughout the entire GTOINT-calculation: 69.3 MB


           ************************************************************
           *        Program running with 24 parallel MPI-processes    *
           *              working on a common directory               *
           ************************************************************
-------------------------------------------------------------------------------
                                 ORCA SCF
-------------------------------------------------------------------------------

------------
SCF SETTINGS
------------
Hamiltonian:
 Density Functional     Method          .... DFT(GTOs)
 Exchange Functional    Exchange        .... PBE
   PBE kappa parameter   XKappa         ....  0.804000
   PBE mue parameter    XMuePBE         ....  0.219520
 Correlation Functional Correlation     .... PBE
   PBE beta parameter  CBetaPBE         ....  0.066725
 LDA part of GGA corr.  LDAOpt          .... PW91-LDA
 Gradients option       PostSCFGGA      .... off
 Hybrid DFT is turned on
   Fraction HF Exchange ScalHFX         ....  0.250000
   Scaling of DF-GGA-X  ScalDFX         ....  0.750000
   Scaling of DF-GGA-C  ScalDFC         ....  1.000000
   Scaling of DF-LDA-C  ScalLDAC        ....  1.000000
   Perturbative correction              ....  0.000000
   Density functional embedding theory  .... OFF
   NL short-range parameter             ....  6.900000
 RI-approximation to the Coulomb term is turned on
   Number of AuxJ basis functions       .... 1445
   RIJ-COSX (HFX calculated with COS-X)).... on


General Settings:
 Integral files         IntName         .... TS2_Me/TS2_Me
 Hartree-Fock type      HFTyp           .... RHF
 Total Charge           Charge          ....    0
 Multiplicity           Mult            ....    1
 Number of Electrons    NEL             ....  182
 Basis Dimension        Dim             ....  895
 Nuclear Repulsion      ENuc            ....   2386.1757224703 Eh

Convergence Acceleration:
 DIIS                   CNVDIIS         .... on
   Start iteration      DIISMaxIt       ....    12
   Startup error        DIISStart       ....  0.200000
   # of expansion vecs  DIISMaxEq       ....     5
   Bias factor          DIISBfac        ....   1.050
   Max. coefficient     DIISMaxC        ....  10.000
 Trust-Rad. Augm. Hess. CNVTRAH         .... auto
   Auto Start mean grad. ratio tolernc. ....  1.125000
   Auto Start start iteration           ....    20
   Auto Start num. interpolation iter.  ....    10
   Max. Number of Micro iterations      ....    16
   Max. Number of Macro iterations      .... Maxiter - #DIIS iter
   Number of Davidson start vectors     ....     2
   Converg. threshold I  (grad. norm)   ....   1.000e-05
   Converg. threshold II (energy diff.) ....   1.000e-08
   Grad. Scal. Fac. for Micro threshold ....   0.100
   Minimum threshold for Micro iter.    ....   0.010
   NR start threshold (gradient norm)   ....   0.001
   Initial trust radius                 ....   0.400
   Minimum AH scaling param. (alpha)    ....   1.000
   Maximum AH scaling param. (alpha)    .... 1000.000
   Orbital update algorithm             .... Taylor
   White noise on init. David. guess    .... on
   Maximum white noise                  ....   0.010
   Quad. conv. algorithm                .... NR
 SOSCF                  CNVSOSCF        .... on
   Start iteration      SOSCFMaxIt      ....   150
   Startup grad/error   SOSCFStart      ....  0.003300
 Level Shifting         CNVShift        .... on
   Level shift para.    LevelShift      ....    0.2500
   Turn off err/grad.   ShiftErr        ....    0.0010
 Zerner damping         CNVZerner       .... off
 Static damping         CNVDamp         .... on
   Fraction old density DampFac         ....    0.7000
   Max. Damping (<1)    DampMax         ....    0.9800
   Min. Damping (>=0)   DampMin         ....    0.0000
   Turn off err/grad.   DampErr         ....    0.1000
 Fernandez-Rico         CNVRico         .... off

SCF Procedure:
 Maximum # iterations   MaxIter         ....   800
 SCF integral mode      SCFMode         .... Direct
   Integral package                     .... SHARK and LIBINT hybrid scheme
 Reset frequency        DirectResetFreq ....    20
 Integral Threshold     Thresh          ....  2.500e-11 Eh
 Primitive CutOff       TCut            ....  2.500e-12 Eh

Convergence Tolerance:
 Convergence Check Mode ConvCheckMode   .... Total+1el-Energy
 Convergence forced     ConvForced      .... 0
 Energy Change          TolE            ....  1.000e-08 Eh
 1-El. energy change                    ....  1.000e-05 Eh
 Orbital Gradient       TolG            ....  1.000e-05
 Orbital Rotation angle TolX            ....  1.000e-05
 DIIS Error             TolErr          ....  5.000e-07


Diagonalization of the overlap matrix:
Smallest eigenvalue                        ... 5.557e-06
Time for diagonalization                   ...    0.259 sec
Threshold for overlap eigenvalues          ... 1.000e-08
Number of eigenvalues below threshold      ... 0
Time for construction of square roots      ...    0.165 sec
Total time needed                          ...    0.431 sec

Time for model grid setup =    0.360 sec

------------------------------
INITIAL GUESS: MODEL POTENTIAL
------------------------------
Loading Hartree-Fock densities                     ... done
Calculating cut-offs                               ... done
Initializing the effective Hamiltonian             ... done
Setting up the integral package (SHARK)            ... done
Starting the Coulomb interaction                   ... done (   0.5 sec)
Reading the grid                                   ... done
Mapping shells                                     ... done
Starting the XC term evaluation                    ... done (   0.2 sec)
  promolecular density results
     # of electrons  =    181.994388762
     EX              =   -151.847525032
     EC              =     -6.142853440
     EX+EC           =   -157.990378473
Transforming the Hamiltonian                       ... done (   0.1 sec)
Diagonalizing the Hamiltonian                      ... done (   0.3 sec)
Back transforming the eigenvectors                 ... done (   0.1 sec)
Now organizing SCF variables                       ... done
                      ------------------
                      INITIAL GUESS DONE (   1.7 sec)
                      ------------------
-------------------
DFT GRID GENERATION
-------------------

General Integration Accuracy     IntAcc      ... 4.388
Radial Grid Type                 RadialGrid  ... OptM3 with GC (2021)
Angular Grid (max. ang.)         AngularGrid ... 4 (Lebedev-302)
Angular grid pruning method      GridPruning ... 4 (adaptive)
Weight generation scheme         WeightScheme... Becke
Basis function cutoff            BFCut       ... 1.0000e-11
Integration weight cutoff        WCut        ... 1.0000e-14
Angular grids for H and He will be reduced by one unit
Partially contracted basis set               ... off
Rotationally invariant grid construction     ... off

Total number of grid points                  ...   212480
Total number of batches                      ...     3341
Average number of points per batch           ...       63
Average number of grid points per atom       ...     4722
Time for grid setup =    1.447 sec

--------------------
COSX GRID GENERATION
--------------------

GRIDX 1
-------
General Integration Accuracy     IntAcc      ... 3.816
Radial Grid Type                 RadialGrid  ... OptM3 with GC (2021)
Angular Grid (max. ang.)         AngularGrid ... 1 (Lebedev-50)
Angular grid pruning method      GridPruning ... 4 (adaptive)
Weight generation scheme         WeightScheme... Becke
Basis function cutoff            BFCut       ... 1.0000e-11
Integration weight cutoff        WCut        ... 1.0000e-14
Angular grids for H and He will be reduced by one unit
Partially contracted basis set               ... on
Rotationally invariant grid construction     ... off

Total number of grid points                  ...    26948
Total number of batches                      ...      442
Average number of points per batch           ...       60
Average number of grid points per atom       ...      599
UseSFitting                                  ... on

GRIDX 2
-------
General Integration Accuracy     IntAcc      ... 4.020
Radial Grid Type                 RadialGrid  ... OptM3 with GC (2021)
Angular Grid (max. ang.)         AngularGrid ... 2 (Lebedev-110)
Angular grid pruning method      GridPruning ... 4 (adaptive)
Weight generation scheme         WeightScheme... Becke
Basis function cutoff            BFCut       ... 1.0000e-11
Integration weight cutoff        WCut        ... 1.0000e-14
Angular grids for H and He will be reduced by one unit
Partially contracted basis set               ... on
Rotationally invariant grid construction     ... off

Total number of grid points                  ...    58076
Total number of batches                      ...      930
Average number of points per batch           ...       62
Average number of grid points per atom       ...     1291
UseSFitting                                  ... on

GRIDX 3
-------
General Integration Accuracy     IntAcc      ... 4.338
Radial Grid Type                 RadialGrid  ... OptM3 with GC (2021)
Angular Grid (max. ang.)         AngularGrid ... 3 (Lebedev-194)
Angular grid pruning method      GridPruning ... 4 (adaptive)
Weight generation scheme         WeightScheme... Becke
Basis function cutoff            BFCut       ... 1.0000e-11
Integration weight cutoff        WCut        ... 1.0000e-14
Angular grids for H and He will be reduced by one unit
Partially contracted basis set               ... on
Rotationally invariant grid construction     ... off

Total number of grid points                  ...   126656
Total number of batches                      ...     2003
Average number of points per batch           ...       63
Average number of grid points per atom       ...     2815
UseSFitting                                  ... on

Time for X-Grid setup             =    2.670 sec


--------------------
CPCM SOLVATION MODEL
--------------------
CPCM parameters:
  Epsilon                                         ...      47.2000
  Refrac                                          ...       1.4790
  Rsolv                                           ...       1.3000
  Surface type                                    ... GAUSSIAN VDW
  Epsilon function type                           ...         CPCM
Radii:
 Radius for C  used is    3.8550 Bohr (=   2.0400 Ang.)
 Radius for N  used is    3.5149 Bohr (=   1.8600 Ang.)
 Radius for O  used is    3.4469 Bohr (=   1.8240 Ang.)
 Radius for H  used is    2.4944 Bohr (=   1.3200 Ang.)
Calculating surface                               ...        done! (  0.0s)
GEPOL surface points                              ...         2292
GEPOL Volume                                      ...    2690.6372
GEPOL Surface-area                                ...    1336.3928
Calculating surface distance matrix               ...        done! (  0.1s)
Performing Cholesky decomposition & store         ...        done! (  0.3s)
Overall time for CPCM initialization              ...                 0.4s
--------------
SCF ITERATIONS
--------------
ITER       Energy         Delta-E        Max-DP      RMS-DP      [F,P]     Damp
               ***  Starting incremental Fock matrix formation  ***
  0  -1181.9984529704   0.000000000000 0.45699746  0.00110678  0.2715357 0.7000
  1  -1182.2414968893  -0.243043918960 0.38234864  0.00098779  0.1093938 0.7000
                               ***Turning on DIIS***
  2  -1182.3408320931  -0.099335203766 0.43803091  0.00159245  0.0360881 0.0000
  3  -1182.5037166174  -0.162884524253 0.33115274  0.00081216  0.0515606 0.0000
  4  -1182.5330379280  -0.029321310597 0.03317563  0.00023008  0.0145960 0.0000
  5  -1182.5349241047  -0.001886176707 0.04085258  0.00010016  0.0065207 0.0000
                      *** Initiating the SOSCF procedure ***
                           *** Shutting down DIIS ***
                      *** Re-Reading the Fockian *** 
                      *** Removing any level shift *** 
ITER      Energy       Delta-E        Grad      Rot      Max-DP    RMS-DP
  6  -1182.53508413  -0.0001600222  0.000201  0.000201  0.007246  0.000024
               *** Restarting incremental Fock matrix formation ***
  7  -1182.53510522  -0.0000210966  0.000176  0.000757  0.002055  0.000021
  8  -1182.53510434   0.0000008844  0.000296  0.000453  0.001173  0.000006
  9  -1182.53510803  -0.0000036942  0.000067  0.000191  0.001147  0.000004
 10  -1182.53510772   0.0000003112  0.000084  0.000101  0.000499  0.000002
 11  -1182.53510817  -0.0000004519  0.000005  0.000017  0.000371  0.000002
 12  -1182.53510819  -0.0000000154  0.000008  0.000010  0.000527  0.000001
                  ***Gradient check signals convergence***
              ***Rediagonalizing the Fockian in SOSCF/NRSCF***

               *****************************************************
               *                     SUCCESS                       *
               *           SCF CONVERGED AFTER  13 CYCLES          *
               *****************************************************

Old exchange energy                            =    -38.692525419 Eh
New exchange energy                            =    -38.692532474 Eh
Exchange energy change after final integration =     -0.000007055 Eh
Total energy after final integration           =  -1182.535115218 Eh
Final COS-X integration done in                =    19.249 sec

----------------
TOTAL SCF ENERGY
----------------

Total Energy       :        -1182.53511522 Eh          -32178.41640 eV

Components:
Nuclear Repulsion  :         2386.17572247 Eh           64931.14244 eV
Electronic Energy  :        -3568.71083769 Eh          -97109.55885 eV
One Electron Energy:        -6357.53661854 Eh         -172997.36641 eV
Two Electron Energy:         2788.82578085 Eh           75887.80756 eV
Max COSX asymmetry :            0.00000257 Eh               0.00007 eV
CPCM Dielectric    :           -0.05736575 Eh              -1.56100 eV

Virial components:
Potential Energy   :        -2359.72987601 Eh          -64211.51438 eV
Kinetic Energy     :         1177.19476079 Eh           32033.09797 eV
Virial Ratio       :            2.00453651


DFT components:
N(Alpha)           :       91.000099148835 electrons
N(Beta)            :       91.000099148835 electrons
N(Total)           :      182.000198297671 electrons
E(X)               :     -115.889361068465 Eh       
E(C)               :       -6.137658014253 Eh       
E(XC)              :     -122.027019082719 Eh       
DFET-embed. en.    :        0.000000000000 Eh       
CPCM Solvation Model Properties:
Surface-charge          :           -0.03060264
Charge-correction       :           -0.00051396 Eh              -0.01399 eV
Free-energy (cav+disp)  :  This term is not implemented in the current solvation scheme

---------------
SCF CONVERGENCE
---------------

  Last Energy change         ...    2.6857e-08  Tolerance :   1.0000e-08
  Last MAX-Density change    ...    1.7764e-15  Tolerance :   1.0000e-07
  Last RMS-Density change    ...    1.2535e-17  Tolerance :   5.0000e-09
  Last Orbital Gradient      ...    1.8138e-06  Tolerance :   1.0000e-05
  Last Orbital Rotation      ...    5.2643e-06  Tolerance :   1.0000e-05

             **** THE GBW FILE WAS UPDATED (TS2_Me/TS2_Me.gbw) ****
             **** DENSITY TS2_Me/TS2_Me.scfp WAS UPDATED ****
             **** ENERGY FILE WAS UPDATED (TS2_Me/TS2_Me.en.tmp) ****
             **** THE GBW FILE WAS UPDATED (TS2_Me/TS2_Me.gbw) ****
             **** DENSITY TS2_Me/TS2_Me.scfp WAS UPDATED ****
----------------
ORBITAL ENERGIES
----------------

  NO   OCC          E(Eh)            E(eV) 
   0   2.0000     -19.266801      -524.2763 
   1   2.0000     -19.245200      -523.6885 
   2   2.0000     -19.205311      -522.6031 
   3   2.0000     -19.200751      -522.4790 
   4   2.0000     -19.174085      -521.7534 
   5   2.0000     -14.548415      -395.8825 
   6   2.0000     -14.443857      -393.0373 
   7   2.0000     -10.365523      -282.0602 
   8   2.0000     -10.322852      -280.8991 
   9   2.0000     -10.291075      -280.0344 
  10   2.0000     -10.285906      -279.8937 
  11   2.0000     -10.285766      -279.8899 
  12   2.0000     -10.271436      -279.5000 
  13   2.0000     -10.266638      -279.3694 
  14   2.0000     -10.260612      -279.2054 
  15   2.0000     -10.257783      -279.1285 
  16   2.0000     -10.254611      -279.0422 
  17   2.0000     -10.251174      -278.9486 
  18   2.0000     -10.251043      -278.9451 
  19   2.0000     -10.238772      -278.6111 
  20   2.0000     -10.229641      -278.3627 
  21   2.0000     -10.229563      -278.3606 
  22   2.0000     -10.228470      -278.3308 
  23   2.0000     -10.225988      -278.2633 
  24   2.0000     -10.221802      -278.1494 
  25   2.0000      -1.183004       -32.1912 
  26   2.0000      -1.155352       -31.4387 
  27   2.0000      -1.108435       -30.1621 
  28   2.0000      -1.061205       -28.8768 
  29   2.0000      -1.020498       -27.7692 
  30   2.0000      -1.009317       -27.4649 
  31   2.0000      -0.901819       -24.5397 
  32   2.0000      -0.873728       -23.7753 
  33   2.0000      -0.857146       -23.3241 
  34   2.0000      -0.826836       -22.4994 
  35   2.0000      -0.816257       -22.2115 
  36   2.0000      -0.792265       -21.5586 
  37   2.0000      -0.778149       -21.1745 
  38   2.0000      -0.747586       -20.3429 
  39   2.0000      -0.726792       -19.7770 
  40   2.0000      -0.719236       -19.5714 
  41   2.0000      -0.695089       -18.9143 
  42   2.0000      -0.681606       -18.5474 
  43   2.0000      -0.668628       -18.1943 
  44   2.0000      -0.625396       -17.0179 
  45   2.0000      -0.613499       -16.6941 
  46   2.0000      -0.597452       -16.2575 
  47   2.0000      -0.585880       -15.9426 
  48   2.0000      -0.560287       -15.2462 
  49   2.0000      -0.558941       -15.2096 
  50   2.0000      -0.545241       -14.8368 
  51   2.0000      -0.528222       -14.3736 
  52   2.0000      -0.526210       -14.3189 
  53   2.0000      -0.516173       -14.0458 
  54   2.0000      -0.512289       -13.9401 
  55   2.0000      -0.503471       -13.7001 
  56   2.0000      -0.499418       -13.5899 
  57   2.0000      -0.496434       -13.5087 
  58   2.0000      -0.492759       -13.4087 
  59   2.0000      -0.490634       -13.3508 
  60   2.0000      -0.480124       -13.0648 
  61   2.0000      -0.464150       -12.6302 
  62   2.0000      -0.460724       -12.5369 
  63   2.0000      -0.457587       -12.4516 
  64   2.0000      -0.451358       -12.2821 
  65   2.0000      -0.444888       -12.1060 
  66   2.0000      -0.432868       -11.7789 
  67   2.0000      -0.429972       -11.7001 
  68   2.0000      -0.421676       -11.4744 
  69   2.0000      -0.419674       -11.4199 
  70   2.0000      -0.408872       -11.1260 
  71   2.0000      -0.404610       -11.0100 
  72   2.0000      -0.398381       -10.8405 
  73   2.0000      -0.397146       -10.8069 
  74   2.0000      -0.389111       -10.5882 
  75   2.0000      -0.383887       -10.4461 
  76   2.0000      -0.379736       -10.3332 
  77   2.0000      -0.367529       -10.0010 
  78   2.0000      -0.351239        -9.5577 
  79   2.0000      -0.345743        -9.4081 
  80   2.0000      -0.341776        -9.3002 
  81   2.0000      -0.333362        -9.0713 
  82   2.0000      -0.327332        -8.9072 
  83   2.0000      -0.318094        -8.6558 
  84   2.0000      -0.300510        -8.1773 
  85   2.0000      -0.299889        -8.1604 
  86   2.0000      -0.292986        -7.9726 
  87   2.0000      -0.270965        -7.3733 
  88   2.0000      -0.264835        -7.2065 
  89   2.0000      -0.240665        -6.5488 
  90   2.0000      -0.213148        -5.8000 
  91   0.0000      -0.056203        -1.5293 
  92   0.0000      -0.035790        -0.9739 
  93   0.0000      -0.031175        -0.8483 
  94   0.0000      -0.017405        -0.4736 
  95   0.0000      -0.000161        -0.0044 
  96   0.0000       0.019684         0.5356 
  97   0.0000       0.043670         1.1883 
  98   0.0000       0.055426         1.5082 
  99   0.0000       0.063245         1.7210 
 100   0.0000       0.066822         1.8183 
 101   0.0000       0.067959         1.8493 
 102   0.0000       0.072155         1.9634 
 103   0.0000       0.081624         2.2211 
 104   0.0000       0.088943         2.4203 
 105   0.0000       0.094706         2.5771 
 106   0.0000       0.099201         2.6994 
 107   0.0000       0.100666         2.7393 
 108   0.0000       0.111257         3.0275 
 109   0.0000       0.116566         3.1719 
 110   0.0000       0.117598         3.2000 
 111   0.0000       0.121636         3.3099 
 112   0.0000       0.126645         3.4462 
 113   0.0000       0.127509         3.4697 
 114   0.0000       0.130598         3.5538 
 115   0.0000       0.136084         3.7030 
 116   0.0000       0.137464         3.7406 
 117   0.0000       0.141568         3.8523 
 118   0.0000       0.147245         4.0067 
 119   0.0000       0.149647         4.0721 
 120   0.0000       0.150653         4.0995 
 121   0.0000       0.155052         4.2192 
 122   0.0000       0.161169         4.3856 
 123   0.0000       0.165937         4.5154 
 124   0.0000       0.176617         4.8060 
 125   0.0000       0.176911         4.8140 
 126   0.0000       0.187452         5.1008 
 127   0.0000       0.196626         5.3505 
 128   0.0000       0.201257         5.4765 
 129   0.0000       0.206336         5.6147 
 130   0.0000       0.210185         5.7194 
 131   0.0000       0.214964         5.8495 
 132   0.0000       0.219436         5.9712 
 133   0.0000       0.221874         6.0375 
 134   0.0000       0.224059         6.0970 
 135   0.0000       0.226041         6.1509 
 136   0.0000       0.227581         6.1928 
 137   0.0000       0.232403         6.3240 
 138   0.0000       0.241300         6.5661 
 139   0.0000       0.245255         6.6737 
 140   0.0000       0.246761         6.7147 
 141   0.0000       0.252271         6.8646 
 142   0.0000       0.255579         6.9546 
 143   0.0000       0.257180         6.9982 
 144   0.0000       0.264175         7.1886 
 145   0.0000       0.271568         7.3897 
 146   0.0000       0.278546         7.5796 
 147   0.0000       0.280194         7.6245 
 148   0.0000       0.283683         7.7194 
 149   0.0000       0.291086         7.9208 
 150   0.0000       0.297254         8.0887 
 151   0.0000       0.299848         8.1593 
 152   0.0000       0.302771         8.2388 
 153   0.0000       0.306122         8.3300 
 154   0.0000       0.312185         8.4950 
 155   0.0000       0.316393         8.6095 
 156   0.0000       0.325669         8.8619 
 157   0.0000       0.331124         9.0103 
 158   0.0000       0.332288         9.0420 
 159   0.0000       0.334577         9.1043 
 160   0.0000       0.339188         9.2298 
 161   0.0000       0.343988         9.3604 
 162   0.0000       0.349243         9.5034 
 163   0.0000       0.354357         9.6426 
 164   0.0000       0.358022         9.7423 
 165   0.0000       0.359963         9.7951 
 166   0.0000       0.363173         9.8824 
 167   0.0000       0.364608         9.9215 
 168   0.0000       0.376696        10.2504 
 169   0.0000       0.383637        10.4393 
 170   0.0000       0.386470        10.5164 
 171   0.0000       0.390124        10.6158 
 172   0.0000       0.397639        10.8203 
 173   0.0000       0.401237        10.9182 
 174   0.0000       0.404200        10.9988 
 175   0.0000       0.406190        11.0530 
 176   0.0000       0.409716        11.1489 
 177   0.0000       0.411820        11.2062 
 178   0.0000       0.416975        11.3465 
 179   0.0000       0.421793        11.4776 
 180   0.0000       0.423118        11.5136 
 181   0.0000       0.425975        11.5914 
 182   0.0000       0.433907        11.8072 
 183   0.0000       0.435606        11.8535 
 184   0.0000       0.438285        11.9264 
 185   0.0000       0.442975        12.0539 
 186   0.0000       0.444629        12.0990 
 187   0.0000       0.448486        12.2039 
 188   0.0000       0.452793        12.3211 
 189   0.0000       0.457312        12.4441 
 190   0.0000       0.459363        12.4999 
 191   0.0000       0.462267        12.5789 
 192   0.0000       0.469447        12.7743 
 193   0.0000       0.472548        12.8587 
 194   0.0000       0.474451        12.9105 
 195   0.0000       0.476221        12.9586 
 196   0.0000       0.478828        13.0296 
 197   0.0000       0.483041        13.1442 
 198   0.0000       0.484717        13.1898 
 199   0.0000       0.487939        13.2775 
 200   0.0000       0.491055        13.3623 
 201   0.0000       0.493684        13.4338 
 202   0.0000       0.497894        13.5484 
 203   0.0000       0.499770        13.5994 
 204   0.0000       0.505327        13.7506 
 205   0.0000       0.508592        13.8395 
 206   0.0000       0.512968        13.9586 
 207   0.0000       0.518965        14.1218 
 208   0.0000       0.521956        14.2032 
 209   0.0000       0.526516        14.3272 
 210   0.0000       0.535944        14.5838 
 211   0.0000       0.540827        14.7167 
 212   0.0000       0.543675        14.7941 
 213   0.0000       0.554392        15.0858 
 214   0.0000       0.554564        15.0904 
 215   0.0000       0.558417        15.1953 
 216   0.0000       0.567970        15.4552 
 217   0.0000       0.572969        15.5913 
 218   0.0000       0.575080        15.6487 
 219   0.0000       0.578527        15.7425 
 220   0.0000       0.584174        15.8962 
[...]
 28:    287.17   0.001590    8.03  0.001727  ( 0.029757 -0.026488 -0.011844)
 29:    293.97   0.000143    0.72  0.000152  ( 0.007458  0.005664  0.008002)
 30:    316.11   0.003671   18.55  0.003624  (-0.004297  0.020367  0.056484)
 31:    328.38   0.002182   11.03  0.002073  (-0.003550 -0.001870 -0.045358)
 32:    362.10   0.000798    4.03  0.000688  ( 0.014725  0.014492  0.016152)
 33:    390.51   0.005381   27.19  0.004300  (-0.065186 -0.000452  0.007105)
 34:    395.22   0.000080    0.41  0.000063  (-0.007622 -0.001311  0.001905)
 35:    449.09   0.001762    8.90  0.001224  ( 0.025989 -0.017400  0.015684)
 36:    483.61   0.001856    9.38  0.001197  ( 0.034365  0.003535 -0.001967)
 37:    494.43   0.001300    6.57  0.000821  (-0.018072 -0.008441  0.020562)
 38:    556.89   0.001736    8.77  0.000973  ( 0.009847  0.028056 -0.009419)
 39:    581.27   0.002857   14.44  0.001534  (-0.021379  0.022447  0.023932)
 40:    602.98   0.004713   23.82  0.002439  (-0.035158 -0.033811  0.007757)
 41:    621.65   0.002164   10.94  0.001087  (-0.017980  0.023145 -0.015085)
 42:    633.24   0.006267   31.67  0.003088  ( 0.010871  0.053079 -0.012364)
 43:    644.72   0.001574    7.95  0.000762  (-0.011206  0.025219 -0.000554)
 44:    659.47   0.000172    0.87  0.000081  (-0.006780 -0.005873  0.000986)
 45:    680.89   0.001275    6.44  0.000584  (-0.021221 -0.008365  0.008005)
 46:    710.89   0.019215   97.10  0.008435  ( 0.039735 -0.071579  0.041621)
 47:    716.61   0.000520    2.63  0.000226  (-0.000803 -0.009075 -0.011970)
 48:    724.12   0.010826   54.71  0.004666  (-0.028438  0.061776  0.006375)
 49:    760.49   0.005764   29.13  0.002365  (-0.034150 -0.028867 -0.019129)
 50:    768.16   0.014718   74.38  0.005979  ( 0.032281  0.052191 -0.047044)
 51:    777.01   0.016176   81.75  0.006497  ( 0.000219 -0.070745  0.038624)
 52:    779.87   0.000166    0.84  0.000067  (-0.005993  0.001819  0.005225)
 53:    808.66   0.003972   20.07  0.001533  ( 0.011544 -0.019250 -0.032075)
 54:    839.02   0.002079   10.50  0.000773  (-0.004755  0.013137 -0.024040)
 55:    873.13   0.003627   18.33  0.001296  (-0.003541  0.030807 -0.018292)
 56:    884.20   0.006547   33.09  0.002311  (-0.024595  0.038432 -0.015123)
 57:    892.65   0.000013    0.07  0.000005  ( 0.000987 -0.000872  0.001726)
 58:    901.61   0.006131   30.98  0.002122  (-0.004709  0.021429 -0.040505)
 59:    966.97   0.004025   20.34  0.001299  ( 0.000705 -0.024827  0.026115)
 60:    975.64   0.003746   18.93  0.001198  ( 0.008978 -0.019833  0.026913)
 61:    979.71   0.004410   22.29  0.001405  ( 0.004891 -0.022026  0.029927)
 62:    996.02   0.000033    0.17  0.000010  ( 0.002797  0.001446  0.000642)
 63:   1013.75   0.000035    0.17  0.000011  ( 0.000945 -0.000267 -0.003108)
 64:   1037.67   0.001232    6.23  0.000370  ( 0.015399  0.010338  0.005148)
 65:   1038.13   0.010936   55.27  0.003287  ( 0.043707  0.036421 -0.007109)
 66:   1041.25   0.000016    0.08  0.000005  (-0.001670  0.001367 -0.000404)
 67:   1060.41   0.000078    0.40  0.000023  ( 0.003936 -0.000737  0.002652)
 68:   1070.85   0.005019   25.36  0.001463  (-0.035518 -0.007517 -0.012023)
 69:   1083.60   0.012034   60.81  0.003466  (-0.002179  0.036007  0.046522)
 70:   1084.36   0.021220  107.24  0.006107  (-0.067840  0.033318  0.019860)
 71:   1095.32   0.010518   53.16  0.002997  (-0.030241 -0.045615  0.001227)
 72:   1101.42   0.005428   27.43  0.001538  ( 0.005058  0.003335 -0.038744)
 73:   1113.25   0.003308   16.72  0.000927  ( 0.018198 -0.007749  0.023151)
 74:   1133.85   0.012005   60.67  0.003304  (-0.018382 -0.054013 -0.006986)
 75:   1146.16   0.039599  200.12  0.010781  (-0.039046  0.057397 -0.077217)
 76:   1168.14   0.000679    3.43  0.000182  (-0.004436  0.004560  0.011875)
 77:   1170.73   0.000254    1.28  0.000068  (-0.005260 -0.005634  0.002877)
 78:   1171.79   0.000465    2.35  0.000124  ( 0.008767  0.005912  0.003479)
 79:   1174.16   0.002144   10.84  0.000570  ( 0.018232  0.000518  0.015402)
 80:   1194.98   0.001162    5.87  0.000303  ( 0.007086 -0.001838  0.015804)
 81:   1207.10   0.000286    1.45  0.000074  (-0.003228 -0.000316  0.007963)
 82:   1213.12   0.001844    9.32  0.000474  (-0.019711 -0.008569 -0.003525)
 83:   1227.39   0.003729   18.85  0.000948  ( 0.006266  0.019594 -0.022913)
 84:   1237.55   0.006083   30.74  0.001534  ( 0.031679  0.022380  0.005426)
 85:   1246.19   0.001841    9.30  0.000461  ( 0.019619 -0.007158 -0.004979)
 86:   1267.50   0.016505   83.41  0.004064  (-0.049595 -0.024503 -0.031680)
 87:   1291.66   0.103127  521.16  0.024916  ( 0.060346  0.130436  0.065272)
 88:   1301.48   0.038088  192.48  0.009133  ( 0.056153  0.040016  0.066167)
 89:   1307.89   0.081289  410.80  0.019396  (-0.117812 -0.014810  0.072779)
 90:   1322.98   0.026627  134.56  0.006281  (-0.053713  0.020815  0.054428)
 91:   1342.74   0.002184   11.04  0.000508  (-0.002010  0.009725  0.020224)
 92:   1358.98   0.022259  112.49  0.005111  (-0.061555 -0.003035  0.036237)
 93:   1377.39   0.004206   21.26  0.000953  (-0.027865 -0.002443  0.013059)
 94:   1387.72   0.000653    3.30  0.000147  ( 0.008670  0.002486  0.008090)
 95:   1397.23   0.018631   94.15  0.004161  (-0.001841  0.005676  0.064230)
 96:   1417.78   0.012223   61.77  0.002690  ( 0.027519  0.006627  0.043464)
 97:   1444.42   0.003546   17.92  0.000766  (-0.013145  0.017969  0.016445)
 98:   1465.28   0.001536    7.76  0.000327  ( 0.008983 -0.008989 -0.012869)
 99:   1466.08   0.003957   20.00  0.000842  ( 0.020067  0.018976  0.008915)
100:   1466.84   0.004723   23.87  0.001005  (-0.000698 -0.015557 -0.027608)
101:   1470.18   0.013729   69.38  0.002914  (-0.030930  0.023148  0.037705)
102:   1472.79   0.003225   16.30  0.000683  (-0.003498 -0.024871  0.007242)
103:   1473.86   0.001706    8.62  0.000361  ( 0.006623 -0.012207  0.012973)
104:   1482.97   0.003958   20.00  0.000833  ( 0.001647 -0.011308 -0.026502)
105:   1494.95   0.013651   68.99  0.002850  (-0.008397  0.017902  0.049585)
106:   1497.84   0.010793   54.54  0.002249  ( 0.011710  0.027146  0.037075)
107:   1528.95   0.000764    3.86  0.000156  ( 0.012194 -0.001147 -0.002429)
108:   1536.93   0.033891  171.27  0.006881  ( 0.009469  0.048828  0.066388)
109:   1648.96   0.003469   17.53  0.000656  ( 0.022900  0.000817  0.011462)
110:   1649.25   0.004511   22.80  0.000854  ( 0.010843  0.011671  0.024490)
111:   1663.21   0.014741   74.49  0.002766  (-0.004881 -0.029722 -0.043110)
112:   1667.04   0.011990   60.59  0.002245  (-0.037479 -0.028939  0.001556)
113:   1698.25   0.074047  374.20  0.013607  ( 0.104771 -0.008096  0.050637)
114:   1789.87   0.110030  556.05  0.019184  (-0.030754  0.080345 -0.108548)
115:   3036.50   0.005241   26.49  0.000539  ( 0.009111  0.015999 -0.014131)
116:   3036.69   0.013509   68.27  0.001388  ( 0.027432  0.003081  0.025025)
117:   3073.16   0.006102   30.84  0.000620  ( 0.016006 -0.017194 -0.008233)
118:   3091.79   0.004461   22.54  0.000450  (-0.009601  0.015924  0.010221)
119:   3102.94   0.000409    2.06  0.000041  (-0.004230  0.004803 -0.000349)
120:   3108.16   0.007976   40.31  0.000801  ( 0.004146  0.021332 -0.018125)
121:   3143.79   0.002203   11.13  0.000219  (-0.013519 -0.004639 -0.003795)
122:   3156.94   0.003763   19.02  0.000372  ( 0.014782  0.011835  0.003661)
123:   3164.70   0.003824   19.32  0.000377  (-0.005679  0.012312  0.013899)
124:   3181.30   0.000683    3.45  0.000067  ( 0.007681 -0.000868  0.002694)
125:   3191.76   0.002082   10.52  0.000204  ( 0.001624  0.002882 -0.013878)
126:   3195.19   0.001287    6.51  0.000126  ( 0.010568 -0.003734 -0.000326)
127:   3200.43   0.000700    3.54  0.000068  (-0.006803 -0.002774  0.003775)
128:   3206.24   0.000938    4.74  0.000091  ( 0.008284  0.004736  0.000458)
129:   3213.27   0.000060    0.30  0.000006  ( 0.000799 -0.001147 -0.001961)
130:   3213.41   0.003035   15.34  0.000295  ( 0.002815 -0.010990 -0.012885)
131:   3230.14   0.000167    0.84  0.000016  ( 0.000010  0.001779  0.003602)
132:   3230.87   0.000525    2.65  0.000051  (-0.006372  0.000298 -0.003160)
133:   3234.41   0.000336    1.70  0.000032  (-0.004686 -0.003150  0.000719)
134:   3277.61   0.000342    1.73  0.000033  (-0.003250 -0.004540 -0.001172)

* The epsilon (eps) is given for a Dirac delta lineshape.
** The dipole moment derivative (T) already includes vibrational overlap.

The first frequency considered to be a vibration is 7
The total number of vibrations considered is 128


--------------------------
THERMOCHEMISTRY AT 298.15K
--------------------------

Temperature         ... 298.15 K
Pressure            ... 1.00 atm
Total Mass          ... 344.37 AMU

Throughout the following assumptions are being made:
  (1) The electronic state is orbitally nondegenerate
  (2) There are no thermally accessible electronically excited states
  (3) Hindered rotations indicated by low frequency modes are not
      treated as such but are treated as vibrations and this may
      cause some error
  (4) All equations used are the standard statistical mechanics
      equations for an ideal gas
  (5) All vibrations are strictly harmonic

freq.      17.86  E(vib)   ...       0.57 
freq.      34.60  E(vib)   ...       0.54 
freq.      39.78  E(vib)   ...       0.54 
freq.      44.40  E(vib)   ...       0.53 
freq.      54.06  E(vib)   ...       0.52 
freq.      60.76  E(vib)   ...       0.51 
freq.      69.91  E(vib)   ...       0.50 
freq.      79.00  E(vib)   ...       0.49 
freq.      88.53  E(vib)   ...       0.47 
freq.     102.57  E(vib)   ...       0.46 
freq.     117.91  E(vib)   ...       0.44 
freq.     141.50  E(vib)   ...       0.41 
freq.     155.26  E(vib)   ...       0.40 
freq.     156.43  E(vib)   ...       0.40 
freq.     172.71  E(vib)   ...       0.38 
freq.     190.16  E(vib)   ...       0.36 
freq.     200.26  E(vib)   ...       0.35 
freq.     213.86  E(vib)   ...       0.34 
freq.     235.61  E(vib)   ...       0.32 
freq.     247.34  E(vib)   ...       0.31 
freq.     253.09  E(vib)   ...       0.30 
freq.     287.17  E(vib)   ...       0.27 
freq.     293.97  E(vib)   ...       0.27 
freq.     316.11  E(vib)   ...       0.25 
freq.     328.38  E(vib)   ...       0.24 
freq.     362.10  E(vib)   ...       0.22 
freq.     390.51  E(vib)   ...       0.20 
freq.     395.22  E(vib)   ...       0.20 
freq.     449.09  E(vib)   ...       0.17 
freq.     483.61  E(vib)   ...       0.15 
freq.     494.43  E(vib)   ...       0.14 
freq.     556.89  E(vib)   ...       0.12 
freq.     581.27  E(vib)   ...       0.11 
freq.     602.98  E(vib)   ...       0.10 
freq.     621.65  E(vib)   ...       0.09 
freq.     633.24  E(vib)   ...       0.09 
freq.     644.72  E(vib)   ...       0.09 
freq.     659.47  E(vib)   ...       0.08 
freq.     680.89  E(vib)   ...       0.08 
freq.     710.89  E(vib)   ...       0.07 
freq.     716.61  E(vib)   ...       0.07 
freq.     724.12  E(vib)   ...       0.06 
freq.     760.49  E(vib)   ...       0.06 
freq.     768.16  E(vib)   ...       0.06 
freq.     777.01  E(vib)   ...       0.05 
freq.     779.87  E(vib)   ...       0.05 
freq.     808.66  E(vib)   ...       0.05 
freq.     839.02  E(vib)   ...       0.04 
freq.     873.13  E(vib)   ...       0.04 
freq.     884.20  E(vib)   ...       0.04 
freq.     892.65  E(vib)   ...       0.03 
freq.     901.61  E(vib)   ...       0.03 
freq.     966.97  E(vib)   ...       0.03 
freq.     975.64  E(vib)   ...       0.03 
freq.     979.71  E(vib)   ...       0.03 
freq.     996.02  E(vib)   ...       0.02 
freq.    1013.75  E(vib)   ...       0.02 
freq.    1037.67  E(vib)   ...       0.02 
freq.    1038.13  E(vib)   ...       0.02 
freq.    1041.25  E(vib)   ...       0.02 
freq.    1060.41  E(vib)   ...       0.02 
freq.    1070.85  E(vib)   ...       0.02 
freq.    1083.60  E(vib)   ...       0.02 
freq.    1084.36  E(vib)   ...       0.02 
freq.    1095.32  E(vib)   ...       0.02 
freq.    1101.42  E(vib)   ...       0.02 
freq.    1113.25  E(vib)   ...       0.01 
freq.    1133.85  E(vib)   ...       0.01 
freq.    1146.16  E(vib)   ...       0.01 
freq.    1168.14  E(vib)   ...       0.01 
freq.    1170.73  E(vib)   ...       0.01 
freq.    1171.79  E(vib)   ...       0.01 
freq.    1174.16  E(vib)   ...       0.01 
freq.    1194.98  E(vib)   ...       0.01 
freq.    1207.10  E(vib)   ...       0.01 
freq.    1213.12  E(vib)   ...       0.01 
freq.    1227.39  E(vib)   ...       0.01 
freq.    1237.55  E(vib)   ...       0.01 
freq.    1246.19  E(vib)   ...       0.01 
freq.    1267.50  E(vib)   ...       0.01 
freq.    1291.66  E(vib)   ...       0.01 
freq.    1301.48  E(vib)   ...       0.01 
freq.    1307.89  E(vib)   ...       0.01 
freq.    1322.98  E(vib)   ...       0.01 
freq.    1342.74  E(vib)   ...       0.01 
freq.    1358.98  E(vib)   ...       0.01 
freq.    1377.39  E(vib)   ...       0.01 
freq.    1387.72  E(vib)   ...       0.00 
freq.    1397.23  E(vib)   ...       0.00 
freq.    1417.78  E(vib)   ...       0.00 
freq.    1444.42  E(vib)   ...       0.00 
freq.    1465.28  E(vib)   ...       0.00 
freq.    1466.08  E(vib)   ...       0.00 
freq.    1466.84  E(vib)   ...       0.00 
freq.    1470.18  E(vib)   ...       0.00 
freq.    1472.79  E(vib)   ...       0.00 
freq.    1473.86  E(vib)   ...       0.00 
freq.    1482.97  E(vib)   ...       0.00 
freq.    1494.95  E(vib)   ...       0.00 
freq.    1497.84  E(vib)   ...       0.00 
freq.    1528.95  E(vib)   ...       0.00 
freq.    1536.93  E(vib)   ...       0.00 
freq.    1648.96  E(vib)   ...       0.00 
freq.    1649.25  E(vib)   ...       0.00 
freq.    1663.21  E(vib)   ...       0.00 
freq.    1667.04  E(vib)   ...       0.00 
freq.    1698.25  E(vib)   ...       0.00 
freq.    1789.87  E(vib)   ...       0.00 
freq.    3036.50  E(vib)   ...       0.00 
freq.    3036.69  E(vib)   ...       0.00 
freq.    3073.16  E(vib)   ...       0.00 
freq.    3091.79  E(vib)   ...       0.00 
freq.    3102.94  E(vib)   ...       0.00 
freq.    3108.16  E(vib)   ...       0.00 
freq.    3143.79  E(vib)   ...       0.00 
freq.    3156.94  E(vib)   ...       0.00 
freq.    3164.70  E(vib)   ...       0.00 
freq.    3181.30  E(vib)   ...       0.00 
freq.    3191.76  E(vib)   ...       0.00 
freq.    3195.19  E(vib)   ...       0.00 
freq.    3200.43  E(vib)   ...       0.00 
freq.    3206.24  E(vib)   ...       0.00 
freq.    3213.27  E(vib)   ...       0.00 
freq.    3213.41  E(vib)   ...       0.00 
freq.    3230.14  E(vib)   ...       0.00 
freq.    3230.87  E(vib)   ...       0.00 
freq.    3234.41  E(vib)   ...       0.00 
freq.    3277.61  E(vib)   ...       0.00 

------------
INNER ENERGY
------------

The inner energy is: U= E(el) + E(ZPE) + E(vib) + E(rot) + E(trans)
    E(el)   - is the total energy from the electronic structure calculation
              = E(kin-el) + E(nuc-el) + E(el-el) + E(nuc-nuc)
    E(ZPE)  - the the zero temperature vibrational energy from the frequency calculation
    E(vib)  - the the finite temperature correction to E(ZPE) due to population
              of excited vibrational states
    E(rot)  - is the rotational thermal energy
    E(trans)- is the translational thermal energy

Summary of contributions to the inner energy U:
Electronic energy                ...  -1182.59515452 Eh
Zero point energy                ...      0.35954834 Eh     225.62 kcal/mol
Thermal vibrational correction   ...      0.02101251 Eh      13.19 kcal/mol
Thermal rotational correction    ...      0.00141627 Eh       0.89 kcal/mol
Thermal translational correction ...      0.00141627 Eh       0.89 kcal/mol
-----------------------------------------------------------------------
Total thermal energy                  -1182.21176113 Eh


Summary of corrections to the electronic energy:
(perhaps to be used in another calculation)
Total thermal correction                  0.02384505 Eh      14.96 kcal/mol
Non-thermal (ZPE) correction              0.35954834 Eh     225.62 kcal/mol
-----------------------------------------------------------------------
Total correction                          0.38339339 Eh     240.58 kcal/mol


--------
ENTHALPY
--------

The enthalpy is H = U + kB*T
                kB is Boltzmann's constant
Total free energy                 ...  -1182.21176113 Eh 
Thermal Enthalpy correction       ...      0.00094421 Eh       0.59 kcal/mol
-----------------------------------------------------------------------
Total Enthalpy                    ...  -1182.21081692 Eh


Note: Only C1 symmetry has been detected, increase convergence thresholds 
      if your molecule has a higher symmetry. Symmetry factor of 1.0 is   
      used for the rotational entropy correction. 
 

Note: Rotational entropy computed according to Herzberg 
Infrared and Raman Spectra, Chapter V,1, Van Nostrand Reinhold, 1945 
Point Group:  C1, Symmetry Number:   1  
Rotational constants in cm-1:     0.009632     0.007600     0.005507 

Vibrational entropy computed according to the QRRHO of S. Grimme
Chem.Eur.J. 2012 18 9955


-------
ENTROPY
-------

The entropy contributions are T*S = T*(S(el)+S(vib)+S(rot)+S(trans))
     S(el)   - electronic entropy
     S(vib)  - vibrational entropy
     S(rot)  - rotational entropy
     S(trans)- translational entropy
The entropies will be listed as multiplied by the temperature to get
units of energy

Electronic entropy                ...      0.00000000 Eh      0.00 kcal/mol
Vibrational entropy               ...      0.03809400 Eh     23.90 kcal/mol
Rotational entropy                ...      0.01646193 Eh     10.33 kcal/mol
Translational entropy             ...      0.02062252 Eh     12.94 kcal/mol
-----------------------------------------------------------------------
Final entropy term                ...      0.07517845 Eh     47.18 kcal/mol

In case the symmetry of your molecule has not been determined correctly
or in case you have a reason to use a different symmetry number we print 
out the resulting rotational entropy values for sn=1,12 :
 --------------------------------------------------------
|  sn= 1 | S(rot)=       0.01646193 Eh     10.33 kcal/mol|
|  sn= 2 | S(rot)=       0.01580748 Eh      9.92 kcal/mol|
|  sn= 3 | S(rot)=       0.01542464 Eh      9.68 kcal/mol|
|  sn= 4 | S(rot)=       0.01515302 Eh      9.51 kcal/mol|
|  sn= 5 | S(rot)=       0.01494233 Eh      9.38 kcal/mol|
|  sn= 6 | S(rot)=       0.01477019 Eh      9.27 kcal/mol|
|  sn= 7 | S(rot)=       0.01462464 Eh      9.18 kcal/mol|
|  sn= 8 | S(rot)=       0.01449856 Eh      9.10 kcal/mol|
|  sn= 9 | S(rot)=       0.01438735 Eh      9.03 kcal/mol|
|  sn=10 | S(rot)=       0.01428787 Eh      8.97 kcal/mol|
|  sn=11 | S(rot)=       0.01419788 Eh      8.91 kcal/mol|
|  sn=12 | S(rot)=       0.01411573 Eh      8.86 kcal/mol|
 --------------------------------------------------------


-------------------
GIBBS FREE ENERGY
-------------------

The Gibbs free energy is G = H - T*S

Total enthalpy                    ...  -1182.21081692 Eh 
Total entropy correction          ...     -0.07517845 Eh    -47.18 kcal/mol
-----------------------------------------------------------------------
Final Gibbs free energy         ...  -1182.28599537 Eh

For completeness - the Gibbs free energy minus the electronic energy
G-E(el)                           ...      0.30915916 Eh    194.00 kcal/mol


Timings for individual modules:

Sum of individual times         ...    11662.461 sec (= 194.374 min)
GTO integral calculation        ...       88.694 sec (=   1.478 min)   0.8 %
SCF iterations                  ...     4428.155 sec (=  73.803 min)  38.0 %
SCF Gradient evaluation         ...     1283.280 sec (=  21.388 min)  11.0 %
Geometry relaxation             ...        8.089 sec (=   0.135 min)   0.1 %
Analytical frequency calculation...     5854.243 sec (=  97.571 min)  50.2 %
                             ****ORCA TERMINATED NORMALLY****
TOTAL RUN TIME: 0 days 3 hours 16 minutes 9 seconds 528 msec
