
                                 *****************
                                 * O   R   C   A *
                                 *****************

                                            #,                                       
                                            ###                                      
                                            ####                                     
                                            #####                                    
                                            ######                                   
                                           ########,                                 
                                     ,,################,,,,,                         
                               ,,#################################,,                 
                          ,,##########################################,,             
                       ,#########################################, ''#####,          
                    ,#############################################,,   '####,        
                  ,##################################################,,,,####,       
                ,###########''''           ''''###############################       
              ,#####''   ,,,,##########,,,,          '''####'''          '####       
            ,##' ,,,,###########################,,,                        '##       
           ' ,,###''''                  '''############,,,                           
         ,,##''                                '''############,,,,        ,,,,,,###''
      ,#''                                            '''#######################'''  
     '                                                          ''''####''''         
             ,#######,   #######,   ,#######,      ##                                
            ,#'     '#,  ##    ##  ,#'     '#,    #''#        ######   ,####,        
            ##       ##  ##   ,#'  ##            #'  '#       #        #'  '#        
            ##       ##  #######   ##           ,######,      #####,   #    #        
            '#,     ,#'  ##    ##  '#,     ,#' ,#      #,         ##   #,  ,#        
             '#######'   ##     ##  '#######'  #'      '#     #####' # '####'        



                  #######################################################
                  #                        -***-                        #
                  #          Department of theory and spectroscopy      #
                  #    Directorship and core code : Frank Neese         #
                  #        Max Planck Institute fuer Kohlenforschung    #
                  #                Kaiser Wilhelm Platz 1               #
                  #                 D-45470 Muelheim/Ruhr               #
                  #                      Germany                        #
                  #                                                     #
                  #                  All rights reserved                #
                  #                        -***-                        #
                  #######################################################


                         Program Version 5.0.4 -  RELEASE  -


 With contributions from (in alphabetic order):
   Daniel Aravena         : Magnetic Suceptibility
   Michael Atanasov       : Ab Initio Ligand Field Theory (pilot matlab implementation)
   Alexander A. Auer      : GIAO ZORA, VPT2 properties, NMR spectrum
   Ute Becker             : Parallelization
   Giovanni Bistoni       : ED, misc. LED, open-shell LED, HFLD
   Martin Brehm           : Molecular dynamics
   Dmytro Bykov           : SCF Hessian
   Vijay G. Chilkuri      : MRCI spin determinant printing, contributions to CSF-ICE
   Dipayan Datta          : RHF DLPNO-CCSD density
   Achintya Kumar Dutta   : EOM-CC, STEOM-CC
   Dmitry Ganyushin       : Spin-Orbit,Spin-Spin,Magnetic field MRCI
   Miquel Garcia          : C-PCM and meta-GGA Hessian, CC/C-PCM, Gaussian charge scheme
   Yang Guo               : DLPNO-NEVPT2, F12-NEVPT2, CIM, IAO-localization
   Andreas Hansen         : Spin unrestricted coupled pair/coupled cluster methods
   Benjamin Helmich-Paris : MC-RPA, TRAH-SCF, COSX integrals
   Lee Huntington         : MR-EOM, pCC
   Robert Izsak           : Overlap fitted RIJCOSX, COSX-SCS-MP3, EOM
   Marcus Kettner         : VPT2
   Christian Kollmar      : KDIIS, OOCD, Brueckner-CCSD(T), CCSD density, CASPT2, CASPT2-K
   Simone Kossmann        : Meta GGA functionals, TD-DFT gradient, OOMP2, MP2 Hessian
   Martin Krupicka        : Initial AUTO-CI
   Lucas Lang             : DCDCAS
   Marvin Lechner         : AUTO-CI (C++ implementation), FIC-MRCC
   Dagmar Lenk            : GEPOL surface, SMD
   Dimitrios Liakos       : Extrapolation schemes; Compound Job, initial MDCI parallelization
   Dimitrios Manganas     : Further ROCIS development; embedding schemes
   Dimitrios Pantazis     : SARC Basis sets
   Anastasios Papadopoulos: AUTO-CI, single reference methods and gradients
   Taras Petrenko         : DFT Hessian,TD-DFT gradient, ASA, ECA, R-Raman, ABS, FL, XAS/XES, NRVS
   Peter Pinski           : DLPNO-MP2, DLPNO-MP2 Gradient
   Christoph Reimann      : Effective Core Potentials
   Marius Retegan         : Local ZFS, SOC
   Christoph Riplinger    : Optimizer, TS searches, QM/MM, DLPNO-CCSD(T), (RO)-DLPNO pert. Triples
   Tobias Risthaus        : Range-separated hybrids, TD-DFT gradient, RPA, STAB
   Michael Roemelt        : Original ROCIS implementation
   Masaaki Saitow         : Open-shell DLPNO-CCSD energy and density
   Barbara Sandhoefer     : DKH picture change effects
   Avijit Sen             : IP-ROCIS
   Kantharuban Sivalingam : CASSCF convergence, NEVPT2, FIC-MRCI
   Bernardo de Souza      : ESD, SOC TD-DFT
   Georgi Stoychev        : AutoAux, RI-MP2 NMR, DLPNO-MP2 response
   Willem Van den Heuvel  : Paramagnetic NMR
   Boris Wezisla          : Elementary symmetry handling
   Frank Wennmohs         : Technical directorship


 We gratefully acknowledge several colleagues who have allowed us to
 interface, adapt or use parts of their codes:
   Stefan Grimme, W. Hujo, H. Kruse, P. Pracht,  : VdW corrections, initial TS optimization,
                  C. Bannwarth, S. Ehlert          DFT functionals, gCP, sTDA/sTD-DF
   Ed Valeev, F. Pavosevic, A. Kumar             : LibInt (2-el integral package), F12 methods
   Garnet Chan, S. Sharma, J. Yang, R. Olivares  : DMRG
   Ulf Ekstrom                                   : XCFun DFT Library
   Mihaly Kallay                                 : mrcc  (arbitrary order and MRCC methods)
   Jiri Pittner, Ondrej Demel                    : Mk-CCSD
   Frank Weinhold                                : gennbo (NPA and NBO analysis)
   Christopher J. Cramer and Donald G. Truhlar   : smd solvation model
   Lars Goerigk                                  : TD-DFT with DH, B97 family of functionals
   V. Asgeirsson, H. Jonsson                     : NEB implementation
   FAccTs GmbH                                   : IRC, NEB, NEB-TS, DLPNO-Multilevel, CI-OPT
                                                   MM, QMMM, 2- and 3-layer-ONIOM, Crystal-QMMM,
                                                   LR-CPCM, SF, NACMEs, symmetry and pop. for TD-DFT,
                                                   nearIR, NL-DFT gradient (VV10), updates on ESD,
                                                   ML-optimized integration grids
   S Lehtola, MJT Oliveira, MAL Marques          : LibXC Library
   Liviu Ungur et al                             : ANISO software


 Your calculation uses the libint2 library for the computation of 2-el integrals
 For citations please refer to: http://libint.valeyev.net

 Your ORCA version has been built with support for libXC version: 5.1.0
 For citations please refer to: https://tddft.org/programs/libxc/

 This ORCA versions uses:
   CBLAS   interface :  Fast vector & matrix operations
   LAPACKE interface :  Fast linear algebra routines
   SCALAPACK package :  Parallel linear algebra routines
   Shared memory     :  Shared parallel matrices
   BLAS/LAPACK       :  OpenBLAS 0.3.15  USE64BITINT DYNAMIC_ARCH NO_AFFINITY Haswell SINGLE_THREADED
        Core in use  :  Haswell
   Copyright (c) 2011-2014, The OpenBLAS Project


Your calculation utilizes the atom-pairwise dispersion correction
with the Becke-Johnson damping scheme (D3BJ)
Cite in your paper:
S.Grimme, S.Ehrlich, L.Goerigk, J Comput Chem, (2011), 32, 1456–1465 
S.Grimme, J.Antony, S.Ehrlich and H.Krieg, J.Chem.Phys., 132, (2010), 154104 
   

================================================================================

----- Orbital basis set information -----
Your calculation utilizes the basis: def2-TZVP
   F. Weigend and R. Ahlrichs, Phys. Chem. Chem. Phys. 7, 3297 (2005).

----- AuxJ basis set information -----
Your calculation utilizes the auxiliary basis: def2/J
   F. Weigend, Phys. Chem. Chem. Phys. 8, 1057 (2006).

================================================================================
                                        WARNINGS
                       Please study these warnings very carefully!
================================================================================


WARNING: Geometry Optimization
  ===> : Switching off AutoStart
         For restart on a previous wavefunction, please use MOREAD

INFO   : the flag for use of the SHARK integral package has been found!

================================================================================
                                       INPUT FILE
================================================================================
NAME = TS2_4-NO2Ph/TS2_4-NO2Ph.inp
|  1> %pal nprocs 24 end
|  2> %maxcore 3500
|  3> ! PBE0 D3BJ def2-TZVP TightSCF OPTTS FREQ TightOpt
|  4> ! CPCM(dmso)
|  5> %scf
|  6> MaxIter 800
|  7> end
|  8> 
|  9> %geom
| 10> MaxIter 800
| 11> MaxStep 0.2
| 12> end
| 13> 
| 14> *xyz 0 1
| 15> C      -4.78579900     -1.52616100      1.78536500
| 16> C      -3.81564500     -0.82572800      2.48528100
| 17> C      -2.94019600     -0.02146500      1.78063400
| 18> N      -3.01628600      0.10203200      0.45898000
| 19> C      -3.94350000     -0.56224000     -0.22231700
| 20> C      -4.85013400     -1.39482000      0.40689500
| 21> C      -1.75212500      1.21801000     -0.63138200
| 22> C      -2.06270500      2.43118000      0.18693600
| 23> O      -3.01787900      3.13881600     -0.00768900
| 24> O      -1.16724200      2.60831400      1.14652100
| 25> C      -1.35235300      3.76072300      1.97662100
| 26> H      -5.48301900     -2.16955200      2.30864900
| 27> H      -2.15674200      0.53565900      2.28207100
| 28> H      -3.95257100     -0.42680300     -1.29834900
| 29> H      -5.58820800     -1.92623600     -0.17961800
| 30> H      -2.40615400      1.04124600     -1.46850600
| 31> H      -1.29947600      4.66692900      1.37345700
| 32> H      -0.54054300      3.73401300      2.69812800
| 33> C       4.46103100     -0.20638500      0.70899400
| 34> C       4.42058800      0.89620100     -0.13237100
| 35> C       3.21150400      1.32904800     -0.63144600
| 36> C       2.00940700      0.66970800     -0.30119100
| 37> C       2.09616900     -0.46010400      0.54003800
| 38> C       3.30114300     -0.89203200      1.04437500
| 39> C       0.70969200      1.08269100     -0.75721600
| 40> C      -0.54282200      0.33176500     -0.40026700
| 41> C      -0.68861100     -0.95927600     -1.18090000
| 42> C      -0.66773200     -0.93807400     -2.56831700
| 43> C      -0.85515200     -2.09286400     -3.31313600
| 44> C      -1.06341000     -3.29394500     -2.65360700
| 45> C      -1.07585300     -3.34572200     -1.26714800
| 46> C      -0.88495900     -2.18207300     -0.52661300
| 47> O      -0.87365500     -2.15178200      0.82388200
| 48> C      -1.12600300     -3.35282700      1.52823300
| 49> N       0.48833800      2.14919000     -1.51251900
| 50> O       1.33510000      2.93204400     -1.97687800
| 51> H       5.33513800      1.41395500     -0.38744700
| 52> H       3.18177100      2.18841500     -1.28071600
| 53> H       1.20700700     -1.01140500      0.81362100
| 54> H       3.34883000     -1.75407200      1.69534200
| 55> H      -0.50479700      0.09875600      0.66274500
| 56> H      -0.51083400      0.00929300     -3.07406000
| 57> H      -0.84056000     -2.05246200     -4.39553500
| 58> H      -1.21601800     -4.20750000     -3.21708200
| 59> H      -1.23523500     -4.29253900     -0.76919100
| 60> H      -1.09145100     -3.09345800      2.58416200
| 61> H      -0.36370600     -4.10590900      1.31073800
| 62> H      -2.11457000     -3.74985800      1.28193600
| 63> O      -0.77004800      2.40251500     -1.79030700
| 64> H      -2.31667600      3.70784200      2.48161900
| 65> N       5.72623100     -0.64464300      1.24807200
| 66> O       6.73863800     -0.05940700      0.90210100
| 67> O       5.72873200     -1.57878100      2.03187000
| 68> H      -3.72833400     -0.90037600      3.56135000
| 69> *
| 70> 
| 71>                          ****END OF INPUT****
================================================================================

                       *****************************
                       * Geometry Optimization Run *
                       *****************************

Geometry optimization settings:
Update method            Update   .... Bofill
Choice of coordinates    CoordSys .... Z-matrix Internals
Initial Hessian          InHess   .... Almoef's Model

Convergence Tolerances:
Energy Change            TolE     ....  1.0000e-06 Eh
Max. Gradient            TolMAXG  ....  1.0000e-04 Eh/bohr
RMS Gradient             TolRMSG  ....  3.0000e-05 Eh/bohr
Max. Displacement        TolMAXD  ....  1.0000e-03 bohr
RMS Displacement         TolRMSD  ....  6.0000e-04 bohr
Strict Convergence                ....  False
------------------------------------------------------------------------------
                        ORCA OPTIMIZATION COORDINATE SETUP
------------------------------------------------------------------------------

The optimization will be done in new redundant internal coordinates
Making redundant internal coordinates   ...  (new redundants) done
Following TS mode number                ...     0
Evaluating the initial hessian          ...  (Almloef) done
Evaluating the coordinates              ...  done
Calculating the B-matrix                .... done
Calculating the G-matrix                .... done
Diagonalizing the G-matrix              .... done
Small eigenvalue found = 2.662e-03
Small eigenvalue found = 4.465e-03
Small eigenvalue found = 8.642e-03
Small eigenvalue found = 1.159e-02
Small eigenvalue found = 1.942e-02
Small eigenvalue found = 2.895e-02
The first mode is                       ....  171
The number of degrees of freedom        ....  156

    -----------------------------------------------------------------
                    Redundant Internal Coordinates


    -----------------------------------------------------------------
         Definition                    Initial Value    Approx d2E/dq
    -----------------------------------------------------------------
      1. B(C   1,C   0)                  1.3862         0.633465   
      2. B(C   2,C   1)                  1.3819         0.643557   
      3. B(N   3,C   2)                  1.3296         0.698643   
      4. B(C   4,N   3)                  1.3286         0.701218   
      5. B(C   5,C   0)                  1.3862         0.633564   
      6. B(C   5,C   4)                  1.3824         0.642441   
      7. B(C   6,N   3)                  2.0081         0.057778   
      8. B(C   7,N   3)                  2.5315         0.008448   
      9. B(C   7,C   6)                  1.4960         0.423342   
     10. B(O   8,C   7)                  1.2046         1.105910   
     11. B(O   9,C   7)                  1.3244         0.712093   
     12. B(C  10,O   9)                  1.4323         0.479123   
     13. B(H  11,C   0)                  1.0835         0.368851   
     14. B(H  12,C   2)                  1.0843         0.367770   
     15. B(H  12,O   9)                  2.5621         0.001445   
     16. B(H  13,C   4)                  1.0846         0.367369   
     17. B(H  14,C   5)                  1.0822         0.370570   
     18. B(H  15,C   4)                  2.5471         0.001705   
     19. B(H  15,N   3)                  2.2293         0.004908   
     20. B(H  15,H  13)                  2.1390         0.001461   
     21. B(H  15,C   6)                  1.0769         0.377813   
     22. B(H  16,C  10)                  1.0899         0.360275   
     23. B(H  17,C  10)                  1.0864         0.364859   
     24. B(C  19,C  18)                  1.3875         0.630502   
     25. B(C  20,C  19)                  1.3778         0.653450   
     26. B(C  21,C  20)                  1.4103         0.579982   
     27. B(C  22,C  21)                  1.4113         0.577845   
     28. B(C  23,C  22)                  1.3758         0.658207   
     29. B(C  23,C  18)                  1.3885         0.628249   
     30. B(C  24,C  21)                  1.4380         0.523838   
     31. B(C  25,C  24)                  1.5034         0.411982   
     32. B(C  25,C   6)                  1.5170         0.391863   
     33. B(C  26,C  25)                  1.5157         0.393685   
     34. B(C  27,C  26)                  1.3877         0.630014   
     35. B(C  28,C  27)                  1.3869         0.632011   
     36. B(C  29,C  28)                  1.3860         0.634088   
     37. B(C  30,C  29)                  1.3875         0.630604   
     38. B(C  31,C  30)                  1.3924         0.619203   
     39. B(C  31,C  26)                  1.4007         0.600780   
     40. B(O  32,C  31)                  1.3509         0.646079   
     41. B(C  33,O  32)                  1.4150         0.510444   
     42. B(N  34,C  24)                  1.3255         0.709269   
     43. B(O  35,N  34)                  1.2432         0.859518   
     44. B(H  36,C  19)                  1.0815         0.371590   
     45. B(H  37,C  20)                  1.0775         0.377059   
     46. B(H  38,C  22)                  1.0814         0.371681   
     47. B(H  39,C  23)                  1.0813         0.371836   
     48. B(H  40,H  12)                  2.3542         0.000663   
     49. B(H  40,N   3)                  2.5197         0.001688   
     50. B(H  40,C  25)                  1.0889         0.361540   
     51. B(H  41,C  27)                  1.0853         0.366358   
     52. B(H  42,C  28)                  1.0833         0.369140   
     53. B(H  43,C  29)                  1.0841         0.367926   
     54. B(H  44,C  30)                  1.0816         0.371406   
     55. B(H  45,C  33)                  1.0879         0.362934   
     56. B(H  46,C  33)                  1.0934         0.355624   
     57. B(H  47,C  33)                  1.0934         0.355608   
     58. B(H  47,H  11)                  3.8598         0.000003   
     59. B(O  48,N  34)                  1.3133         0.664218   
     60. B(O  48,C   6)                  1.9263         0.078026   
     61. B(H  49,C  10)                  1.0898         0.360320   
     62. B(N  50,C  18)                  1.4434         0.459915   
     63. B(O  51,N  50)                  1.2195         0.937657   
     64. B(O  52,N  50)                  1.2194         0.937948   
     65. B(H  53,C   1)                  1.0822         0.370591   
     66. A(C   1,C   0,C   5)          119.1231         0.437451   
     67. A(C   1,C   0,H  11)          120.4341         0.355641   
     68. A(C   5,C   0,H  11)          120.4427         0.355650   
     69. A(C   0,C   1,C   2)          118.6824         0.438687   
     70. A(C   2,C   1,H  53)          119.7389         0.356881   
     71. A(C   0,C   1,H  53)          121.5779         0.355925   
     72. A(N   3,C   2,H  12)          116.9577         0.359194   
     73. A(C   1,C   2,N   3)          121.6449         0.443583   
     74. A(C   1,C   2,H  12)          121.3971         0.356418   
     75. A(C   2,N   3,C   7)           99.8301         0.220887   
     76. A(C   2,N   3,C   6)          123.7340         0.292795   
     77. A(C   2,N   3,C   4)          120.2143         0.447562   
     78. A(C   4,N   3,C   6)          116.0254         0.292965   
     79. A(C   4,N   3,C   7)          131.8983         0.220997   
     80. A(C   6,N   3,C   7)           36.2132         0.164023   
     81. A(C   5,C   4,H  13)          121.4193         0.356247   
     82. A(N   3,C   4,H  13)          116.8827         0.359353   
     83. A(N   3,C   4,C   5)          121.6966         0.443739   
     84. A(C   0,C   5,C   4)          118.6357         0.438562   
     85. A(C   4,C   5,H  14)          119.7589         0.356773   
     86. A(C   0,C   5,H  14)          121.6054         0.355931   
     87. A(C   7,C   6,O  48)           86.3466         0.285369   
     88. A(C   7,C   6,C  25)          123.7756         0.374298   
     89. A(H  15,C   6,O  48)           86.7259         0.254519   
     90. A(N   3,C   6,C  25)           95.4198         0.269279   
     91. A(N   3,C   6,O  48)          171.6362         0.213085   
     92. A(N   3,C   6,C   7)           91.3159         0.272459   
     93. A(C   7,C   6,H  15)          115.6096         0.333720   
     94. A(N   3,C   6,H  15)           87.0500         0.243638   
     95. A(C  25,C   6,O  48)           92.5493         0.281964   
     96. A(H  15,C   6,C  25)          120.4420         0.329478   
     97. A(C   6,C   7,O   8)          123.5494         0.446845   
     98. A(N   3,C   7,C   6)           52.4709         0.207726   
     99. A(O   8,C   7,O   9)          125.0742         0.488230   
    100. A(C   6,C   7,O   9)          111.3726         0.412909   
    101. A(N   3,C   7,O   8)          105.0210         0.235335   
    102. A(N   3,C   7,O   9)          107.4508         0.221457   
    103. A(C   7,O   9,C  10)          116.1137         0.419370   
    104. A(H  16,C  10,H  17)          110.5930         0.291462   
    105. A(H  16,C  10,H  49)          109.8597         0.290889   
    106. A(O   9,C  10,H  49)          110.1132         0.335938   
    107. A(O   9,C  10,H  16)          109.9984         0.335931   
    108. A(H  17,C  10,H  49)          110.6251         0.291468   
    109. A(O   9,C  10,H  17)          105.5776         0.336639   
    110. A(C  19,C  18,C  23)          120.9650         0.436418   
    111. A(C  23,C  18,N  50)          119.4772         0.409814   
    112. A(C  19,C  18,N  50)          119.5573         0.410074   
    113. A(C  20,C  19,H  36)          120.4160         0.357972   
    114. A(C  18,C  19,H  36)          119.9217         0.355804   
    115. A(C  18,C  19,C  20)          119.6612         0.439525   
    116. A(C  21,C  20,H  37)          119.3724         0.351675   
    117. A(C  19,C  20,H  37)          119.5416         0.358863   
    118. A(C  19,C  20,C  21)          121.0852         0.432961   
    119. A(C  22,C  21,C  24)          118.3283         0.415899   
    120. A(C  20,C  21,C  24)          124.1871         0.416173   
    121. A(C  20,C  21,C  22)          117.4824         0.423520   
    122. A(C  23,C  22,H  38)          117.8624         0.358429   
    123. A(C  21,C  22,H  38)          120.5568         0.350604   
    124. A(C  21,C  22,C  23)          121.5796         0.433238   
    125. A(C  22,C  23,H  39)          120.6376         0.358454   
    126. A(C  18,C  23,H  39)          120.1497         0.355628   
    127. A(C  18,C  23,C  22)          119.2127         0.439816   
    128. A(C  25,C  24,N  34)          113.4574         0.410631   
    129. A(C  21,C  24,N  34)          124.2452         0.428602   
    130. A(C  21,C  24,C  25)          122.2954         0.391801   
    131. A(C  26,C  25,H  40)          108.8970         0.327343   
    132. A(C  24,C  25,H  40)          108.0337         0.329807   
    133. A(C   6,C  25,H  40)          107.5523         0.327093   
    134. A(C  24,C  25,C  26)          112.5386         0.372845   
    135. A(C   6,C  25,C  26)          110.0275         0.369646   
    136. A(C   6,C  25,C  24)          109.6438         0.372547   
    137. A(C  27,C  26,C  31)          118.8464         0.432860   
    138. A(C  25,C  26,C  31)          121.0978         0.398146   
    139. A(C  25,C  26,C  27)          120.0293         0.401488   
    140. A(C  28,C  27,H  41)          119.7425         0.355093   
    141. A(C  26,C  27,H  41)          118.7765         0.354903   
    142. A(C  26,C  27,C  28)          121.4780         0.436827   
    143. A(C  27,C  28,C  29)          119.0991         0.437335   
    144. A(C  29,C  28,H  42)          120.6524         0.355747   
    145. A(C  27,C  28,H  42)          120.2484         0.355549   
    146. A(C  28,C  29,C  30)          120.6101         0.437159   
    147. A(C  30,C  29,H  43)          119.1206         0.355216   
    148. A(C  28,C  29,H  43)          120.2691         0.355548   
    149. A(C  29,C  30,C  31)          119.9349         0.435292   
    150. A(C  31,C  30,H  44)          120.4583         0.354685   
    151. A(C  29,C  30,H  44)          119.6068         0.355784   
    152. A(C  30,C  31,O  32)          123.4738         0.434332   
    153. A(C  26,C  31,O  32)          116.5028         0.431980   
    154. A(C  26,C  31,C  30)          120.0233         0.431515   
    155. A(C  31,O  32,C  33)          118.4961         0.416841   
    156. A(H  46,C  33,H  47)          109.5984         0.289698   
    157. A(H  45,C  33,H  47)          109.5075         0.290624   
    158. A(O  32,C  33,H  47)          110.9351         0.338758   
    159. A(H  45,C  33,H  46)          109.5813         0.290626   
    160. A(O  32,C  33,H  46)          111.1771         0.338760   
    161. A(O  32,C  33,H  45)          105.9693         0.339913   
    162. A(C  24,N  34,O  35)          127.2850         0.462591   
    163. A(O  35,N  34,O  48)          116.8820         0.453994   
    164. A(C  24,N  34,O  48)          115.8321         0.441419   
    165. A(C   6,O  48,N  34)          104.0419         0.302845   
    166. A(O  51,N  50,O  52)          123.2493         0.491494   
    167. A(C  18,N  50,O  52)          118.3238         0.434461   
    168. A(C  18,N  50,O  51)          118.4261         0.434436   
    169. D(H  53,C   1,C   0,C   5)   -179.8819         0.027842   
    170. D(C   2,C   1,C   0,H  11)    179.6334         0.027842   
    171. D(C   2,C   1,C   0,C   5)     -0.2235         0.027842   
    172. D(H  53,C   1,C   0,H  11)     -0.0250         0.027842   
    173. D(H  12,C   2,C   1,C   0)   -179.2008         0.028797   
    174. D(N   3,C   2,C   1,H  53)   -179.7424         0.028797   
    175. D(H  12,C   2,C   1,H  53)      0.4640         0.028797   
    176. D(N   3,C   2,C   1,C   0)      0.5928         0.028797   
    177. D(C   6,N   3,C   2,H  12)      1.2783         0.050484   
    178. D(C   4,N   3,C   2,C   1)     -0.4676         0.050484   
    179. D(C   7,N   3,C   2,C   1)    151.8102         0.050484   
    180. D(C   7,N   3,C   2,H  12)    -28.3874         0.050484   
    181. D(C   4,N   3,C   2,H  12)    179.3347         0.050484   
    182. D(C   6,N   3,C   2,C   1)   -178.5240         0.050484   
    183. D(C   5,C   4,N   3,C   2)     -0.0327         0.053955   
    184. D(H  13,C   4,N   3,C   2)   -179.6149         0.053955   
    185. D(C   5,C   4,N   3,C   6)    178.1686         0.053955   
    186. D(C   5,C   4,N   3,C   7)   -142.0231         0.053955   
    187. D(H  13,C   4,N   3,C   7)     38.3947         0.053955   
    188. D(H  13,C   4,N   3,C   6)     -1.4136         0.053955   
    189. D(H  14,C   5,C   4,H  13)     -0.0199         0.031188   
    190. D(C   0,C   5,C   4,H  13)    179.9499         0.031188   
    191. D(H  14,C   5,C   0,H  11)     -0.1321         0.027852   
    192. D(H  14,C   5,C   0,C   1)    179.7247         0.027852   
    193. D(C   4,C   5,C   0,H  11)    179.8987         0.027852   
    194. D(C   0,C   5,C   4,N   3)      0.3866         0.031188   
    195. D(C   4,C   5,C   0,C   1)     -0.2445         0.027852   
    196. D(H  14,C   5,C   4,N   3)   -179.5832         0.031188   
    197. D(H  15,C   6,N   3,C   2)   -171.2128         0.001773   
    198. D(C   7,C   6,N   3,C   4)    126.2343         0.001773   
    199. D(C   7,C   6,N   3,C   2)    -55.6347         0.001773   
    200. D(O  48,C   6,N   3,C   4)     52.6110         0.001773   
    201. D(O  48,C   6,N   3,C   2)   -129.2580         0.001773   
    202. D(C  25,C   6,N   3,C   7)    124.1087         0.001773   
    203. D(C  25,C   6,N   3,C   2)     68.4740         0.001773   
    204. D(H  15,C   6,N   3,C   7)   -115.5781         0.001773   
    205. D(C  25,C   6,N   3,C   4)   -109.6570         0.001773   
    206. D(O  48,C   6,N   3,C   7)    -73.6233         0.001773   
    207. D(H  15,C   6,N   3,C   4)     10.6562         0.001773   
    208. D(N   3,C   7,C   6,O  48)    171.9614         0.015055   
    209. D(N   3,C   7,C   6,C  25)    -97.4132         0.015055   
    210. D(N   3,C   7,C   6,H  15)     87.3591         0.015055   
    211. D(O   9,C   7,C   6,H  15)   -176.5867         0.015055   
    212. D(O   9,C   7,C   6,C  25)     -1.3591         0.015055   
    213. D(O   8,C   7,C   6,C  25)    179.3194         0.015055   
    214. D(O   8,C   7,C   6,H  15)      4.0917         0.015055   
    215. D(O   9,C   7,C   6,O  48)    -91.9845         0.015055   
    216. D(O   9,C   7,N   3,C   6)   -103.9006         0.001506   
    217. D(O   8,C   7,C   6,O  48)     88.6940         0.015055   
    218. D(O   8,C   7,C   6,N   3)    -83.2674         0.015055   
    219. D(O   9,C   7,N   3,C   4)    179.2485         0.001506   
    220. D(O   9,C   7,N   3,C   2)     31.9367         0.001506   
    221. D(O   8,C   7,N   3,C   6)    121.0249         0.001506   
    222. D(O   8,C   7,N   3,C   4)     44.1740         0.001506   
    223. D(O   8,C   7,N   3,C   2)   -103.1378         0.001506   
    224. D(C   6,C   7,N   3,C   4)    -76.8509         0.001506   
    225. D(O   9,C   7,C   6,N   3)     96.0541         0.015055   
    226. D(C   6,C   7,N   3,C   2)    135.8373         0.001506   
    227. D(C  10,O   9,C   7,N   3)   -125.4928         0.045838   
    228. D(C  10,O   9,C   7,O   8)     -1.9417         0.045838   
    229. D(C  10,O   9,C   7,C   6)    178.7492         0.045838   
    230. D(H  17,C  10,O   9,C   7)    179.5356         0.019633   
    231. D(H  16,C  10,O   9,C   7)    -61.1219         0.019633   
    232. D(H  49,C  10,O   9,C   7)     60.0945         0.019633   
    233. D(H  36,C  19,C  18,N  50)      0.6250         0.027566   
    234. D(H  36,C  19,C  18,C  23)   -179.6156         0.027566   
    235. D(C  20,C  19,C  18,N  50)   -178.9893         0.027566   
    236. D(C  20,C  19,C  18,C  23)      0.7700         0.027566   
    237. D(H  37,C  20,C  19,H  36)      0.0853         0.029753   
    238. D(H  37,C  20,C  19,C  18)    179.6977         0.029753   
    239. D(C  21,C  20,C  19,H  36)   -179.5907         0.029753   
    240. D(C  21,C  20,C  19,C  18)      0.0217         0.029753   
    241. D(C  24,C  21,C  20,H  37)     -1.2322         0.023110   
    242. D(C  24,C  21,C  20,C  19)    178.4443         0.023110   
    243. D(C  22,C  21,C  20,H  37)    179.3123         0.023110   
    244. D(C  22,C  21,C  20,C  19)     -1.0112         0.023110   
    245. D(H  38,C  22,C  21,C  24)      1.3714         0.022933   
    246. D(H  38,C  22,C  21,C  20)   -179.1403         0.022933   
    247. D(C  23,C  22,C  21,C  24)   -178.2170         0.022933   
    248. D(C  23,C  22,C  21,C  20)      1.2713         0.022933   
    249. D(H  39,C  23,C  22,H  38)     -0.1906         0.030219   
    250. D(H  39,C  23,C  22,C  21)    179.4084         0.030219   
    251. D(C  18,C  23,C  22,H  38)    179.8730         0.030219   
    252. D(C  18,C  23,C  22,C  21)     -0.5280         0.030219   
    253. D(H  39,C  23,C  18,N  50)     -0.6955         0.027357   
    254. D(H  39,C  23,C  18,C  19)    179.5450         0.027357   
    255. D(C  22,C  23,C  18,N  50)    179.2412         0.027357   
    256. D(C  22,C  23,C  18,C  19)     -0.5183         0.027357   
    257. D(N  34,C  24,C  21,C  22)    177.6878         0.018720   
    258. D(N  34,C  24,C  21,C  20)     -1.7634         0.018720   
    259. D(C  25,C  24,C  21,C  22)     -1.7613         0.018720   
    260. D(C  25,C  24,C  21,C  20)    178.7875         0.018720   
    261. D(H  40,C  25,C  24,N  34)   -134.4682         0.012566   
    262. D(H  40,C  25,C  24,C  21)     45.0354         0.012566   
    263. D(C  26,C  25,C  24,N  34)    105.2749         0.012566   
    264. D(C   6,C  25,C  24,N  34)    -17.5340         0.012566   
    265. D(C   6,C  25,C  24,C  21)    161.9695         0.012566   
    266. D(H  40,C  25,C   6,N   3)    -46.3234         0.012946   
    267. D(H  40,C  25,C   6,O  48)    136.2182         0.012946   
    268. D(H  40,C  25,C   6,H  15)   -136.0825         0.012946   
    269. D(H  40,C  25,C   6,C   7)     48.9096         0.012946   
    270. D(C  26,C  25,C   6,N   3)     72.1559         0.012946   
    271. D(C  26,C  25,C   6,O  48)   -105.3024         0.012946   
    272. D(C  26,C  25,C   6,H  15)    -17.6032         0.012946   
    273. D(C  26,C  25,C   6,C   7)    167.3890         0.012946   
    274. D(C  26,C  25,C  24,C  21)    -75.2215         0.012566   
    275. D(C  24,C  25,C   6,N   3)   -163.5597         0.012946   
    276. D(C  24,C  25,C   6,O  48)     18.9819         0.012946   
    277. D(C  24,C  25,C   6,H  15)    106.6811         0.012946   
    278. D(C  24,C  25,C   6,C   7)    -68.3267         0.012946   
    279. D(C  31,C  26,C  25,H  40)      6.3247         0.011520   
    280. D(C  31,C  26,C  25,C  24)    126.0825         0.011520   
    281. D(C  31,C  26,C  25,C   6)   -111.3242         0.011520   
    282. D(C  27,C  26,C  25,H  40)   -175.5662         0.011520   
    283. D(C  27,C  26,C  25,C  24)    -55.8085         0.011520   
    284. D(C  27,C  26,C  25,C   6)     66.7849         0.011520   
    285. D(H  41,C  27,C  26,C  31)   -179.7148         0.027521   
    286. D(H  41,C  27,C  26,C  25)      2.1338         0.027521   
    287. D(C  28,C  27,C  26,C  31)      0.9239         0.027521   
    288. D(C  28,C  27,C  26,C  25)   -177.2276         0.027521   
    289. D(H  42,C  28,C  27,H  41)      0.2970         0.027707   
    290. D(H  42,C  28,C  27,C  26)    179.6523         0.027707   
    291. D(C  29,C  28,C  27,H  41)   -179.5663         0.027707   
    292. D(C  29,C  28,C  27,C  26)     -0.2110         0.027707   
    293. D(H  43,C  29,C  28,C  27)    179.7526         0.027901   
    294. D(C  30,C  29,C  28,H  42)    179.7042         0.027901   
    295. D(C  30,C  29,C  28,C  27)     -0.4330         0.027901   
    296. D(H  43,C  29,C  28,H  42)     -0.1102         0.027901   
    297. D(H  44,C  30,C  29,H  43)      0.1007         0.027575   
    298. D(H  44,C  30,C  29,C  28)   -179.7158         0.027575   
    299. D(C  31,C  30,C  29,H  43)   -179.8394         0.027575   
    300. D(C  31,C  30,C  29,C  28)      0.3441         0.027575   
    301. D(O  32,C  31,C  30,H  44)      0.5640         0.026527   
    302. D(O  32,C  31,C  30,C  29)   -179.4964         0.026527   
    303. D(C  26,C  31,C  30,H  44)   -179.5558         0.026527   
    304. D(C  26,C  31,C  30,C  29)      0.3838         0.026527   
    305. D(O  32,C  31,C  26,C  27)    178.8853         0.024886   
    306. D(O  32,C  31,C  26,C  25)     -2.9837         0.024886   
    307. D(C  30,C  31,C  26,C  27)     -1.0030         0.024886   
    308. D(C  30,C  31,C  26,C  25)    177.1280         0.024886   
    309. D(C  33,O  32,C  31,C  30)     -2.8353         0.030819   
    310. D(C  33,O  32,C  31,C  26)    177.2805         0.030819   
    311. D(H  47,C  33,O  32,C  31)    -59.9232         0.020628   
    312. D(H  46,C  33,O  32,C  31)     62.3092         0.020628   
    313. D(H  45,C  33,O  32,C  31)   -178.6975         0.020628   
    314. D(O  48,N  34,C  24,C  25)      2.0448         0.041741   
    315. D(O  48,N  34,C  24,C  21)   -177.4476         0.041741   
    316. D(O  35,N  34,C  24,C  25)   -178.3223         0.041741   
    317. D(O  35,N  34,C  24,C  21)      2.1854         0.041741   
    318. D(C   6,O  48,N  34,O  35)   -169.0368         0.038533   
    319. D(C   6,O  48,N  34,C  24)     10.6358         0.038533   
    320. D(N  34,O  48,C   6,N   3)    179.2503         0.001887   
    321. D(N  34,O  48,C   6,C  25)    -18.4178         0.001887   
    322. D(N  34,O  48,C   6,H  15)   -138.7790         0.001887   
    323. D(N  34,O  48,C   6,C   7)    105.2779         0.001887   
    324. D(O  52,N  50,C  18,C  23)     -2.9791         0.016664   
    325. D(O  52,N  50,C  18,C  19)    176.7838         0.016664   
    326. D(O  51,N  50,C  18,C  23)    177.3312         0.016664   
    327. D(O  51,N  50,C  18,C  19)     -2.9059         0.016664   
    -----------------------------------------------------------------

Number of atoms                         .... 54
Number of degrees of freedom            .... 327

         *************************************************************
         *                GEOMETRY OPTIMIZATION CYCLE   1            *
         *************************************************************
---------------------------------
CARTESIAN COORDINATES (ANGSTROEM)
---------------------------------
  C     -4.785799   -1.526161    1.785365
  C     -3.815645   -0.825728    2.485281
  C     -2.940196   -0.021465    1.780634
  N     -3.016286    0.102032    0.458980
  C     -3.943500   -0.562240   -0.222317
  C     -4.850134   -1.394820    0.406895
  C     -1.752125    1.218010   -0.631382
  C     -2.062705    2.431180    0.186936
  O     -3.017879    3.138816   -0.007689
  O     -1.167242    2.608314    1.146521
  C     -1.352353    3.760723    1.976621
  H     -5.483019   -2.169552    2.308649
  H     -2.156742    0.535659    2.282071
  H     -3.952571   -0.426803   -1.298349
  H     -5.588208   -1.926236   -0.179618
  H     -2.406154    1.041246   -1.468506
  H     -1.299476    4.666929    1.373457
  H     -0.540543    3.734013    2.698128
  C      4.461031   -0.206385    0.708994
  C      4.420588    0.896201   -0.132371
  C      3.211504    1.329048   -0.631446
  C      2.009407    0.669708   -0.301191
  C      2.096169   -0.460104    0.540038
  C      3.301143   -0.892032    1.044375
  C      0.709692    1.082691   -0.757216
  C     -0.542822    0.331765   -0.400267
  C     -0.688611   -0.959276   -1.180900
  C     -0.667732   -0.938074   -2.568317
  C     -0.855152   -2.092864   -3.313136
  C     -1.063410   -3.293945   -2.653607
  C     -1.075853   -3.345722   -1.267148
  C     -0.884959   -2.182073   -0.526613
  O     -0.873655   -2.151782    0.823882
  C     -1.126003   -3.352827    1.528233
  N      0.488338    2.149190   -1.512519
  O      1.335100    2.932044   -1.976878
  H      5.335138    1.413955   -0.387447
  H      3.181771    2.188415   -1.280716
  H      1.207007   -1.011405    0.813621
  H      3.348830   -1.754072    1.695342
  H     -0.504797    0.098756    0.662745
  H     -0.510834    0.009293   -3.074060
  H     -0.840560   -2.052462   -4.395535
  H     -1.216018   -4.207500   -3.217082
  H     -1.235235   -4.292539   -0.769191
  H     -1.091451   -3.093458    2.584162
  H     -0.363706   -4.105909    1.310738
  H     -2.114570   -3.749858    1.281936
  O     -0.770048    2.402515   -1.790307
  H     -2.316676    3.707842    2.481619
  N      5.726231   -0.644643    1.248072
  O      6.738638   -0.059407    0.902101
  O      5.728732   -1.578781    2.031870
  H     -3.728334   -0.900376    3.561350

----------------------------
CARTESIAN COORDINATES (A.U.)
----------------------------
  NO LB      ZA    FRAG     MASS         X           Y           Z
   0 C     6.0000    0    12.011   -9.043849   -2.884026    3.373851
   1 C     6.0000    0    12.011   -7.210524   -1.560400    4.696500
   2 C     6.0000    0    12.011   -5.556165   -0.040563    3.364911
   3 N     7.0000    0    14.007   -5.699954    0.192813    0.867347
   4 C     6.0000    0    12.011   -7.452135   -1.062480   -0.420118
   5 C     6.0000    0    12.011   -9.165425   -2.635828    0.768920
   6 C     6.0000    0    12.011   -3.311036    2.301705   -1.193139
   7 C     6.0000    0    12.011   -3.897948    4.594264    0.353258
   8 O     8.0000    0    15.999   -5.702965    5.931503   -0.014530
   9 O     8.0000    0    15.999   -2.205768    4.928999    2.166611
  10 C     6.0000    0    12.011   -2.555577    7.106737    3.735272
  11 H     1.0000    0     1.008  -10.361404   -4.099859    4.362714
  12 H     1.0000    0     1.008   -4.075652    1.012249    4.312489
  13 H     1.0000    0     1.008   -7.469277   -0.806541   -2.453524
  14 H     1.0000    0     1.008  -10.560183   -3.640059   -0.339429
  15 H     1.0000    0     1.008   -4.546972    1.967670   -2.775074
  16 H     1.0000    0     1.008   -2.455654    8.819218    2.595458
  17 H     1.0000    0     1.008   -1.021478    7.056262    5.098723
  18 C     6.0000    0    12.011    8.430127   -0.390011    1.339804
  19 C     6.0000    0    12.011    8.353701    1.693574   -0.250145
  20 C     6.0000    0    12.011    6.068863    2.511537   -1.193260
  21 C     6.0000    0    12.011    3.797229    1.265565   -0.569169
  22 C     6.0000    0    12.011    3.961185   -0.869471    1.020524
  23 C     6.0000    0    12.011    6.238256   -1.685696    1.973583
  24 C     6.0000    0    12.011    1.341124    2.045989   -1.430931
  25 C     6.0000    0    12.011   -1.025785    0.626945   -0.756395
  26 C     6.0000    0    12.011   -1.301286   -1.812769   -2.231578
  27 C     6.0000    0    12.011   -1.261831   -1.772703   -4.853416
  28 C     6.0000    0    12.011   -1.616003   -3.954940   -6.260920
  29 C     6.0000    0    12.011   -2.009554   -6.224654   -5.014590
  30 C     6.0000    0    12.011   -2.033068   -6.322498   -2.394563
  31 C     6.0000    0    12.011   -1.672330   -4.123520   -0.995154
  32 O     8.0000    0    15.999   -1.650969   -4.066279    1.556911
  33 C     6.0000    0    12.011   -2.127837   -6.335925    2.887942
  34 N     7.0000    0    14.007    0.922825    4.061381   -2.858247
  35 O     8.0000    0    15.999    2.522973    5.540760   -3.735758
  36 H     1.0000    0     1.008   10.081950    2.671988   -0.732169
  37 H     1.0000    0     1.008    6.012676    4.135505   -2.420202
  38 H     1.0000    0     1.008    2.280913   -1.911278    1.537521
  39 H     1.0000    0     1.008    6.328372   -3.314716    3.203732
  40 H     1.0000    0     1.008   -0.953928    0.186622    1.252407
  41 H     1.0000    0     1.008   -0.965336    0.017561   -5.809132
  42 H     1.0000    0     1.008   -1.588428   -3.878591   -8.306357
  43 H     1.0000    0     1.008   -2.297941   -7.951023   -6.079404
  44 H     1.0000    0     1.008   -2.334256   -8.111723   -1.453560
  45 H     1.0000    0     1.008   -2.062543   -5.845788    4.883358
  46 H     1.0000    0     1.008   -0.687305   -7.759044    2.476936
  47 H     1.0000    0     1.008   -3.995958   -7.086205    2.422508
  48 O     8.0000    0    15.999   -1.455180    4.540095   -3.383190
  49 H     1.0000    0     1.008   -4.377883    7.006806    4.689580
  50 N     7.0000    0    14.007   10.821008   -1.218199    2.358514
  51 O     8.0000    0    15.999   12.734180   -0.112263    1.704724
  52 O     8.0000    0    15.999   10.825735   -2.983464    3.839678
  53 H     1.0000    0     1.008   -7.045530   -1.701464    6.729976

--------------------------------
INTERNAL COORDINATES (ANGSTROEM)
--------------------------------
 C      0   0   0     0.000000000000     0.00000000     0.00000000
 C      1   0   0     1.386249464657     0.00000000     0.00000000
 C      2   1   0     1.381946930739   118.68239691     0.00000000
 N      3   2   1     1.329590347748   121.64492415     0.59275932
 C      4   3   2     1.328588986101   120.21429195   359.53240853
 C      5   4   3     1.382419041861   121.69658214   359.96727254
 C      4   3   2     2.008083469741   123.73396050   181.47595347
 C      7   4   3     1.495956461407    91.31587646   304.36528003
 O      8   7   4     1.204568374729   123.54939766   276.73259474
 O      8   7   4     1.324399415037   111.37256198    96.05414127
 C     10   8   7     1.432263451884   116.11367525   178.74916537
 H      1   2   3     1.083463821240   120.43407178   179.63336873
 H      3   2   1     1.084263061467   121.39706354   180.79916672
 H      5   4   3     1.084559970234   116.88271810   180.38505423
 H      6   5   4     1.082198546340   119.75894042   180.41680746
 H      7   4   3     1.076928983691    87.05001798   188.78720187
 H     11  10   8     1.089867928907   109.99841725   298.87809294
 H     11  10   8     1.086425906930   105.57763590   179.53557067
 C     10   8   7     6.308043856764   119.55989251    19.22982946
 C     19  10   8     1.387525346388    70.21304862    76.88139353
 C     20  19  10     1.377794070277   119.66115462   333.30612048
 C     21  20  19     1.410260542607   121.08524563     0.00000000
 C     22  21  20     1.411265046130   117.48241579   358.98882256
 C     23  22  21     1.375819736531   121.57959593     1.27132047
 C     22  21  20     1.437975257137   124.18711437   178.44428824
 C     25  22  21     1.503360823712   122.29540023   178.78754419
 C     26  25  22     1.515727276554   112.53859345   284.77847662
 C     27  26  25     1.387736066165   120.02932530   304.19153453
 C     28  27  26     1.386874739571   121.47795009   182.77242529
 C     29  28  27     1.385981769348   119.09906734   359.78897138
 C     30  29  28     1.387481259210   120.61007076   359.56698117
 C     31  30  29     1.392448060310   119.93489156     0.34410677
 O     32  31  30     1.350881960099   123.47381772   180.50356184
 C     33  32  31     1.415026125670   118.49605269   357.16467255
 N     25  22  21     1.325481170038   124.24522852   358.23661944
 O     35  25  22     1.243179613266   127.28497127     2.18535373
 H     20  19  10     1.081450263670   119.92169797   152.92047784
 H     21  20  19     1.077472609804   119.54161898   179.69767363
 H     23  22  21     1.081383147979   120.55680978   180.85967518
 H     24  23  22     1.081270108094   120.63763278   179.40843357
 H     26  25  22     1.088913957505   108.03373027    45.03536428
 H     28  27  26     1.085309724061   118.77646835     2.13375703
 H     29  28  27     1.083251052743   120.24841723   179.65229310
 H     30  29  28     1.084147598491   120.26907410   179.75256457
 H     31  30  29     1.081585053180   119.60682023   180.28418085
 H     34  33  32     1.087865879558   105.96929439   181.30254715
 H     34  33  32     1.093404449396   111.17713840    62.30919243
 H     34  33  32     1.093416910725   110.93510974   300.07683568
 O     35  25  22     1.313344986500   115.83207719   182.55241475
 H     11  10   8     1.089834037133   110.11315533    60.09454890
 N     19  10   8     1.443400916117   153.08255420   193.58835194
 O     51  19  10     1.219493764718   118.42609575   252.18360977
 O     51  19  10     1.219409431999   118.32384516    71.87329934
 H      2   1   3     1.082182991636   121.57786153   180.34160950

---------------------------
INTERNAL COORDINATES (A.U.)
---------------------------
 C      0   0   0     0.000000000000     0.00000000     0.00000000
 C      1   0   0     2.619631841496     0.00000000     0.00000000
 C      2   1   0     2.611501230710   118.68239691     0.00000000
 N      3   2   1     2.512561627549   121.64492415     0.59275932
 C      4   3   2     2.510669328275   120.21429195   359.53240853
 C      5   4   3     2.612393391435   121.69658214   359.96727254
 C      4   3   2     3.794727811866   123.73396050   181.47595347
 C      7   4   3     2.826948020328    91.31587646   304.36528003
 O      8   7   4     2.276304337820   123.54939766   276.73259474
 O      8   7   4     2.502752186345   111.37256198    96.05414127
 C     10   8   7     2.706585675685   116.11367525   178.74916537
 H      1   2   3     2.047449898156   120.43407178   179.63336873
 H      3   2   1     2.048960243299   121.39706354   180.79916672
 H      5   4   3     2.049521319556   116.88271810   180.38505423
 H      6   5   4     2.045058875111   119.75894042   180.41680746
 H      7   4   3     2.035100844857    87.05001798   188.78720187
 H     11  10   8     2.059551907779   109.99841725   298.87809294
 H     11  10   8     2.053047428895   105.57763590   179.53557067
 C     10   8   7    11.920475330048   119.55989251    19.22982946
 C     19  10   8     2.622042908548    70.21304862    76.88139353
 C     20  19  10     2.603653461764   119.66115462   333.30612048
 C     21  20  19     2.665006203002   121.08524563     0.00000000
 C     22  21  20     2.666904439562   117.48241579   358.98882256
 C     23  22  21     2.599922511688   121.57959593     1.27132047
 C     22  21  20     2.717379423344   124.18711437   178.44428824
 C     25  22  21     2.840940237283   122.29540023   178.78754419
 C     26  25  22     2.864309446402   112.53859345   284.77847662
 C     27  26  25     2.622441111216   120.02932530   304.19153453
 C     28  27  26     2.620813439843   121.47795009   182.77242529
 C     29  28  27     2.619125970676   119.09906734   359.78897138
 C     30  29  28     2.621959595855   120.61007076   359.56698117
 C     31  30  29     2.631345489696   119.93489156     0.34410677
 O     32  31  30     2.552796943843   123.47381772   180.50356184
 C     33  32  31     2.674011849861   118.49605269   357.16467255
 N     25  22  21     2.504796407042   124.24522852   358.23661944
 O     35  25  22     2.349269004347   127.28497127     2.18535373
 H     20  19  10     2.043644825793   119.92169797   152.92047784
 H     21  20  19     2.036128149331   119.54161898   179.69767363
 H     23  22  21     2.043517995519   120.55680978   180.85967518
 H     24  23  22     2.043304381093   120.63763278   179.40843357
 H     26  25  22     2.057749163090   108.03373027    45.03536428
 H     28  27  26     2.050938148957   118.77646835     2.13375703
 H     29  28  27     2.047047823966   120.24841723   179.65229310
 H     30  29  28     2.048742049897   120.26907410   179.75256457
 H     31  30  29     2.043899541053   119.60682023   180.28418085
 H     34  33  32     2.055768582802   105.96929439   181.30254715
 H     34  33  32     2.066234962969   111.17713840    62.30919243
 H     34  33  32     2.066258511468   110.93510974   300.07683568
 O     35  25  22     2.481862343844   115.83207719   182.55241475
 H     11  10   8     2.059487861607   110.11315533    60.09454890
 N     19  10   8     2.727632432913   153.08255420   193.58835194
 O     51  19  10     2.304509237342   118.42609575   252.18360977
 O     51  19  10     2.304349871599   118.32384516    71.87329934
 H      2   1   3     2.045029480979   121.57786153   180.34160950

---------------------
BASIS SET INFORMATION
---------------------
There are 4 groups of distinct atoms

 Group   1 Type C   : 11s6p2d1f contracted to 5s3p2d1f pattern {62111/411/11/1}
 Group   2 Type N   : 11s6p2d1f contracted to 5s3p2d1f pattern {62111/411/11/1}
 Group   3 Type O   : 11s6p2d1f contracted to 5s3p2d1f pattern {62111/411/11/1}
 Group   4 Type H   : 5s1p contracted to 3s1p pattern {311/1}

Atom   0C    basis set group =>   1
Atom   1C    basis set group =>   1
Atom   2C    basis set group =>   1
Atom   3N    basis set group =>   2
Atom   4C    basis set group =>   1
Atom   5C    basis set group =>   1
Atom   6C    basis set group =>   1
Atom   7C    basis set group =>   1
Atom   8O    basis set group =>   3
Atom   9O    basis set group =>   3
Atom  10C    basis set group =>   1
Atom  11H    basis set group =>   4
Atom  12H    basis set group =>   4
Atom  13H    basis set group =>   4
Atom  14H    basis set group =>   4
Atom  15H    basis set group =>   4
Atom  16H    basis set group =>   4
Atom  17H    basis set group =>   4
Atom  18C    basis set group =>   1
Atom  19C    basis set group =>   1
Atom  20C    basis set group =>   1
Atom  21C    basis set group =>   1
Atom  22C    basis set group =>   1
Atom  23C    basis set group =>   1
Atom  24C    basis set group =>   1
Atom  25C    basis set group =>   1
Atom  26C    basis set group =>   1
Atom  27C    basis set group =>   1
Atom  28C    basis set group =>   1
Atom  29C    basis set group =>   1
Atom  30C    basis set group =>   1
Atom  31C    basis set group =>   1
Atom  32O    basis set group =>   3
Atom  33C    basis set group =>   1
Atom  34N    basis set group =>   2
Atom  35O    basis set group =>   3
Atom  36H    basis set group =>   4
Atom  37H    basis set group =>   4
Atom  38H    basis set group =>   4
Atom  39H    basis set group =>   4
Atom  40H    basis set group =>   4
Atom  41H    basis set group =>   4
Atom  42H    basis set group =>   4
Atom  43H    basis set group =>   4
Atom  44H    basis set group =>   4
Atom  45H    basis set group =>   4
Atom  46H    basis set group =>   4
Atom  47H    basis set group =>   4
Atom  48O    basis set group =>   3
Atom  49H    basis set group =>   4
Atom  50N    basis set group =>   2
Atom  51O    basis set group =>   3
Atom  52O    basis set group =>   3
Atom  53H    basis set group =>   4
---------------------------------
AUXILIARY/J BASIS SET INFORMATION
---------------------------------
There are 4 groups of distinct atoms

 Group   1 Type C   : 12s5p4d2f1g contracted to 6s4p3d1f1g pattern {711111/2111/211/2/1}
 Group   2 Type N   : 12s5p4d2f1g contracted to 6s4p3d1f1g pattern {711111/2111/211/2/1}
 Group   3 Type O   : 12s5p4d2f1g contracted to 6s4p3d1f1g pattern {711111/2111/211/2/1}
 Group   4 Type H   : 5s2p1d contracted to 3s1p1d pattern {311/2/1}

Atom   0C    basis set group =>   1
Atom   1C    basis set group =>   1
Atom   2C    basis set group =>   1
Atom   3N    basis set group =>   2
Atom   4C    basis set group =>   1
Atom   5C    basis set group =>   1
Atom   6C    basis set group =>   1
Atom   7C    basis set group =>   1
Atom   8O    basis set group =>   3
Atom   9O    basis set group =>   3
Atom  10C    basis set group =>   1
Atom  11H    basis set group =>   4
Atom  12H    basis set group =>   4
Atom  13H    basis set group =>   4
Atom  14H    basis set group =>   4
Atom  15H    basis set group =>   4
Atom  16H    basis set group =>   4
Atom  17H    basis set group =>   4
Atom  18C    basis set group =>   1
Atom  19C    basis set group =>   1
Atom  20C    basis set group =>   1
Atom  21C    basis set group =>   1
Atom  22C    basis set group =>   1
Atom  23C    basis set group =>   1
Atom  24C    basis set group =>   1
Atom  25C    basis set group =>   1
Atom  26C    basis set group =>   1
Atom  27C    basis set group =>   1
Atom  28C    basis set group =>   1
Atom  29C    basis set group =>   1
Atom  30C    basis set group =>   1
Atom  31C    basis set group =>   1
Atom  32O    basis set group =>   3
Atom  33C    basis set group =>   1
Atom  34N    basis set group =>   2
Atom  35O    basis set group =>   3
Atom  36H    basis set group =>   4
Atom  37H    basis set group =>   4
Atom  38H    basis set group =>   4
Atom  39H    basis set group =>   4
Atom  40H    basis set group =>   4
Atom  41H    basis set group =>   4
Atom  42H    basis set group =>   4
Atom  43H    basis set group =>   4
Atom  44H    basis set group =>   4
Atom  45H    basis set group =>   4
Atom  46H    basis set group =>   4
Atom  47H    basis set group =>   4
Atom  48O    basis set group =>   3
Atom  49H    basis set group =>   4
Atom  50N    basis set group =>   2
Atom  51O    basis set group =>   3
Atom  52O    basis set group =>   3
Atom  53H    basis set group =>   4


           ************************************************************
           *        Program running with 24 parallel MPI-processes    *
           *              working on a common directory               *
           ************************************************************
------------------------------------------------------------------------------
                           ORCA GTO INTEGRAL CALCULATION
                           -- RI-GTO INTEGRALS CHOSEN --
------------------------------------------------------------------------------
------------------------------------------------------------------------------
                   ___                                                        
                  /   \      - P O W E R E D   B Y -                         
                 /     \                                                     
                 |  |  |   _    _      __       _____    __    __             
                 |  |  |  | |  | |    /  \     |  _  \  |  |  /  |          
                  \  \/   | |  | |   /    \    | | | |  |  | /  /          
                 / \  \   | |__| |  /  /\  \   | |_| |  |  |/  /          
                |  |  |   |  __  | /  /__\  \  |    /   |      \           
                |  |  |   | |  | | |   __   |  |    \   |  |\   \          
                \     /   | |  | | |  |  |  |  | |\  \  |  | \   \       
                 \___/    |_|  |_| |__|  |__|  |_| \__\ |__|  \__/        
                                                                              
                      - O R C A' S   B I G   F R I E N D -                    
                                      &                                       
                       - I N T E G R A L  F E E D E R -                       
                                                                              
 v1 FN, 2020, v2 2021                                                         
------------------------------------------------------------------------------


Reading SHARK input file TS2_4-NO2Ph/TS2_4-NO2Ph.SHARKINP.tmp ... ok
----------------------
SHARK INTEGRAL PACKAGE
----------------------

Number of atoms                             ...     54
Number of basis functions                   ...   1149
Number of shells                            ...    447
Maximum angular momentum                    ...      3
Integral batch strategy                     ... SHARK/LIBINT Hybrid
RI-J (if used) integral strategy            ... SPLIT-RIJ (Revised 2003 algorithm where possible)
Printlevel                                  ...      1
Contraction scheme used                     ... SEGMENTED contraction
Coulomb Range Separation                    ... NOT USED
Exchange Range Separation                   ... NOT USED
Finite Nucleus Model                        ... NOT USED
Auxiliary Coulomb fitting basis             ... AVAILABLE
   # of basis functions in Aux-J            ...   1848
   # of shells in Aux-J                     ...    600
   Maximum angular momentum in Aux-J        ...      4
Auxiliary J/K fitting basis                 ... NOT available
Auxiliary Correlation fitting basis         ... NOT available
Auxiliary 'external' fitting basis          ... NOT available
Integral threshold                          ...     2.500000e-11
Primitive cut-off                           ...     2.500000e-12
Primitive pair pre-selection threshold      ...     2.500000e-12

Calculating pre-screening integrals         ... done (  0.1 sec) Dimension = 447
Organizing shell pair data                  ... done (  0.8 sec)
Shell pair information
Total number of shell pairs                 ...    100128
Shell pairs after pre-screening             ...     64387
Total number of primitive shell pairs       ...    310080
Primitive shell pairs kept                  ...    126657
          la=0 lb=0:  16216 shell pairs
          la=1 lb=0:  18709 shell pairs
          la=1 lb=1:   5382 shell pairs
          la=2 lb=0:   9131 shell pairs
          la=2 lb=1:   5377 shell pairs
          la=2 lb=2:   1340 shell pairs
          la=3 lb=0:   4195 shell pairs
          la=3 lb=1:   2540 shell pairs
          la=3 lb=2:   1204 shell pairs
          la=3 lb=3:    293 shell pairs

Calculating one electron integrals          ... done (  0.1 sec)
Calculating RI/J V-Matrix + Cholesky decomp.... done (  0.3 sec)
Calculating Nuclear repulsion               ... done (  0.0 sec) ENN=   3536.592423233360 Eh

SHARK setup successfully completed in   2.4 seconds

Maximum memory used throughout the entire GTOINT-calculation: 97.3 MB


           ************************************************************
           *        Program running with 24 parallel MPI-processes    *
           *              working on a common directory               *
           ************************************************************
-------------------------------------------------------------------------------
                                 ORCA SCF
-------------------------------------------------------------------------------

------------
SCF SETTINGS
------------
Hamiltonian:
 Density Functional     Method          .... DFT(GTOs)
 Exchange Functional    Exchange        .... PBE
   PBE kappa parameter   XKappa         ....  0.804000
   PBE mue parameter    XMuePBE         ....  0.219520
 Correlation Functional Correlation     .... PBE
   PBE beta parameter  CBetaPBE         ....  0.066725
 LDA part of GGA corr.  LDAOpt          .... PW91-LDA
 Gradients option       PostSCFGGA      .... off
 Hybrid DFT is turned on
   Fraction HF Exchange ScalHFX         ....  0.250000
   Scaling of DF-GGA-X  ScalDFX         ....  0.750000
   Scaling of DF-GGA-C  ScalDFC         ....  1.000000
   Scaling of DF-LDA-C  ScalLDAC        ....  1.000000
   Perturbative correction              ....  0.000000
   Density functional embedding theory  .... OFF
   NL short-range parameter             ....  6.900000
 RI-approximation to the Coulomb term is turned on
   Number of AuxJ basis functions       .... 1848
   RIJ-COSX (HFX calculated with COS-X)).... on


General Settings:
 Integral files         IntName         .... TS2_4-NO2Ph/TS2_4-NO2Ph
 Hartree-Fock type      HFTyp           .... RHF
 Total Charge           Charge          ....    0
 Multiplicity           Mult            ....    1
 Number of Electrons    NEL             ....  236
 Basis Dimension        Dim             .... 1149
 Nuclear Repulsion      ENuc            ....   3536.5924232334 Eh

Convergence Acceleration:
 DIIS                   CNVDIIS         .... on
   Start iteration      DIISMaxIt       ....    12
   Startup error        DIISStart       ....  0.200000
   # of expansion vecs  DIISMaxEq       ....     5
   Bias factor          DIISBfac        ....   1.050
   Max. coefficient     DIISMaxC        ....  10.000
 Trust-Rad. Augm. Hess. CNVTRAH         .... auto
   Auto Start mean grad. ratio tolernc. ....  1.125000
   Auto Start start iteration           ....    20
   Auto Start num. interpolation iter.  ....    10
   Max. Number of Micro iterations      ....    16
   Max. Number of Macro iterations      .... Maxiter - #DIIS iter
   Number of Davidson start vectors     ....     2
   Converg. threshold I  (grad. norm)   ....   1.000e-05
   Converg. threshold II (energy diff.) ....   1.000e-08
   Grad. Scal. Fac. for Micro threshold ....   0.100
   Minimum threshold for Micro iter.    ....   0.010
   NR start threshold (gradient norm)   ....   0.001
   Initial trust radius                 ....   0.400
   Minimum AH scaling param. (alpha)    ....   1.000
   Maximum AH scaling param. (alpha)    .... 1000.000
   Orbital update algorithm             .... Taylor
   White noise on init. David. guess    .... on
   Maximum white noise                  ....   0.010
   Quad. conv. algorithm                .... NR
 SOSCF                  CNVSOSCF        .... on
   Start iteration      SOSCFMaxIt      ....   150
   Startup grad/error   SOSCFStart      ....  0.003300
 Level Shifting         CNVShift        .... on
   Level shift para.    LevelShift      ....    0.2500
   Turn off err/grad.   ShiftErr        ....    0.0010
 Zerner damping         CNVZerner       .... off
 Static damping         CNVDamp         .... on
   Fraction old density DampFac         ....    0.7000
   Max. Damping (<1)    DampMax         ....    0.9800
   Min. Damping (>=0)   DampMin         ....    0.0000
   Turn off err/grad.   DampErr         ....    0.1000
 Fernandez-Rico         CNVRico         .... off

SCF Procedure:
 Maximum # iterations   MaxIter         ....   800
 SCF integral mode      SCFMode         .... Direct
   Integral package                     .... SHARK and LIBINT hybrid scheme
 Reset frequency        DirectResetFreq ....    20
 Integral Threshold     Thresh          ....  2.500e-11 Eh
 Primitive CutOff       TCut            ....  2.500e-12 Eh

Convergence Tolerance:
 Convergence Check Mode ConvCheckMode   .... Total+1el-Energy
 Convergence forced     ConvForced      .... 0
 Energy Change          TolE            ....  1.000e-08 Eh
 1-El. energy change                    ....  1.000e-05 Eh
 Orbital Gradient       TolG            ....  1.000e-05
 Orbital Rotation angle TolX            ....  1.000e-05
 DIIS Error             TolErr          ....  5.000e-07


Diagonalization of the overlap matrix:
Smallest eigenvalue                        ... 5.155e-06
Time for diagonalization                   ...    0.244 sec
Threshold for overlap eigenvalues          ... 1.000e-08
Number of eigenvalues below threshold      ... 0
Time for construction of square roots      ...    0.200 sec
Total time needed                          ...    0.452 sec

Time for model grid setup =    0.534 sec

------------------------------
INITIAL GUESS: MODEL POTENTIAL
------------------------------
Loading Hartree-Fock densities                     ... done
Calculating cut-offs                               ... done
Initializing the effective Hamiltonian             ... done
Setting up the integral package (SHARK)            ... done
Starting the Coulomb interaction                   ... done (   0.8 sec)
Reading the grid                                   ... done
Mapping shells                                     ... done
Starting the XC term evaluation                    ... done (   0.4 sec)
  promolecular density results
     # of electrons  =    235.992443093
     EX              =   -200.629710205
     EC              =     -8.017096942
     EX+EC           =   -208.646807148
Transforming the Hamiltonian                       ... done (   0.1 sec)
Diagonalizing the Hamiltonian                      ... done (   0.3 sec)
Back transforming the eigenvectors                 ... done (   0.1 sec)
Now organizing SCF variables                       ... done
                      ------------------
                      INITIAL GUESS DONE (   2.5 sec)
                      ------------------
-------------------
DFT GRID GENERATION
-------------------

General Integration Accuracy     IntAcc      ... 4.388
Radial Grid Type                 RadialGrid  ... OptM3 with GC (2021)
Angular Grid (max. ang.)         AngularGrid ... 4 (Lebedev-302)
Angular grid pruning method      GridPruning ... 4 (adaptive)
Weight generation scheme         WeightScheme... Becke
Basis function cutoff            BFCut       ... 1.0000e-11
Integration weight cutoff        WCut        ... 1.0000e-14
Angular grids for H and He will be reduced by one unit
Partially contracted basis set               ... off
Rotationally invariant grid construction     ... off

Total number of grid points                  ...   262944
Total number of batches                      ...     4137
Average number of points per batch           ...       63
Average number of grid points per atom       ...     4869
Time for grid setup =    2.271 sec

--------------------
COSX GRID GENERATION
--------------------

GRIDX 1
-------
General Integration Accuracy     IntAcc      ... 3.816
Radial Grid Type                 RadialGrid  ... OptM3 with GC (2021)
Angular Grid (max. ang.)         AngularGrid ... 1 (Lebedev-50)
Angular grid pruning method      GridPruning ... 4 (adaptive)
Weight generation scheme         WeightScheme... Becke
Basis function cutoff            BFCut       ... 1.0000e-11
Integration weight cutoff        WCut        ... 1.0000e-14
Angular grids for H and He will be reduced by one unit
Partially contracted basis set               ... on
Rotationally invariant grid construction     ... off

Total number of grid points                  ...    33239
Total number of batches                      ...      541
Average number of points per batch           ...       61
Average number of grid points per atom       ...      616
UseSFitting                                  ... on

GRIDX 2
-------
General Integration Accuracy     IntAcc      ... 4.020
Radial Grid Type                 RadialGrid  ... OptM3 with GC (2021)
Angular Grid (max. ang.)         AngularGrid ... 2 (Lebedev-110)
Angular grid pruning method      GridPruning ... 4 (adaptive)
Weight generation scheme         WeightScheme... Becke
Basis function cutoff            BFCut       ... 1.0000e-11
Integration weight cutoff        WCut        ... 1.0000e-14
Angular grids for H and He will be reduced by one unit
Partially contracted basis set               ... on
Rotationally invariant grid construction     ... off

Total number of grid points                  ...    72492
Total number of batches                      ...     1157
Average number of points per batch           ...       62
Average number of grid points per atom       ...     1342
UseSFitting                                  ... on

GRIDX 3
-------
General Integration Accuracy     IntAcc      ... 4.338
Radial Grid Type                 RadialGrid  ... OptM3 with GC (2021)
Angular Grid (max. ang.)         AngularGrid ... 3 (Lebedev-194)
Angular grid pruning method      GridPruning ... 4 (adaptive)
Weight generation scheme         WeightScheme... Becke
Basis function cutoff            BFCut       ... 1.0000e-11
Integration weight cutoff        WCut        ... 1.0000e-14
Angular grids for H and He will be reduced by one unit
Partially contracted basis set               ... on
Rotationally invariant grid construction     ... off

Total number of grid points                  ...   158386
Total number of batches                      ...     2505
Average number of points per batch           ...       63
Average number of grid points per atom       ...     2933
UseSFitting                                  ... on

Time for X-Grid setup             =    4.063 sec


--------------------
CPCM SOLVATION MODEL
--------------------
CPCM parameters:
  Epsilon                                         ...      47.2000
  Refrac                                          ...       1.4790
  Rsolv                                           ...       1.3000
  Surface type                                    ... GAUSSIAN VDW
  Epsilon function type                           ...         CPCM
Radii:
 Radius for C  used is    3.8550 Bohr (=   2.0400 Ang.)
 Radius for N  used is    3.5149 Bohr (=   1.8600 Ang.)
 Radius for O  used is    3.4469 Bohr (=   1.8240 Ang.)
 Radius for H  used is    2.4944 Bohr (=   1.3200 Ang.)
Calculating surface                               ...        done! (  0.0s)
GEPOL surface points                              ...         2708
GEPOL Volume                                      ...    3363.2752
GEPOL Surface-area                                ...    1617.3182
Calculating surface distance matrix               ...        done! (  0.1s)
Performing Cholesky decomposition & store         ...        done! (  0.4s)
Overall time for CPCM initialization              ...                 0.6s
--------------
SCF ITERATIONS
--------------
ITER       Energy         Delta-E        Max-DP      RMS-DP      [F,P]     Damp
               ***  Starting incremental Fock matrix formation  ***
  0  -1577.8082715984   0.000000000000 0.51016374  0.00098706  0.2713721 0.7000
  1  -1578.1308927861  -0.322621187646 0.38681705  0.00081676  0.1072026 0.7000
                               ***Turning on DIIS***
  2  -1578.2578101004  -0.126917314363 0.37438069  0.00127304  0.0370822 0.0000
  3  -1578.4744679796  -0.216657879121 0.35107931  0.00067375  0.0514405 0.0000
  4  -1578.5097896217  -0.035321642190 0.03640210  0.00020160  0.0166609 0.0000
  5  -1578.5125904192  -0.002800797466 0.04621712  0.00009465  0.0049088 0.0000
                      *** Initiating the SOSCF procedure ***
                           *** Shutting down DIIS ***
                      *** Re-Reading the Fockian *** 
                      *** Removing any level shift *** 
ITER      Energy       Delta-E        Grad      Rot      Max-DP    RMS-DP
  6  -1578.51274687  -0.0001564482  0.000311  0.000311  0.007344  0.000021
               *** Restarting incremental Fock matrix formation ***
  7  -1578.51275757  -0.0000107047  0.000330  0.002616  0.004105  0.000033
  8  -1578.51275775  -0.0000001768  0.000192  0.000489  0.001355  0.000011
  9  -1578.51276237  -0.0000046249  0.000069  0.000205  0.001930  0.000009
 10  -1578.51276216   0.0000002177  0.000084  0.000102  0.001519  0.000003
 11  -1578.51276267  -0.0000005093  0.000009  0.000085  0.000379  0.000002
 12  -1578.51276267  -0.0000000025  0.000013  0.000028  0.000213  0.000001
 13  -1578.51276265   0.0000000176  0.000004  0.000009  0.000566  0.000002
 14  -1578.51276265   0.0000000034  0.000005  0.000006  0.000259  0.000001
                  ***Gradient check signals convergence***
              ***Rediagonalizing the Fockian in SOSCF/NRSCF***

               *****************************************************
               *                     SUCCESS                       *
               *           SCF CONVERGED AFTER  15 CYCLES          *
               *****************************************************

Old exchange energy                            =    -51.025481903 Eh
New exchange energy                            =    -51.025497059 Eh
Exchange energy change after final integration =     -0.000015156 Eh
Total energy after final integration           =  -1578.512777863 Eh
Final COS-X integration done in                =    30.564 sec

----------------
TOTAL SCF ENERGY
----------------

Total Energy       :        -1578.51277786 Eh          -42953.51640 eV

Components:
Nuclear Repulsion  :         3536.59242323 Eh           96235.57236 eV
Electronic Energy  :        -5115.10520110 Eh         -139189.08876 eV
One Electron Energy:        -9188.85294555 Eh         -250041.40051 eV
Two Electron Energy:         4073.74774445 Eh          110852.31175 eV
Max COSX asymmetry :            0.00000227 Eh               0.00006 eV
CPCM Dielectric    :           -0.05336941 Eh              -1.45226 eV

Virial components:
Potential Energy   :        -3150.26096233 Eh          -85722.95886 eV
Kinetic Energy     :         1571.74818447 Eh           42769.44246 eV
Virial Ratio       :            2.00430387


DFT components:
N(Alpha)           :      117.999999184893 electrons
N(Beta)            :      117.999999184893 electrons
N(Total)           :      235.999998369786 electrons
E(X)               :     -152.909006333031 Eh       
E(C)               :       -8.004111396074 Eh       
E(XC)              :     -160.913117729104 Eh       
DFET-embed. en.    :        0.000000000000 Eh       
CPCM Solvation Model Properties:
Surface-charge          :           -0.03038785
Charge-correction       :           -0.00009103 Eh              -0.00248 eV
Free-energy (cav+disp)  :  This term is not implemented in the current solvation scheme

---------------
SCF CONVERGENCE
---------------

  Last Energy change         ...   -6.0416e-08  Tolerance :   1.0000e-08
  Last MAX-Density change    ...    3.3307e-15  Tolerance :   1.0000e-07
  Last RMS-Density change    ...    1.3310e-17  Tolerance :   5.0000e-09
  Last Orbital Gradient      ...    9.0660e-07  Tolerance :   1.0000e-05
  Last Orbital Rotation      ...    3.1700e-06  Tolerance :   1.0000e-05

             **** THE GBW FILE WAS UPDATED (TS2_4-NO2Ph/TS2_4-NO2Ph.gbw) ****
             **** DENSITY TS2_4-NO2Ph/TS2_4-NO2Ph.scfp WAS UPDATED ****
             **** ENERGY FILE WAS UPDATED (TS2_4-NO2Ph/TS2_4-NO2Ph.en.tmp) ****
             **** THE GBW FILE WAS UPDATED (TS2_4-NO2Ph/TS2_4-NO2Ph.gbw) ****
             **** DENSITY TS2_4-NO2Ph/TS2_4-NO2Ph.scfp WAS UPDATED ****
----------------
ORBITAL ENERGIES
----------------

  NO   OCC          E(Eh)            E(eV) 
   0   2.0000     -19.271584      -524.4065 
   1   2.0000     -19.248532      -523.7792 
   2   2.0000     -19.241102      -523.5770 
   3   2.0000     -19.241084      -523.5765 
   4   2.0000     -19.228836      -523.2432 
   5   2.0000     -19.206087      -522.6242 
   6   2.0000     -19.205232      -522.6009 
   7   2.0000     -14.625880      -397.9904 
   8   2.0000     -14.581167      -396.7737 
   9   2.0000     -14.443644      -393.0315 
  10   2.0000     -10.370144      -282.1860 
  11   2.0000     -10.330846      -281.1166 
  12   2.0000     -10.293843      -280.1097 
  13   2.0000     -10.286424      -279.9078 
  14   2.0000     -10.286213      -279.9021 
  15   2.0000     -10.282409      -279.7986 
  16   2.0000     -10.273590      -279.5586 
  17   2.0000     -10.273527      -279.5569 
  18   2.0000     -10.268086      -279.4088 
  19   2.0000     -10.267161      -279.3837 
  20   2.0000     -10.267109      -279.3822 
  21   2.0000     -10.260987      -279.2156 
  22   2.0000     -10.251758      -278.9645 
  23   2.0000     -10.251476      -278.9569 
  24   2.0000     -10.248426      -278.8738 
  25   2.0000     -10.247608      -278.8516 
  26   2.0000     -10.242590      -278.7150 
  27   2.0000     -10.241013      -278.6721 
  28   2.0000     -10.236544      -278.5505 
  29   2.0000     -10.231961      -278.4258 
  30   2.0000     -10.231203      -278.4052 
  31   2.0000     -10.227832      -278.3135 
  32   2.0000     -10.223309      -278.1904 
  33   2.0000      -1.274712       -34.6867 
  34   2.0000      -1.220565       -33.2133 
  35   2.0000      -1.160535       -31.5798 
  36   2.0000      -1.111551       -30.2468 
  37   2.0000      -1.092817       -29.7371 
  38   2.0000      -1.066790       -29.0288 
  39   2.0000      -1.044173       -28.4134 
  40   2.0000      -1.020023       -27.7562 
  41   2.0000      -0.925929       -25.1958 
  42   2.0000      -0.905395       -24.6371 
  43   2.0000      -0.883171       -24.0323 
  44   2.0000      -0.859939       -23.4001 
  45   2.0000      -0.838813       -22.8253 
  46   2.0000      -0.825666       -22.4675 
  47   2.0000      -0.816579       -22.2202 
  48   2.0000      -0.797268       -21.6948 
  49   2.0000      -0.791393       -21.5349 
  50   2.0000      -0.780623       -21.2418 
  51   2.0000      -0.752102       -20.4657 
  52   2.0000      -0.736611       -20.0442 
  53   2.0000      -0.721769       -19.6403 
  54   2.0000      -0.702218       -19.1083 
  55   2.0000      -0.682268       -18.5654 
  56   2.0000      -0.669783       -18.2257 
  57   2.0000      -0.647684       -17.6244 
  58   2.0000      -0.635733       -17.2992 
  59   2.0000      -0.626337       -17.0435 
  60   2.0000      -0.615643       -16.7525 
  61   2.0000      -0.602437       -16.3932 
  62   2.0000      -0.599852       -16.3228 
  63   2.0000      -0.586754       -15.9664 
  64   2.0000      -0.573426       -15.6037 
  65   2.0000      -0.565953       -15.4004 
[...]
 70:    877.89   0.003703   18.71  0.001316  (-0.027231 -0.002612 -0.023833)
 71:    886.27   0.013151   66.46  0.004631  ( 0.006493 -0.038274 -0.055888)
 72:    888.92   0.027044  136.67  0.009494  (-0.081379  0.048234 -0.023347)
 73:    893.37   0.000015    0.08  0.000005  ( 0.001819 -0.001394 -0.000346)
 74:    900.74   0.005094   25.74  0.001765  ( 0.032456 -0.017694  0.019955)
 75:    967.36   0.000633    3.20  0.000204  ( 0.013742 -0.003881 -0.000505)
 76:    978.29   0.000126    0.64  0.000040  (-0.003569  0.004972 -0.001654)
 77:    996.27   0.000420    2.12  0.000131  (-0.009467  0.004655 -0.004486)
 78:    996.85   0.000026    0.13  0.000008  ( 0.001738 -0.002201  0.000539)
 79:   1000.29   0.105072  530.99  0.032780  (-0.155182  0.075573 -0.054654)
 80:   1004.51   0.003825   19.33  0.001188  (-0.028865  0.016971 -0.008189)
 81:   1015.03   0.000040    0.20  0.000012  (-0.000541  0.002965  0.001784)
 82:   1024.43   0.004313   21.80  0.001314  ( 0.021487 -0.022804  0.018226)
 83:   1038.89   0.009927   50.17  0.002982  (-0.045012 -0.026011  0.016707)
 84:   1040.93   0.000074    0.38  0.000022  (-0.004309 -0.000113  0.001937)
 85:   1060.51   0.000024    0.12  0.000007  (-0.001710 -0.001994 -0.000179)
 86:   1070.14   0.016288   82.31  0.004750  (-0.020586  0.052034 -0.040229)
 87:   1080.12   0.035645  180.14  0.010298  (-0.067633 -0.035826 -0.066639)
 88:   1084.12   0.009537   48.20  0.002745  (-0.012569  0.032461 -0.039161)
 89:   1093.56   0.025609  129.42  0.007308  ( 0.077420 -0.027994 -0.023028)
 90:   1102.71   0.055304  279.48  0.015651  (-0.077034  0.092311 -0.034574)
 91:   1111.30   0.002810   14.20  0.000789  (-0.027202  0.007008  0.000087)
 92:   1134.28   0.088846  448.99  0.024443  (-0.091108  0.090095 -0.089585)
 93:   1137.37   0.008865   44.80  0.002432  (-0.021958  0.031074 -0.031379)
 94:   1142.05   0.052564  265.64  0.014363  ( 0.114315 -0.023557  0.027209)
 95:   1168.46   0.065898  333.02  0.017600  ( 0.125022 -0.041886  0.014652)
 96:   1168.60   0.007209   36.43  0.001925  ( 0.039736 -0.007945  0.016827)
 97:   1171.50   0.000058    0.29  0.000015  ( 0.001775 -0.003178  0.001454)
 98:   1172.38   0.001537    7.77  0.000409  ( 0.013405 -0.011682  0.009645)
 99:   1175.28   0.003277   16.56  0.000870  (-0.012312  0.023924 -0.012089)
100:   1193.17   0.001668    8.43  0.000436  (-0.010845  0.014567 -0.010321)
101:   1207.05   0.000564    2.85  0.000146  (-0.010978  0.001207 -0.004887)
102:   1212.91   0.001586    8.02  0.000408  ( 0.019091  0.005525 -0.003628)
103:   1221.07   0.003573   18.05  0.000913  ( 0.013686 -0.025117  0.009738)
104:   1231.50   0.007654   38.68  0.001939  ( 0.008469 -0.032814  0.028124)
105:   1239.87   0.015529   78.48  0.003909  (-0.059587  0.010944 -0.015434)
106:   1255.03   0.003879   19.60  0.000964  (-0.000572 -0.030796  0.003964)
107:   1285.32   0.023796  120.26  0.005777  ( 0.011736 -0.006809  0.074789)
108:   1300.71   0.075820  383.17  0.018191  ( 0.072590 -0.021246 -0.111669)
109:   1302.00   0.055012  278.01  0.013185  (-0.059632  0.096808 -0.016053)
110:   1313.18   0.043253  218.58  0.010279  (-0.065958 -0.066369  0.039029)
111:   1324.89   0.020092  101.54  0.004732  (-0.036909 -0.047371 -0.033557)
112:   1335.51   0.005643   28.52  0.001319  ( 0.000377 -0.017261  0.031944)
113:   1342.88   0.005160   26.08  0.001199  ( 0.028011 -0.016232 -0.012293)
114:   1368.12   0.474220  2396.51  0.108168  ( 0.285820 -0.075776  0.143991)
115:   1371.62   0.149878  757.42  0.034099  (-0.114714  0.123585 -0.075280)
116:   1380.85   0.083314  421.03  0.018828  (-0.113603  0.041395 -0.064878)
117:   1384.18   0.002746   13.87  0.000619  ( 0.024732  0.001609  0.002170)
118:   1401.95   0.003090   15.62  0.000688  (-0.002989 -0.014230 -0.021829)
119:   1440.02   0.019168   96.87  0.004154  ( 0.043677  0.036410 -0.030341)
120:   1454.41   0.011288   57.04  0.002422  (-0.002526 -0.043406  0.023053)
121:   1465.44   0.004015   20.29  0.000855  (-0.014030 -0.012823  0.022217)
122:   1465.95   0.005686   28.73  0.001210  ( 0.000207  0.003207  0.034641)
123:   1469.63   0.013229   66.85  0.002809  (-0.023731 -0.029441 -0.037136)
124:   1472.88   0.002729   13.79  0.000578  (-0.012075  0.020281  0.004600)
125:   1473.68   0.002982   15.07  0.000631  (-0.024223  0.004435  0.005002)
126:   1483.02   0.004324   21.85  0.000910  ( 0.004600 -0.001266  0.029786)
127:   1493.65   0.012835   64.86  0.002682  (-0.019788 -0.005742 -0.047508)
128:   1498.21   0.011117   56.18  0.002316  ( 0.005159  0.010069 -0.046772)
129:   1527.85   0.002673   13.51  0.000546  (-0.001845  0.021831 -0.008116)
130:   1537.85   0.067543  341.34  0.013706  (-0.009862  0.051045 -0.104896)
131:   1542.34   0.018297   92.46  0.003702  (-0.006557 -0.059482  0.010995)
132:   1550.11   0.266531  1346.94  0.053657  (-0.107296  0.173144 -0.110299)
133:   1579.19   0.074910  378.56  0.014803  ( 0.088904  0.065163 -0.051505)
134:   1643.77   0.035749  180.66  0.006787  (-0.026187 -0.061070  0.048697)
135:   1649.03   0.001442    7.29  0.000273  ( 0.008182  0.008746  0.011377)
136:   1649.85   0.004796   24.24  0.000907  ( 0.014222  0.016081 -0.021125)
137:   1663.95   0.013551   68.48  0.002541  (-0.033679 -0.005489  0.037108)
138:   1665.81   0.021970  111.03  0.004116  ( 0.054152  0.013928  0.031455)
139:   1666.84   0.010616   53.65  0.001987  (-0.029475 -0.024474  0.022797)
140:   1796.81   0.117844  595.53  0.020467  ( 0.115225 -0.072454  0.044048)
141:   3039.84   0.011823   59.75  0.001214  (-0.006508 -0.028182  0.019421)
142:   3074.82   0.005468   27.63  0.000555  ( 0.002274 -0.018765 -0.014058)
143:   3112.87   0.007112   35.94  0.000713  ( 0.026025 -0.005927  0.000783)
144:   3127.38   0.000754    3.81  0.000075  ( 0.003662 -0.007182 -0.003205)
145:   3160.18   0.003306   16.71  0.000327  (-0.010591 -0.009533  0.011111)
146:   3168.31   0.003400   17.18  0.000335  (-0.000256 -0.005539 -0.017439)
147:   3186.38   0.000268    1.35  0.000026  (-0.001153 -0.004846  0.001194)
148:   3194.49   0.001688    8.53  0.000165  ( 0.010144 -0.000840  0.007832)
149:   3196.53   0.001337    6.76  0.000131  (-0.001865 -0.010944 -0.002695)
150:   3201.92   0.000698    3.53  0.000068  (-0.007106 -0.003601 -0.002144)
151:   3205.16   0.001006    5.08  0.000098  (-0.006931 -0.006094  0.003571)
152:   3213.80   0.000035    0.18  0.000003  (-0.000230  0.000425 -0.001788)
153:   3214.64   0.002859   14.45  0.000278  (-0.000800 -0.002569 -0.016441)
154:   3227.87   0.001114    5.63  0.000108  (-0.007748 -0.006611 -0.001994)
155:   3231.13   0.000170    0.86  0.000016  ( 0.001328  0.000355  0.003818)
156:   3231.33   0.000365    1.85  0.000035  (-0.001243 -0.005480  0.001921)
157:   3235.31   0.000345    1.74  0.000033  ( 0.004864  0.002679 -0.001570)
158:   3237.66   0.000347    1.75  0.000033  ( 0.005764  0.000342  0.000294)
159:   3243.21   0.000798    4.03  0.000077  (-0.001757 -0.007950  0.003240)
160:   3275.19   0.000425    2.15  0.000040  (-0.002029 -0.001877  0.005728)
161:   3275.54   0.001607    8.12  0.000153  ( 0.007635 -0.007500  0.006207)

* The epsilon (eps) is given for a Dirac delta lineshape.
** The dipole moment derivative (T) already includes vibrational overlap.

The first frequency considered to be a vibration is 7
The total number of vibrations considered is 155


--------------------------
THERMOCHEMISTRY AT 298.15K
--------------------------

Temperature         ... 298.15 K
Pressure            ... 1.00 atm
Total Mass          ... 451.44 AMU

Throughout the following assumptions are being made:
  (1) The electronic state is orbitally nondegenerate
  (2) There are no thermally accessible electronically excited states
  (3) Hindered rotations indicated by low frequency modes are not
      treated as such but are treated as vibrations and this may
      cause some error
  (4) All equations used are the standard statistical mechanics
      equations for an ideal gas
  (5) All vibrations are strictly harmonic

freq.      14.10  E(vib)   ...       0.57 
freq.      26.60  E(vib)   ...       0.56 
freq.      30.82  E(vib)   ...       0.55 
freq.      35.58  E(vib)   ...       0.54 
freq.      38.81  E(vib)   ...       0.54 
freq.      51.54  E(vib)   ...       0.52 
freq.      55.25  E(vib)   ...       0.52 
freq.      63.10  E(vib)   ...       0.51 
freq.      67.57  E(vib)   ...       0.50 
freq.      76.50  E(vib)   ...       0.49 
freq.      83.89  E(vib)   ...       0.48 
freq.      94.89  E(vib)   ...       0.47 
freq.     103.01  E(vib)   ...       0.46 
freq.     120.65  E(vib)   ...       0.44 
freq.     139.90  E(vib)   ...       0.41 
freq.     148.34  E(vib)   ...       0.41 
freq.     150.93  E(vib)   ...       0.40 
freq.     167.01  E(vib)   ...       0.39 
freq.     177.32  E(vib)   ...       0.37 
freq.     184.37  E(vib)   ...       0.37 
freq.     202.75  E(vib)   ...       0.35 
freq.     221.69  E(vib)   ...       0.33 
freq.     239.75  E(vib)   ...       0.31 
freq.     247.10  E(vib)   ...       0.31 
freq.     251.20  E(vib)   ...       0.30 
freq.     257.38  E(vib)   ...       0.30 
freq.     272.93  E(vib)   ...       0.29 
freq.     306.43  E(vib)   ...       0.26 
freq.     312.56  E(vib)   ...       0.25 
freq.     335.88  E(vib)   ...       0.24 
freq.     370.21  E(vib)   ...       0.21 
freq.     393.66  E(vib)   ...       0.20 
freq.     400.12  E(vib)   ...       0.19 
freq.     414.57  E(vib)   ...       0.19 
freq.     426.24  E(vib)   ...       0.18 
freq.     448.75  E(vib)   ...       0.17 
freq.     484.92  E(vib)   ...       0.15 
freq.     491.53  E(vib)   ...       0.14 
freq.     528.74  E(vib)   ...       0.13 
freq.     535.36  E(vib)   ...       0.13 
freq.     545.59  E(vib)   ...       0.12 
freq.     557.69  E(vib)   ...       0.12 
freq.     585.42  E(vib)   ...       0.11 
freq.     611.49  E(vib)   ...       0.10 
freq.     635.11  E(vib)   ...       0.09 
freq.     639.53  E(vib)   ...       0.09 
freq.     643.95  E(vib)   ...       0.09 
freq.     659.90  E(vib)   ...       0.08 
freq.     707.41  E(vib)   ...       0.07 
freq.     711.20  E(vib)   ...       0.07 
freq.     718.92  E(vib)   ...       0.07 
freq.     723.42  E(vib)   ...       0.07 
freq.     733.27  E(vib)   ...       0.06 
freq.     748.80  E(vib)   ...       0.06 
freq.     768.42  E(vib)   ...       0.06 
freq.     770.84  E(vib)   ...       0.05 
freq.     777.55  E(vib)   ...       0.05 
freq.     779.91  E(vib)   ...       0.05 
freq.     794.16  E(vib)   ...       0.05 
freq.     810.78  E(vib)   ...       0.05 
freq.     836.34  E(vib)   ...       0.04 
freq.     840.56  E(vib)   ...       0.04 
freq.     871.46  E(vib)   ...       0.04 
freq.     877.89  E(vib)   ...       0.04 
freq.     886.27  E(vib)   ...       0.04 
freq.     888.92  E(vib)   ...       0.04 
freq.     893.37  E(vib)   ...       0.03 
freq.     900.74  E(vib)   ...       0.03 
freq.     967.36  E(vib)   ...       0.03 
freq.     978.29  E(vib)   ...       0.03 
freq.     996.27  E(vib)   ...       0.02 
freq.     996.85  E(vib)   ...       0.02 
freq.    1000.29  E(vib)   ...       0.02 
freq.    1004.51  E(vib)   ...       0.02 
freq.    1015.03  E(vib)   ...       0.02 
freq.    1024.43  E(vib)   ...       0.02 
freq.    1038.89  E(vib)   ...       0.02 
freq.    1040.93  E(vib)   ...       0.02 
freq.    1060.51  E(vib)   ...       0.02 
freq.    1070.14  E(vib)   ...       0.02 
freq.    1080.12  E(vib)   ...       0.02 
freq.    1084.12  E(vib)   ...       0.02 
freq.    1093.56  E(vib)   ...       0.02 
freq.    1102.71  E(vib)   ...       0.02 
freq.    1111.30  E(vib)   ...       0.01 
freq.    1134.28  E(vib)   ...       0.01 
freq.    1137.37  E(vib)   ...       0.01 
freq.    1142.05  E(vib)   ...       0.01 
freq.    1168.46  E(vib)   ...       0.01 
freq.    1168.60  E(vib)   ...       0.01 
freq.    1171.50  E(vib)   ...       0.01 
freq.    1172.38  E(vib)   ...       0.01 
freq.    1175.28  E(vib)   ...       0.01 
freq.    1193.17  E(vib)   ...       0.01 
freq.    1207.05  E(vib)   ...       0.01 
freq.    1212.91  E(vib)   ...       0.01 
freq.    1221.07  E(vib)   ...       0.01 
freq.    1231.50  E(vib)   ...       0.01 
freq.    1239.87  E(vib)   ...       0.01 
freq.    1255.03  E(vib)   ...       0.01 
freq.    1285.32  E(vib)   ...       0.01 
freq.    1300.71  E(vib)   ...       0.01 
freq.    1302.00  E(vib)   ...       0.01 
freq.    1313.18  E(vib)   ...       0.01 
freq.    1324.89  E(vib)   ...       0.01 
freq.    1335.51  E(vib)   ...       0.01 
freq.    1342.88  E(vib)   ...       0.01 
freq.    1368.12  E(vib)   ...       0.01 
freq.    1371.62  E(vib)   ...       0.01 
freq.    1380.85  E(vib)   ...       0.01 
freq.    1384.18  E(vib)   ...       0.00 
freq.    1401.95  E(vib)   ...       0.00 
freq.    1440.02  E(vib)   ...       0.00 
freq.    1454.41  E(vib)   ...       0.00 
freq.    1465.44  E(vib)   ...       0.00 
freq.    1465.95  E(vib)   ...       0.00 
freq.    1469.63  E(vib)   ...       0.00 
freq.    1472.88  E(vib)   ...       0.00 
freq.    1473.68  E(vib)   ...       0.00 
freq.    1483.02  E(vib)   ...       0.00 
freq.    1493.65  E(vib)   ...       0.00 
freq.    1498.21  E(vib)   ...       0.00 
freq.    1527.85  E(vib)   ...       0.00 
freq.    1537.85  E(vib)   ...       0.00 
freq.    1542.34  E(vib)   ...       0.00 
freq.    1550.11  E(vib)   ...       0.00 
freq.    1579.19  E(vib)   ...       0.00 
freq.    1643.77  E(vib)   ...       0.00 
freq.    1649.03  E(vib)   ...       0.00 
freq.    1649.85  E(vib)   ...       0.00 
freq.    1663.95  E(vib)   ...       0.00 
freq.    1665.81  E(vib)   ...       0.00 
freq.    1666.84  E(vib)   ...       0.00 
freq.    1796.81  E(vib)   ...       0.00 
freq.    3039.84  E(vib)   ...       0.00 
freq.    3074.82  E(vib)   ...       0.00 
freq.    3112.87  E(vib)   ...       0.00 
freq.    3127.38  E(vib)   ...       0.00 
freq.    3160.18  E(vib)   ...       0.00 
freq.    3168.31  E(vib)   ...       0.00 
freq.    3186.38  E(vib)   ...       0.00 
freq.    3194.49  E(vib)   ...       0.00 
freq.    3196.53  E(vib)   ...       0.00 
freq.    3201.92  E(vib)   ...       0.00 
freq.    3205.16  E(vib)   ...       0.00 
freq.    3213.80  E(vib)   ...       0.00 
freq.    3214.64  E(vib)   ...       0.00 
freq.    3227.87  E(vib)   ...       0.00 
freq.    3231.13  E(vib)   ...       0.00 
freq.    3231.33  E(vib)   ...       0.00 
freq.    3235.31  E(vib)   ...       0.00 
freq.    3237.66  E(vib)   ...       0.00 
freq.    3243.21  E(vib)   ...       0.00 
freq.    3275.19  E(vib)   ...       0.00 
freq.    3275.54  E(vib)   ...       0.00 

------------
INNER ENERGY
------------

The inner energy is: U= E(el) + E(ZPE) + E(vib) + E(rot) + E(trans)
    E(el)   - is the total energy from the electronic structure calculation
              = E(kin-el) + E(nuc-el) + E(el-el) + E(nuc-nuc)
    E(ZPE)  - the the zero temperature vibrational energy from the frequency calculation
    E(vib)  - the the finite temperature correction to E(ZPE) due to population
              of excited vibrational states
    E(rot)  - is the rotational thermal energy
    E(trans)- is the translational thermal energy

Summary of contributions to the inner energy U:
Electronic energy                ...  -1578.58658870 Eh
Zero point energy                ...      0.41631645 Eh     261.24 kcal/mol
Thermal vibrational correction   ...      0.02634976 Eh      16.53 kcal/mol
Thermal rotational correction    ...      0.00141627 Eh       0.89 kcal/mol
Thermal translational correction ...      0.00141627 Eh       0.89 kcal/mol
-----------------------------------------------------------------------
Total thermal energy                  -1578.14108995 Eh


Summary of corrections to the electronic energy:
(perhaps to be used in another calculation)
Total thermal correction                  0.02918230 Eh      18.31 kcal/mol
Non-thermal (ZPE) correction              0.41631645 Eh     261.24 kcal/mol
-----------------------------------------------------------------------
Total correction                          0.44549875 Eh     279.55 kcal/mol


--------
ENTHALPY
--------

The enthalpy is H = U + kB*T
                kB is Boltzmann's constant
Total free energy                 ...  -1578.14108995 Eh 
Thermal Enthalpy correction       ...      0.00094421 Eh       0.59 kcal/mol
-----------------------------------------------------------------------
Total Enthalpy                    ...  -1578.14014574 Eh


Note: Only C1 symmetry has been detected, increase convergence thresholds 
      if your molecule has a higher symmetry. Symmetry factor of 1.0 is   
      used for the rotational entropy correction. 
 

Note: Rotational entropy computed according to Herzberg 
Infrared and Raman Spectra, Chapter V,1, Van Nostrand Reinhold, 1945 
Point Group:  C1, Symmetry Number:   1  
Rotational constants in cm-1:     0.006164     0.003210     0.002798 

Vibrational entropy computed according to the QRRHO of S. Grimme
Chem.Eur.J. 2012 18 9955


-------
ENTROPY
-------

The entropy contributions are T*S = T*(S(el)+S(vib)+S(rot)+S(trans))
     S(el)   - electronic entropy
     S(vib)  - vibrational entropy
     S(rot)  - rotational entropy
     S(trans)- translational entropy
The entropies will be listed as multiplied by the temperature to get
units of energy

Electronic entropy                ...      0.00000000 Eh      0.00 kcal/mol
Vibrational entropy               ...      0.04791314 Eh     30.07 kcal/mol
Rotational entropy                ...      0.01739919 Eh     10.92 kcal/mol
Translational entropy             ...      0.02100593 Eh     13.18 kcal/mol
-----------------------------------------------------------------------
Final entropy term                ...      0.08631826 Eh     54.17 kcal/mol

In case the symmetry of your molecule has not been determined correctly
or in case you have a reason to use a different symmetry number we print 
out the resulting rotational entropy values for sn=1,12 :
 --------------------------------------------------------
|  sn= 1 | S(rot)=       0.01739919 Eh     10.92 kcal/mol|
|  sn= 2 | S(rot)=       0.01674473 Eh     10.51 kcal/mol|
|  sn= 3 | S(rot)=       0.01636190 Eh     10.27 kcal/mol|
|  sn= 4 | S(rot)=       0.01609028 Eh     10.10 kcal/mol|
|  sn= 5 | S(rot)=       0.01587959 Eh      9.96 kcal/mol|
|  sn= 6 | S(rot)=       0.01570745 Eh      9.86 kcal/mol|
|  sn= 7 | S(rot)=       0.01556190 Eh      9.77 kcal/mol|
|  sn= 8 | S(rot)=       0.01543582 Eh      9.69 kcal/mol|
|  sn= 9 | S(rot)=       0.01532461 Eh      9.62 kcal/mol|
|  sn=10 | S(rot)=       0.01522513 Eh      9.55 kcal/mol|
|  sn=11 | S(rot)=       0.01513514 Eh      9.50 kcal/mol|
|  sn=12 | S(rot)=       0.01505299 Eh      9.45 kcal/mol|
 --------------------------------------------------------


-------------------
GIBBS FREE ENERGY
-------------------

The Gibbs free energy is G = H - T*S

Total enthalpy                    ...  -1578.14014574 Eh 
Total entropy correction          ...     -0.08631826 Eh    -54.17 kcal/mol
-----------------------------------------------------------------------
Final Gibbs free energy         ...  -1578.22646400 Eh

For completeness - the Gibbs free energy minus the electronic energy
G-E(el)                           ...      0.36012470 Eh    225.98 kcal/mol


Timings for individual modules:

Sum of individual times         ...    14760.069 sec (= 246.001 min)
GTO integral calculation        ...      124.318 sec (=   2.072 min)   0.8 %
SCF iterations                  ...     7110.805 sec (= 118.513 min)  48.2 %
SCF Gradient evaluation         ...     2022.575 sec (=  33.710 min)  13.7 %
Geometry relaxation             ...        8.837 sec (=   0.147 min)   0.1 %
Analytical frequency calculation...     5493.534 sec (=  91.559 min)  37.2 %
                             ****ORCA TERMINATED NORMALLY****
TOTAL RUN TIME: 0 days 4 hours 7 minutes 45 seconds 167 msec
