
                                 *****************
                                 * O   R   C   A *
                                 *****************

                                            #,                                       
                                            ###                                      
                                            ####                                     
                                            #####                                    
                                            ######                                   
                                           ########,                                 
                                     ,,################,,,,,                         
                               ,,#################################,,                 
                          ,,##########################################,,             
                       ,#########################################, ''#####,          
                    ,#############################################,,   '####,        
                  ,##################################################,,,,####,       
                ,###########''''           ''''###############################       
              ,#####''   ,,,,##########,,,,          '''####'''          '####       
            ,##' ,,,,###########################,,,                        '##       
           ' ,,###''''                  '''############,,,                           
         ,,##''                                '''############,,,,        ,,,,,,###''
      ,#''                                            '''#######################'''  
     '                                                          ''''####''''         
             ,#######,   #######,   ,#######,      ##                                
            ,#'     '#,  ##    ##  ,#'     '#,    #''#        ######   ,####,        
            ##       ##  ##   ,#'  ##            #'  '#       #        #'  '#        
            ##       ##  #######   ##           ,######,      #####,   #    #        
            '#,     ,#'  ##    ##  '#,     ,#' ,#      #,         ##   #,  ,#        
             '#######'   ##     ##  '#######'  #'      '#     #####' # '####'        



                  #######################################################
                  #                        -***-                        #
                  #          Department of theory and spectroscopy      #
                  #    Directorship and core code : Frank Neese         #
                  #        Max Planck Institute fuer Kohlenforschung    #
                  #                Kaiser Wilhelm Platz 1               #
                  #                 D-45470 Muelheim/Ruhr               #
                  #                      Germany                        #
                  #                                                     #
                  #                  All rights reserved                #
                  #                        -***-                        #
                  #######################################################


                         Program Version 5.0.4 -  RELEASE  -


 With contributions from (in alphabetic order):
   Daniel Aravena         : Magnetic Suceptibility
   Michael Atanasov       : Ab Initio Ligand Field Theory (pilot matlab implementation)
   Alexander A. Auer      : GIAO ZORA, VPT2 properties, NMR spectrum
   Ute Becker             : Parallelization
   Giovanni Bistoni       : ED, misc. LED, open-shell LED, HFLD
   Martin Brehm           : Molecular dynamics
   Dmytro Bykov           : SCF Hessian
   Vijay G. Chilkuri      : MRCI spin determinant printing, contributions to CSF-ICE
   Dipayan Datta          : RHF DLPNO-CCSD density
   Achintya Kumar Dutta   : EOM-CC, STEOM-CC
   Dmitry Ganyushin       : Spin-Orbit,Spin-Spin,Magnetic field MRCI
   Miquel Garcia          : C-PCM and meta-GGA Hessian, CC/C-PCM, Gaussian charge scheme
   Yang Guo               : DLPNO-NEVPT2, F12-NEVPT2, CIM, IAO-localization
   Andreas Hansen         : Spin unrestricted coupled pair/coupled cluster methods
   Benjamin Helmich-Paris : MC-RPA, TRAH-SCF, COSX integrals
   Lee Huntington         : MR-EOM, pCC
   Robert Izsak           : Overlap fitted RIJCOSX, COSX-SCS-MP3, EOM
   Marcus Kettner         : VPT2
   Christian Kollmar      : KDIIS, OOCD, Brueckner-CCSD(T), CCSD density, CASPT2, CASPT2-K
   Simone Kossmann        : Meta GGA functionals, TD-DFT gradient, OOMP2, MP2 Hessian
   Martin Krupicka        : Initial AUTO-CI
   Lucas Lang             : DCDCAS
   Marvin Lechner         : AUTO-CI (C++ implementation), FIC-MRCC
   Dagmar Lenk            : GEPOL surface, SMD
   Dimitrios Liakos       : Extrapolation schemes; Compound Job, initial MDCI parallelization
   Dimitrios Manganas     : Further ROCIS development; embedding schemes
   Dimitrios Pantazis     : SARC Basis sets
   Anastasios Papadopoulos: AUTO-CI, single reference methods and gradients
   Taras Petrenko         : DFT Hessian,TD-DFT gradient, ASA, ECA, R-Raman, ABS, FL, XAS/XES, NRVS
   Peter Pinski           : DLPNO-MP2, DLPNO-MP2 Gradient
   Christoph Reimann      : Effective Core Potentials
   Marius Retegan         : Local ZFS, SOC
   Christoph Riplinger    : Optimizer, TS searches, QM/MM, DLPNO-CCSD(T), (RO)-DLPNO pert. Triples
   Tobias Risthaus        : Range-separated hybrids, TD-DFT gradient, RPA, STAB
   Michael Roemelt        : Original ROCIS implementation
   Masaaki Saitow         : Open-shell DLPNO-CCSD energy and density
   Barbara Sandhoefer     : DKH picture change effects
   Avijit Sen             : IP-ROCIS
   Kantharuban Sivalingam : CASSCF convergence, NEVPT2, FIC-MRCI
   Bernardo de Souza      : ESD, SOC TD-DFT
   Georgi Stoychev        : AutoAux, RI-MP2 NMR, DLPNO-MP2 response
   Willem Van den Heuvel  : Paramagnetic NMR
   Boris Wezisla          : Elementary symmetry handling
   Frank Wennmohs         : Technical directorship


 We gratefully acknowledge several colleagues who have allowed us to
 interface, adapt or use parts of their codes:
   Stefan Grimme, W. Hujo, H. Kruse, P. Pracht,  : VdW corrections, initial TS optimization,
                  C. Bannwarth, S. Ehlert          DFT functionals, gCP, sTDA/sTD-DF
   Ed Valeev, F. Pavosevic, A. Kumar             : LibInt (2-el integral package), F12 methods
   Garnet Chan, S. Sharma, J. Yang, R. Olivares  : DMRG
   Ulf Ekstrom                                   : XCFun DFT Library
   Mihaly Kallay                                 : mrcc  (arbitrary order and MRCC methods)
   Jiri Pittner, Ondrej Demel                    : Mk-CCSD
   Frank Weinhold                                : gennbo (NPA and NBO analysis)
   Christopher J. Cramer and Donald G. Truhlar   : smd solvation model
   Lars Goerigk                                  : TD-DFT with DH, B97 family of functionals
   V. Asgeirsson, H. Jonsson                     : NEB implementation
   FAccTs GmbH                                   : IRC, NEB, NEB-TS, DLPNO-Multilevel, CI-OPT
                                                   MM, QMMM, 2- and 3-layer-ONIOM, Crystal-QMMM,
                                                   LR-CPCM, SF, NACMEs, symmetry and pop. for TD-DFT,
                                                   nearIR, NL-DFT gradient (VV10), updates on ESD,
                                                   ML-optimized integration grids
   S Lehtola, MJT Oliveira, MAL Marques          : LibXC Library
   Liviu Ungur et al                             : ANISO software


 Your calculation uses the libint2 library for the computation of 2-el integrals
 For citations please refer to: http://libint.valeyev.net

 Your ORCA version has been built with support for libXC version: 5.1.0
 For citations please refer to: https://tddft.org/programs/libxc/

 This ORCA versions uses:
   CBLAS   interface :  Fast vector & matrix operations
   LAPACKE interface :  Fast linear algebra routines
   SCALAPACK package :  Parallel linear algebra routines
   Shared memory     :  Shared parallel matrices
   BLAS/LAPACK       :  OpenBLAS 0.3.15  USE64BITINT DYNAMIC_ARCH NO_AFFINITY Haswell SINGLE_THREADED
        Core in use  :  Haswell
   Copyright (c) 2011-2014, The OpenBLAS Project


Your calculation utilizes the atom-pairwise dispersion correction
with the Becke-Johnson damping scheme (D3BJ)
Cite in your paper:
S.Grimme, S.Ehrlich, L.Goerigk, J Comput Chem, (2011), 32, 1456–1465 
S.Grimme, J.Antony, S.Ehrlich and H.Krieg, J.Chem.Phys., 132, (2010), 154104 
   

================================================================================

----- Orbital basis set information -----
Your calculation utilizes the basis: def2-TZVP
   F. Weigend and R. Ahlrichs, Phys. Chem. Chem. Phys. 7, 3297 (2005).

----- AuxJ basis set information -----
Your calculation utilizes the auxiliary basis: def2/J
   F. Weigend, Phys. Chem. Chem. Phys. 8, 1057 (2006).

================================================================================
                                        WARNINGS
                       Please study these warnings very carefully!
================================================================================


WARNING: Geometry Optimization
  ===> : Switching off AutoStart
         For restart on a previous wavefunction, please use MOREAD

INFO   : the flag for use of the SHARK integral package has been found!

================================================================================
                                       INPUT FILE
================================================================================
NAME = TS2_CO2Me/TS2_CO2Me.inp
|  1> %pal nprocs 24 end
|  2> ! PBE0 D3BJ def2-TZVP TightSCF OPTTS FREQ TightOpt
|  3> ! CPCM(dmso)
|  4> %scf
|  5> MaxIter 800
|  6> end
|  7> 
|  8> %geom
|  9> MaxIter 800
| 10> MaxStep 0.15
| 11> end
| 12> 
| 13> *xyz 0 1
| 14> C      -1.81288800     -3.43250300      0.25968900
| 15> C      -1.67128400     -2.80460100      1.49593900
| 16> C      -0.69875200     -1.82099100      1.63381400
| 17> N       0.08553900     -1.46979500      0.61663900
| 18> C      -0.04093100     -2.05646900     -0.57285000
| 19> C      -0.98046600     -3.05673400     -0.79266800
| 20> C       1.32490200      0.09688500      0.97171000
| 21> C       2.47010100     -0.63788100      0.35057000
| 22> O       2.76324100     -0.54746200     -0.81848800
| 23> O       3.09424000     -1.40015300      1.23022700
| 24> C       4.21053300     -2.14171900      0.74747400
| 25> H      -2.56808300     -4.20910400      0.11731900
| 26> H      -0.54859600     -1.29485600      2.58147900
| 27> H       0.63193700     -1.71458600     -1.36489300
| 28> H      -1.05679900     -3.52343500     -1.77604700
| 29> H       1.11234000     -0.06580500      2.02480800
| 30> H       4.59022700     -2.71069700      1.60270100
| 31> H       4.98675100     -1.46246200      0.36735700
| 32> C       1.38280900      2.29069600     -0.10960900
| 33> C       0.52320400      1.08648800      0.14386300
| 34> C      -0.78845000      1.42571500      0.82524400
| 35> C      -0.79403600      2.13648700      2.02456800
| 36> C      -1.98310200      2.42799500      2.69302900
| 37> C      -3.18990400      2.00091000      2.14403000
| 38> C      -3.21255200      1.29217900      0.94252900
| 39> C      -2.01495300      1.00123500      0.27717100
| 40> O      -1.95488500      0.31400300     -0.88026200
| 41> C      -3.13566800     -0.22022000     -1.42873700
| 42> N       2.43778500      2.41021300      0.70288100
| 43> O       3.25771100      3.31837900      0.73022800
| 44> H       0.16204300      2.46046800      2.44610200
| 45> H      -1.96452800      2.98339300      3.63319300
| 46> H      -4.13351500      2.21879200      2.65085600
| 47> H      -4.16703800      0.96738500      0.52733500
| 48> H      -3.84745400      0.57368100     -1.70944000
| 49> H      -3.62610900     -0.91544700     -0.72732900
| 50> H      -2.83762000     -0.77173900     -2.32873400
| 51> O       2.58702200      1.42478400      1.55131500
| 52> H       3.90039600     -2.82353900     -0.05703900
| 53> H      -2.30408900     -3.06642000      2.34551200
| 54> C       1.08561100      3.28185800     -1.12384100
| 55> O       1.69086100      4.30449200     -1.37016100
| 56> O      -0.01140400      2.90549400     -1.80785000
| 57> C      -0.44504200      3.77740900     -2.83618500
| 58> H      -1.34764900      3.32309200     -3.26117500
| 59> H      -0.67896400      4.77457000     -2.43485200
| 60> H       0.32506000      3.88230600     -3.61492400
| 61> H       0.30101000      0.62400200     -0.82522200
| 62> *
| 63> 
| 64>                          ****END OF INPUT****
================================================================================

                       *****************************
                       * Geometry Optimization Run *
                       *****************************

Geometry optimization settings:
Update method            Update   .... Bofill
Choice of coordinates    CoordSys .... Z-matrix Internals
Initial Hessian          InHess   .... Almoef's Model

Convergence Tolerances:
Energy Change            TolE     ....  1.0000e-06 Eh
Max. Gradient            TolMAXG  ....  1.0000e-04 Eh/bohr
RMS Gradient             TolRMSG  ....  3.0000e-05 Eh/bohr
Max. Displacement        TolMAXD  ....  1.0000e-03 bohr
RMS Displacement         TolRMSD  ....  6.0000e-04 bohr
Strict Convergence                ....  False
------------------------------------------------------------------------------
                        ORCA OPTIMIZATION COORDINATE SETUP
------------------------------------------------------------------------------

The optimization will be done in new redundant internal coordinates
Making redundant internal coordinates   ...  (new redundants) done
Following TS mode number                ...     0
Evaluating the initial hessian          ...  (Almloef) done
Evaluating the coordinates              ...  done
Calculating the B-matrix                .... done
Calculating the G-matrix                .... done
Diagonalizing the G-matrix              .... done
Small eigenvalue found = 4.546e-03
Small eigenvalue found = 4.855e-03
Small eigenvalue found = 1.192e-02
Small eigenvalue found = 1.395e-02
Small eigenvalue found = 1.886e-02
Small eigenvalue found = 2.132e-02
The first mode is                       ....  188
The number of degrees of freedom        ....  138

    -----------------------------------------------------------------
                    Redundant Internal Coordinates


    -----------------------------------------------------------------
         Definition                    Initial Value    Approx d2E/dq
    -----------------------------------------------------------------
      1. B(C   1,C   0)                  1.3938         0.616177   
      2. B(C   2,C   1)                  1.3901         0.624618   
      3. B(N   3,C   2)                  1.3316         0.693564   
      4. B(C   4,N   3)                  1.3323         0.691683   
      5. B(C   5,C   0)                  1.3934         0.617024   
      6. B(C   5,C   4)                  1.3898         0.625229   
      7. B(C   6,N   3)                  2.0289         0.053517   
      8. B(C   7,N   3)                  2.5395         0.008202   
      9. B(C   7,C   6)                  1.4957         0.423711   
     10. B(O   8,C   7)                  1.2086         1.089504   
     11. B(O   9,C   7)                  1.3208         0.721680   
     12. B(C  10,O   9)                  1.4245         0.493060   
     13. B(H  11,C   0)                  1.0926         0.356723   
     14. B(H  12,C   2)                  1.0943         0.354491   
     15. B(H  13,C   4)                  1.0941         0.354769   
     16. B(H  13,O   8)                  2.4906         0.001879   
     17. B(H  14,C   5)                  1.0912         0.358544   
     18. B(H  15,C   6)                  1.0866         0.364647   
     19. B(H  15,H  12)                  2.1399         0.001457   
     20. B(H  15,N   3)                  2.2380         0.004754   
     21. B(H  15,C   2)                  2.5522         0.001673   
     22. B(H  16,C  10)                  1.0951         0.353373   
     23. B(H  17,C  10)                  1.0993         0.348044   
     24. B(C  19,N   3)                  2.6362         0.005749   
     25. B(C  19,C  18)                  1.5011         0.415426   
     26. B(C  19,C   6)                  1.5190         0.388978   
     27. B(C  20,C  19)                  1.5165         0.392560   
     28. B(C  21,C  20)                  1.3941         0.615382   
     29. B(C  22,C  21)                  1.3949         0.613691   
     30. B(C  23,C  22)                  1.3929         0.618174   
     31. B(C  24,C  23)                  1.3951         0.613108   
     32. B(C  25,C  24)                  1.4006         0.601003   
     33. B(C  25,C  20)                  1.4089         0.582981   
     34. B(O  26,C  25)                  1.3474         0.654343   
     35. B(C  27,O  26)                  1.4073         0.525157   
     36. B(N  28,C  18)                  1.3369         0.680041   
     37. B(O  29,N  28)                  1.2238         0.922795   
     38. B(H  30,C  21)                  1.0940         0.354903   
     39. B(H  31,C  22)                  1.0921         0.357310   
     40. B(H  32,C  23)                  1.0930         0.356095   
     41. B(H  33,C  24)                  1.0904         0.359602   
     42. B(H  34,C  27)                  1.1026         0.343820   
     43. B(H  35,C  27)                  1.1027         0.343743   
     44. B(H  36,C  27)                  1.0968         0.351198   
     45. B(O  37,N  28)                  1.3089         0.675188   
     46. B(O  37,C   6)                  1.9215         0.079412   
     47. B(H  38,C  10)                  1.0992         0.348096   
     48. B(H  39,C   1)                  1.0912         0.358487   
     49. B(C  40,C  18)                  1.4489         0.503177   
     50. B(O  41,C  40)                  1.2136         1.069890   
     51. B(O  42,C  40)                  1.3465         0.656655   
     52. B(C  43,O  42)                  1.4162         0.508163   
     53. B(H  44,C  43)                  1.0962         0.351952   
     54. B(H  45,C  43)                  1.1001         0.347043   
     55. B(H  46,C  43)                  1.1002         0.346825   
     56. B(H  47,H  13)                  2.4228         0.000515   
     57. B(H  47,N   3)                  2.5513         0.001503   
     58. B(H  47,C  19)                  1.0965         0.351558   
     59. A(C   1,C   0,H  11)          120.3994         0.351978   
     60. A(C   1,C   0,C   5)          119.1892         0.433208   
     61. A(C   5,C   0,H  11)          120.4113         0.352060   
     62. A(C   0,C   1,H  39)          121.5707         0.352272   
     63. A(C   0,C   1,C   2)          118.5436         0.434162   
     64. A(C   2,C   1,H  39)          119.8855         0.353084   
     65. A(C   1,C   2,H  12)          121.4742         0.352415   
     66. A(N   3,C   2,H  12)          116.9949         0.356512   
     67. A(C   1,C   2,N   3)          121.5291         0.440613   
     68. A(C   7,N   3,C  19)           60.5056         0.133205   
     69. A(C   6,N   3,C   7)           36.0798         0.162242   
     70. A(C   2,N   3,C  19)          119.3752         0.209685   
     71. A(C   2,N   3,C   7)          136.0129         0.219792   
     72. A(C   6,N   3,C  19)           35.0370         0.156582   
     73. A(C   4,N   3,C  19)          106.4176         0.209611   
     74. A(C   4,N   3,C   7)           98.0389         0.219712   
     75. A(C   2,N   3,C   4)          120.6605         0.445863   
     76. A(C   2,N   3,C   6)          115.4520         0.288962   
     77. A(C   4,N   3,C   6)          123.6587         0.288839   
     78. A(N   3,C   4,H  13)          116.7666         0.356396   
     79. A(N   3,C   4,C   5)          121.4866         0.440475   
     80. A(C   5,C   4,H  13)          121.7466         0.352520   
     81. A(C   0,C   5,H  14)          121.5670         0.352364   
     82. A(C   4,C   5,H  14)          119.8448         0.353152   
     83. A(C   0,C   5,C   4)          118.5868         0.434346   
     84. A(H  15,C   6,O  37)           86.5384         0.253851   
     85. A(N   3,C   6,C  19)           94.8925         0.265884   
     86. A(N   3,C   6,O  37)          170.9806         0.211438   
     87. A(C   7,C   6,O  37)           87.8132         0.286191   
     88. A(H  15,C   6,C  19)          121.4998         0.327156   
     89. A(N   3,C   6,C   7)           90.8992         0.269341   
     90. A(C  19,C   6,O  37)           93.4879         0.282411   
     91. A(N   3,C   6,H  15)           86.2445         0.239764   
     92. A(C   7,C   6,H  15)          118.6010         0.331811   
     93. A(C   7,C   6,C  19)          119.8551         0.373877   
     94. A(N   3,C   7,O   9)          100.6542         0.220974   
     95. A(C   6,C   7,O   9)          111.6387         0.413955   
     96. A(N   3,C   7,C   6)           53.0210         0.206959   
     97. A(C   6,C   7,O   8)          123.4101         0.445707   
     98. A(O   8,C   7,O   9)          124.9441         0.488088   
     99. A(N   3,C   7,O   8)          110.7071         0.233869   
    100. A(C   7,O   9,C  10)          116.4278         0.422530   
    101. A(H  17,C  10,H  38)          109.2337         0.287759   
    102. A(H  16,C  10,H  38)          110.3110         0.288443   
    103. A(O   9,C  10,H  38)          110.4779         0.335612   
    104. A(H  16,C  10,H  17)          110.2587         0.288437   
    105. A(O   9,C  10,H  17)          110.4179         0.335604   
    106. A(O   9,C  10,H  16)          106.1122         0.336453   
    107. A(C  19,C  18,N  28)          114.8962         0.408183   
    108. A(N  28,C  18,C  40)          121.7426         0.422332   
    109. A(C  19,C  18,C  40)          123.3334         0.389622   
    110. A(C  18,C  19,C  20)          113.0615         0.373196   
    111. A(C   6,C  19,C  20)          110.9372         0.368996   
    112. A(C   6,C  19,C  18)          108.2054         0.372607   
    113. A(N   3,C  19,H  47)           73.4933         0.179243   
    114. A(N   3,C  19,C  18)          154.5885         0.197358   
    115. A(N   3,C  19,C   6)           50.0705         0.195756   
    116. A(C  20,C  19,H  47)          108.4315         0.325684   
    117. A(C  18,C  19,H  47)          107.7677         0.328737   
    118. A(C   6,C  19,H  47)          108.2895         0.325194   
    119. A(N   3,C  19,C  20)           89.5837         0.195978   
    120. A(C  19,C  20,C  21)          120.2673         0.399629   
    121. A(C  21,C  20,C  25)          118.9981         0.428716   
    122. A(C  19,C  20,C  25)          120.7159         0.395850   
    123. A(C  20,C  21,C  22)          121.4814         0.432686   
    124. A(C  22,C  21,H  30)          119.8981         0.351434   
    125. A(C  20,C  21,H  30)          118.6183         0.351597   
    126. A(C  21,C  22,C  23)          119.0517         0.433038   
    127. A(C  23,C  22,H  31)          120.6616         0.352269   
    128. A(C  21,C  22,H  31)          120.2867         0.351836   
    129. A(C  22,C  23,C  24)          120.6146         0.432964   
    130. A(C  24,C  23,H  32)          119.1156         0.351576   
    131. A(C  22,C  23,H  32)          120.2697         0.352066   
    132. A(C  25,C  24,H  33)          120.3806         0.350975   
    133. A(C  23,C  24,H  33)          119.5682         0.352160   
    134. A(C  23,C  24,C  25)          120.0512         0.430778   
    135. A(C  24,C  25,O  26)          123.5145         0.432997   
    136. A(C  20,C  25,O  26)          116.6813         0.430634   
    137. A(C  20,C  25,C  24)          119.8022         0.426903   
    138. A(C  25,O  26,C  27)          119.4060         0.419906   
    139. A(H  35,C  27,H  36)          109.0133         0.287599   
    140. A(H  34,C  27,H  36)          109.1827         0.287609   
    141. A(O  26,C  27,H  36)          106.4203         0.339660   
    142. A(H  34,C  27,H  35)          109.1955         0.286646   
    143. A(O  26,C  27,H  35)          111.3844         0.338446   
    144. A(O  26,C  27,H  34)          111.5641         0.338459   
    145. A(O  29,N  28,O  37)          117.8921         0.461287   
    146. A(C  18,N  28,O  37)          114.6202         0.439375   
    147. A(C  18,N  28,O  29)          127.4871         0.465047   
    148. A(C   6,O  37,N  28)          104.4700         0.304496   
    149. A(O  41,C  40,O  42)          122.5997         0.478047   
    150. A(C  18,C  40,O  42)          109.3600         0.419703   
    151. A(C  18,C  40,O  41)          128.0400         0.458336   
    152. A(C  40,O  42,C  43)          116.5026         0.417714   
    153. A(H  45,C  43,H  46)          108.7019         0.287465   
    154. A(H  44,C  43,H  46)          109.9641         0.288097   
    155. A(O  42,C  43,H  46)          110.9967         0.337096   
    156. A(H  44,C  43,H  45)          110.0002         0.288125   
    157. A(O  42,C  43,H  45)          110.9943         0.337132   
    158. A(O  42,C  43,H  44)          106.1681         0.337922   
    159. D(C   2,C   1,C   0,H  11)   -179.9465         0.026253   
    160. D(H  39,C   1,C   0,C   5)    179.8251         0.026253   
    161. D(C   2,C   1,C   0,C   5)     -0.0096         0.026253   
    162. D(H  39,C   1,C   0,H  11)     -0.1117         0.026253   
    163. D(N   3,C   2,C   1,C   0)      0.2687         0.029366   
    164. D(H  12,C   2,C   1,H  39)     -0.0542         0.029366   
    165. D(H  12,C   2,C   1,C   0)    179.7834         0.029366   
    166. D(N   3,C   2,C   1,H  39)   -179.5689         0.029366   
    167. D(C   4,N   3,C   2,H  12)   -179.5289         0.055512   
    168. D(C  19,N   3,C   2,C   1)    135.3023         0.055512   
    169. D(C   6,N   3,C   2,H  12)     -4.8274         0.055512   
    170. D(C  19,N   3,C   2,H  12)    -44.2332         0.055512   
    171. D(C   4,N   3,C   2,C   1)      0.0065         0.055512   
    172. D(C   7,N   3,C   2,C   1)   -148.0153         0.055512   
    173. D(C   7,N   3,C   2,H  12)     32.4493         0.055512   
    174. D(C   6,N   3,C   2,C   1)    174.7081         0.055512   
    175. D(H  13,C   4,N   3,C   2)    179.6325         0.052340   
    176. D(H  13,C   4,N   3,C   6)      5.3817         0.052340   
    177. D(H  13,C   4,N   3,C  19)     39.3541         0.052340   
    178. D(C   5,C   4,N   3,C  19)   -140.8263         0.052340   
    179. D(C   5,C   4,N   3,C   6)   -174.7987         0.052340   
    180. D(C   5,C   4,N   3,C   7)    157.6468         0.052340   
    181. D(H  13,C   4,N   3,C   7)    -22.1728         0.052340   
    182. D(C   5,C   4,N   3,C   2)     -0.5479         0.052340   
    183. D(H  14,C   5,C   0,H  11)     -0.1452         0.026329   
    184. D(C   4,C   5,C   0,H  11)    179.4402         0.026329   
    185. D(C   4,C   5,C   0,C   1)     -0.4966         0.026329   
    186. D(C   0,C   5,C   4,H  13)   -179.3995         0.027078   
    187. D(H  14,C   5,C   0,C   1)    179.9180         0.026329   
    188. D(C   0,C   5,C   4,N   3)      0.7899         0.027078   
    189. D(H  14,C   5,C   4,H  13)      0.1932         0.027078   
    190. D(H  14,C   5,C   4,N   3)   -179.6174         0.027078   
    191. D(C  19,C   6,N   3,C   4)     69.0102         0.001746   
    192. D(O  37,C   6,N   3,C  19)    158.2430         0.001746   
    193. D(O  37,C   6,N   3,C   7)    -81.6886         0.001746   
    194. D(O  37,C   6,N   3,C   4)   -132.7469         0.001746   
    195. D(O  37,C   6,N   3,C   2)     52.7294         0.001746   
    196. D(C  19,C   6,N   3,C   7)    120.0685         0.001746   
    197. D(C  19,C   6,N   3,C   2)   -105.5136         0.001746   
    198. D(H  15,C   6,N   3,C  19)    121.3267         0.001746   
    199. D(H  15,C   6,N   3,C   7)   -118.6049         0.001746   
    200. D(H  15,C   6,N   3,C   4)   -169.6632         0.001746   
    201. D(H  15,C   6,N   3,C   2)     15.8131         0.001746   
    202. D(C   7,C   6,N   3,C   4)    -51.0583         0.001746   
    203. D(C   7,C   6,N   3,C  19)   -120.0685         0.001746   
    204. D(C   7,C   6,N   3,C   2)    134.4180         0.001746   
    205. D(O   9,C   7,C   6,H  15)     -0.9366         0.015081   
    206. D(O   8,C   7,C   6,N   3)     91.9228         0.015081   
    207. D(O   8,C   7,C   6,O  37)    -97.0076         0.015081   
    208. D(O   8,C   7,C   6,H  15)    178.1354         0.015081   
    209. D(O   9,C   7,N   3,C  19)    143.9577         0.001506   
    210. D(O   9,C   7,N   3,C   6)    109.1501         0.001506   
    211. D(O   8,C   7,N   3,C   6)   -116.8874         0.001506   
    212. D(C   6,C   7,N   3,C  19)     34.8076         0.001506   
    213. D(C   6,C   7,N   3,C   4)    139.1699         0.001506   
    214. D(C   6,C   7,N   3,C   2)    -68.2225         0.001506   
    215. D(O   8,C   7,N   3,C   4)     22.2825         0.001506   
    216. D(O   8,C   7,C   6,C  19)     -4.2403         0.015081   
    217. D(O   9,C   7,N   3,C   2)     40.9276         0.001506   
    218. D(O   8,C   7,N   3,C  19)    -82.0798         0.001506   
    219. D(O   8,C   7,N   3,C   2)    174.8901         0.001506   
    220. D(O   9,C   7,C   6,C  19)    176.6877         0.015081   
    221. D(O   9,C   7,N   3,C   4)   -111.6800         0.001506   
    222. D(N   3,C   7,C   6,O  37)    171.0696         0.015081   
    223. D(N   3,C   7,C   6,C  19)    -96.1631         0.015081   
    224. D(N   3,C   7,C   6,H  15)     86.2126         0.015081   
    225. D(O   9,C   7,C   6,N   3)    -87.1492         0.015081   
    226. D(O   9,C   7,C   6,O  37)     83.9204         0.015081   
    227. D(C  10,O   9,C   7,N   3)    126.1004         0.043371   
    228. D(C  10,O   9,C   7,O   8)      1.3238         0.043371   
    229. D(C  10,O   9,C   7,C   6)   -179.6212         0.043371   
    230. D(H  38,C  10,O   9,C   7)    -60.0750         0.019203   
    231. D(H  17,C  10,O   9,C   7)     60.8712         0.019203   
    232. D(H  16,C  10,O   9,C   7)   -179.6495         0.019203   
    233. D(N   3,C  19,C  18,C  40)    136.1294         0.013661   
    234. D(H  47,C  19,C  18,C  40)     47.3204         0.013661   
    235. D(H  47,C  19,C  18,N  28)   -134.5724         0.013661   
    236. D(C  20,C  19,C  18,C  40)    -72.4992         0.013661   
    237. D(C   6,C  19,C  18,C  40)    164.2113         0.013661   
    238. D(C   6,C  19,C  18,N  28)    -17.6815         0.013661   
    239. D(N   3,C  19,C   6,O  37)   -176.6625         0.013460   
    240. D(N   3,C  19,C   6,C   7)     93.8586         0.013460   
    241. D(H  47,C  19,C   6,N   3)    -48.1734         0.013460   
    242. D(H  47,C  19,C   6,O  37)    135.1641         0.013460   
    243. D(H  47,C  19,C   6,H  15)   -136.7612         0.013460   
    244. D(H  47,C  19,C   6,C   7)     45.6851         0.013460   
    245. D(C  20,C  19,C   6,N   3)     70.7076         0.013460   
    246. D(C  20,C  19,C   6,O  37)   -105.9549         0.013460   
    247. D(C  20,C  19,C   6,C   7)    164.5662         0.013460   
    248. D(C  18,C  19,C   6,N   3)   -164.7269         0.013460   
    249. D(C  18,C  19,C   6,O  37)     18.6106         0.013460   
    250. D(C  18,C  19,C   6,H  15)    106.6853         0.013460   
    251. D(C  18,C  19,C   6,C   7)    -70.8684         0.013460   
    252. D(C  20,C  19,C   6,H  15)    -17.8802         0.013460   
    253. D(H  47,C  19,N   3,C   7)     96.6026         0.001503   
    254. D(H  47,C  19,N   3,C   6)    132.4441         0.001503   
    255. D(H  47,C  19,N   3,C   4)      6.5551         0.001503   
    256. D(H  47,C  19,N   3,C   2)   -134.3336         0.001503   
    257. D(C  20,C  19,N   3,C   7)   -154.0118         0.001503   
    258. D(C  20,C  19,N   3,C   6)   -118.1703         0.001503   
    259. D(C  20,C  19,N   3,C   4)    115.9407         0.001503   
    260. D(N   3,C  19,C   6,H  15)    -88.5878         0.013460   
    261. D(C  20,C  19,N   3,C   2)    -24.9480         0.001503   
    262. D(C  18,C  19,N   3,C   7)     -0.1701         0.001503   
    263. D(C  18,C  19,N   3,C   6)     35.6714         0.001503   
    264. D(C  20,C  19,C  18,N  28)    105.6080         0.013661   
    265. D(C  18,C  19,N   3,C   4)    -90.2176         0.001503   
    266. D(C  18,C  19,N   3,C   2)    128.8937         0.001503   
    267. D(C   6,C  19,N   3,C   7)    -35.8415         0.001503   
    268. D(N   3,C  19,C  18,N  28)    -45.7633         0.013661   
    269. D(C   6,C  19,N   3,C   4)   -125.8890         0.001503   
    270. D(C   6,C  19,N   3,C   2)     93.2223         0.001503   
    271. D(C  25,C  20,C  19,N   3)    -65.0079         0.012245   
    272. D(C  25,C  20,C  19,H  47)      7.4191         0.012245   
    273. D(C  25,C  20,C  19,C  18)    126.8572         0.012245   
    274. D(C  25,C  20,C  19,C   6)   -111.3763         0.012245   
    275. D(C  21,C  20,C  19,N   3)    113.4064         0.012245   
    276. D(C  21,C  20,C  19,H  47)   -174.1666         0.012245   
    277. D(C  21,C  20,C  19,C  18)    -54.7285         0.012245   
    278. D(C  21,C  20,C  19,C   6)     67.0380         0.012245   
    279. D(H  30,C  21,C  20,C  25)    179.8193         0.026181   
    280. D(H  30,C  21,C  20,C  19)      1.3779         0.026181   
    281. D(C  22,C  21,C  20,C  25)      0.3504         0.026181   
    282. D(C  22,C  21,C  20,C  19)   -178.0910         0.026181   
    283. D(H  31,C  22,C  21,C  20)    179.8015         0.026029   
    284. D(C  23,C  22,C  21,H  30)   -179.6637         0.026029   
    285. D(C  23,C  22,C  21,C  20)     -0.2015         0.026029   
    286. D(H  31,C  22,C  21,H  30)      0.3393         0.026029   
    287. D(H  32,C  23,C  22,H  31)      0.0219         0.026433   
    288. D(H  32,C  23,C  22,C  21)   -179.9751         0.026433   
    289. D(C  24,C  23,C  22,H  31)    179.9608         0.026433   
    290. D(C  24,C  23,C  22,C  21)     -0.0363         0.026433   
    291. D(H  33,C  24,C  23,H  32)      0.0334         0.025977   
    292. D(H  33,C  24,C  23,C  22)   -179.9061         0.025977   
    293. D(C  25,C  24,C  23,H  32)   -179.9428         0.025977   
    294. D(C  25,C  24,C  23,C  22)      0.1176         0.025977   
    295. D(O  26,C  25,C  24,H  33)     -0.4744         0.024905   
    296. D(O  26,C  25,C  24,C  23)    179.5017         0.024905   
    297. D(C  20,C  25,C  24,H  33)   -179.9418         0.024905   
    298. D(C  20,C  25,C  24,C  23)      0.0343         0.024905   
    299. D(O  26,C  25,C  20,C  21)   -179.7664         0.023361   
    300. D(O  26,C  25,C  20,C  19)     -1.3322         0.023361   
    301. D(C  24,C  25,C  20,C  21)     -0.2634         0.023361   
    302. D(C  24,C  25,C  20,C  19)    178.1708         0.023361   
    303. D(C  27,O  26,C  25,C  24)     -4.0143         0.031678   
    304. D(C  27,O  26,C  25,C  20)    175.4685         0.031678   
    305. D(H  36,C  27,O  26,C  25)   -177.2077         0.021883   
    306. D(H  35,C  27,O  26,C  25)    -58.5125         0.021883   
    307. D(H  34,C  27,O  26,C  25)     63.7929         0.021883   
    308. D(O  37,N  28,C  18,C  40)   -178.9063         0.038053   
    309. D(O  37,N  28,C  18,C  19)      2.9532         0.038053   
    310. D(O  29,N  28,C  18,C  40)      0.7993         0.038053   
    311. D(O  29,N  28,C  18,C  19)   -177.3412         0.038053   
    312. D(C   6,O  37,N  28,O  29)   -169.9716         0.039953   
    313. D(C   6,O  37,N  28,C  18)      9.7641         0.039953   
    314. D(N  28,O  37,C   6,N   3)   -176.2930         0.001901   
    315. D(N  28,O  37,C   6,C  19)    -18.0090         0.001901   
    316. D(N  28,O  37,C   6,H  15)   -139.3906         0.001901   
    317. D(N  28,O  37,C   6,C   7)    101.7775         0.001901   
    318. D(O  42,C  40,C  18,N  28)    179.0433         0.017248   
    319. D(O  42,C  40,C  18,C  19)     -2.9756         0.017248   
    320. D(O  41,C  40,C  18,N  28)     -0.7343         0.017248   
    321. D(O  41,C  40,C  18,C  19)    177.2469         0.017248   
    322. D(C  43,O  42,C  40,O  41)     -0.6804         0.031921   
    323. D(C  43,O  42,C  40,C  18)    179.5276         0.031921   
    324. D(H  46,C  43,O  42,C  40)     61.6099         0.020437   
    325. D(H  45,C  43,O  42,C  40)    -59.3977         0.020437   
    326. D(H  44,C  43,O  42,C  40)   -178.9150         0.020437   
    -----------------------------------------------------------------

Number of atoms                         .... 48
Number of degrees of freedom            .... 326

         *************************************************************
         *                GEOMETRY OPTIMIZATION CYCLE   1            *
         *************************************************************
---------------------------------
CARTESIAN COORDINATES (ANGSTROEM)
---------------------------------
  C     -1.812888   -3.432503    0.259689
  C     -1.671284   -2.804601    1.495939
  C     -0.698752   -1.820991    1.633814
  N      0.085539   -1.469795    0.616639
  C     -0.040931   -2.056469   -0.572850
  C     -0.980466   -3.056734   -0.792668
  C      1.324902    0.096885    0.971710
  C      2.470101   -0.637881    0.350570
  O      2.763241   -0.547462   -0.818488
  O      3.094240   -1.400153    1.230227
  C      4.210533   -2.141719    0.747474
  H     -2.568083   -4.209104    0.117319
  H     -0.548596   -1.294856    2.581479
  H      0.631937   -1.714586   -1.364893
  H     -1.056799   -3.523435   -1.776047
  H      1.112340   -0.065805    2.024808
  H      4.590227   -2.710697    1.602701
  H      4.986751   -1.462462    0.367357
  C      1.382809    2.290696   -0.109609
  C      0.523204    1.086488    0.143863
  C     -0.788450    1.425715    0.825244
  C     -0.794036    2.136487    2.024568
  C     -1.983102    2.427995    2.693029
  C     -3.189904    2.000910    2.144030
  C     -3.212552    1.292179    0.942529
  C     -2.014953    1.001235    0.277171
  O     -1.954885    0.314003   -0.880262
  C     -3.135668   -0.220220   -1.428737
  N      2.437785    2.410213    0.702881
  O      3.257711    3.318379    0.730228
  H      0.162043    2.460468    2.446102
  H     -1.964528    2.983393    3.633193
  H     -4.133515    2.218792    2.650856
  H     -4.167038    0.967385    0.527335
  H     -3.847454    0.573681   -1.709440
  H     -3.626109   -0.915447   -0.727329
  H     -2.837620   -0.771739   -2.328734
  O      2.587022    1.424784    1.551315
  H      3.900396   -2.823539   -0.057039
  H     -2.304089   -3.066420    2.345512
  C      1.085611    3.281858   -1.123841
  O      1.690861    4.304492   -1.370161
  O     -0.011404    2.905494   -1.807850
  C     -0.445042    3.777409   -2.836185
  H     -1.347649    3.323092   -3.261175
  H     -0.678964    4.774570   -2.434852
  H      0.325060    3.882306   -3.614924
  H      0.301010    0.624002   -0.825222

----------------------------
CARTESIAN COORDINATES (A.U.)
----------------------------
  NO LB      ZA    FRAG     MASS         X           Y           Z
   0 C     6.0000    0    12.011   -3.425862   -6.486491    0.490741
   1 C     6.0000    0    12.011   -3.158269   -5.299928    2.826915
   2 C     6.0000    0    12.011   -1.320450   -3.441174    3.087461
   3 N     7.0000    0    14.007    0.161645   -2.777510    1.165279
   4 C     6.0000    0    12.011   -0.077348   -3.886163   -1.082530
   5 C     6.0000    0    12.011   -1.852812   -5.776390   -1.497925
   6 C     6.0000    0    12.011    2.503702    0.183086    1.836266
   7 C     6.0000    0    12.011    4.667814   -1.205420    0.662481
   8 O     8.0000    0    15.999    5.221769   -1.034553   -1.546718
   9 O     8.0000    0    15.999    5.847266   -2.645906    2.324792
  10 C     6.0000    0    12.011    7.956754   -4.047262    1.412521
  11 H     1.0000    0     1.008   -4.852974   -7.954054    0.221701
  12 H     1.0000    0     1.008   -1.036696   -2.446923    4.878288
  13 H     1.0000    0     1.008    1.194188   -3.240098   -2.579274
  14 H     1.0000    0     1.008   -1.997061   -6.658327   -3.356242
  15 H     1.0000    0     1.008    2.102018   -0.124353    3.826333
  16 H     1.0000    0     1.008    8.674272   -5.122475    3.028666
  17 H     1.0000    0     1.008    9.423594   -2.763653    0.694204
  18 C     6.0000    0    12.011    2.613130    4.328788   -0.207131
  19 C     6.0000    0    12.011    0.988712    2.053165    0.271862
  20 C     6.0000    0    12.011   -1.489955    2.694211    1.559485
  21 C     6.0000    0    12.011   -1.500511    4.037375    3.825879
  22 C     6.0000    0    12.011   -3.747520    4.588246    5.089087
  23 C     6.0000    0    12.011   -6.028045    3.781172    4.051630
  24 C     6.0000    0    12.011   -6.070843    2.441864    1.781122
  25 C     6.0000    0    12.011   -3.807709    1.892060    0.523777
  26 O     8.0000    0    15.999   -3.694197    0.593380   -1.663454
  27 C     6.0000    0    12.011   -5.925554   -0.416155   -2.699922
  28 N     7.0000    0    14.007    4.606746    4.554642    1.328253
  29 O     8.0000    0    15.999    6.156182    6.270828    1.379931
  30 H     1.0000    0     1.008    0.306217    4.649611    4.622463
  31 H     1.0000    0     1.008   -3.712420    5.637796    6.865740
  32 H     1.0000    0     1.008   -7.811211    4.192909    5.009392
  33 H     1.0000    0     1.008   -7.874561    1.828093    0.996519
  34 H     1.0000    0     1.008   -7.270634    1.084100   -3.230373
  35 H     1.0000    0     1.008   -6.852353   -1.729944   -1.374453
  36 H     1.0000    0     1.008   -5.362325   -1.458375   -4.400669
  37 O     8.0000    0    15.999    4.888763    2.692452    2.931560
  38 H     1.0000    0     1.008    7.370680   -5.335715   -0.107788
  39 H     1.0000    0     1.008   -4.354097   -5.794694    4.432375
  40 C     6.0000    0    12.011    2.051507    6.201813   -2.123752
  41 O     8.0000    0    15.999    3.195264    8.134311   -2.589229
  42 O     8.0000    0    15.999   -0.021550    5.490588   -3.416341
  43 C     6.0000    0    12.011   -0.841007    7.138269   -5.359613
  44 H     1.0000    0     1.008   -2.546688    6.279734   -6.162728
  45 H     1.0000    0     1.008   -1.283056    9.022630   -4.601203
  46 H     1.0000    0     1.008    0.614274    7.336495   -6.831216
  47 H     1.0000    0     1.008    0.568826    1.179193   -1.559444

--------------------------------
INTERNAL COORDINATES (ANGSTROEM)
--------------------------------
 C      0   0   0     0.000000000000     0.00000000     0.00000000
 C      1   0   0     1.393781430828     0.00000000     0.00000000
 C      2   1   0     1.390077925423   118.54357868     0.00000000
 N      3   2   1     1.331576503143   121.52914574     0.26873780
 C      4   3   2     1.332315699936   120.66047640     0.00000000
 C      5   4   3     1.389811512247   121.48656760   359.45206706
 C      4   3   2     2.028936244245   115.45204847   174.70805787
 C      7   4   3     1.495719466998    90.89920636   134.41798845
 O      8   7   4     1.208636944051   123.41011595    91.92281628
 O      8   7   4     1.320759073773   111.63869206   272.85076712
 C     10   8   7     1.424458020868   116.42783230   180.37879798
 H      1   2   3     1.092564788983   120.39940734   180.05354213
 H      3   2   1     1.094273190198   121.47424162   179.78338657
 H      5   4   3     1.094060073745   116.76657084   179.63245250
 H      6   5   4     1.091178632457   119.84482720   180.38258808
 H      7   4   3     1.086584574503    86.24448784    15.81310547
 H     11  10   8     1.095133197218   106.11216466   180.35054324
 H     11  10   8     1.099269479819   110.41793143    60.87121791
 C      7   4   3     2.446509902725   129.01476654   243.08959888
 C     19   7   4     1.501094839800    36.14316860    19.74246723
 C     20  19   7     1.516506261249   113.06146512   123.28952449
 C     21  20  19     1.394132739862   120.26732018   305.27151408
 C     22  21  20     1.394881706433   121.48141798   181.90902716
 C     23  22  21     1.392900774079   119.05166969   359.79851568
 C     24  23  22     1.395140571866   120.61461293   359.96372804
 C     25  24  23     1.400568828762   120.05117070     0.11763764
 O     26  25  24     1.347422404421   123.51451062   179.50166972
 C     27  26  25     1.407290848561   119.40595736   355.98567367
 N     19   7   4     1.336936301386    80.22583390   183.50861849
 O     29  19   7     1.223843122071   127.48707116   172.18549694
 H     22  21  20     1.093956880210   118.61834759     1.37794337
 H     23  22  21     1.092117337458   120.28674510   179.80148071
 H     24  23  22     1.093044774710   120.26974516   180.02486152
 H     25  24  23     1.090376414028   119.56822741   180.09387201
 H     28  27  26     1.102593434502   111.56408370    63.79288450
 H     28  27  26     1.102654133658   111.38439549   301.48753794
 H     28  27  26     1.096813757059   106.42034587   182.79227215
 O     29  19   7     1.308885880650   114.62022341   352.47993069
 H     11  10   8     1.099229110940   110.47793369   299.92503729
 H      2   1   3     1.091222085148   121.57067688   179.83474229
 C     19   7   4     1.448929022165   156.62632000   344.78195482
 O     41  19   7     1.213582054439   128.03999183   201.10744833
 O     41  19   7     1.346462061405   109.35997441    20.88498069
 C     43  41  19     1.416245231058   116.50257256   179.52756757
 H     44  43  41     1.096229826742   106.16806064   181.08501313
 H     44  43  41     1.100053516377   110.99427159   300.60229865
 H     44  43  41     1.100224932063   110.99667561    61.60990605
 H     20  19   7     1.096535093400   107.76772340   243.10911647

---------------------------
INTERNAL COORDINATES (A.U.)
---------------------------
 C      0   0   0     0.000000000000     0.00000000     0.00000000
 C      1   0   0     2.633865194809     0.00000000     0.00000000
 C      2   1   0     2.626866583859   118.54357868     0.00000000
 N      3   2   1     2.516314917304   121.52914574     0.26873780
 C      4   3   2     2.517711796803   120.66047640     0.00000000
 C      5   4   3     2.626363135918   121.48656760   359.45206706
 C      4   3   2     3.834133844809   115.45204847   174.70805787
 C      7   4   3     2.826500165801    90.89920636   134.41798845
 O      8   7   4     2.283992819596   123.41011595    91.92281628
 O      8   7   4     2.495872938323   111.63869206   272.85076712
 C     10   8   7     2.691835548707   116.42783230   180.37879798
 H      1   2   3     2.064648234744   120.39940734   180.05354213
 H      3   2   1     2.067876645166   121.47424162   179.78338657
 H      5   4   3     2.067473913435   116.76657084   179.63245250
 H      6   5   4     2.062028778531   119.84482720   180.38258808
 H      7   4   3     2.053347267154    86.24448784    15.81310547
 H     11  10   8     2.069501822908   106.11216466   180.35054324
 H     11  10   8     2.077318264236   110.41793143    60.87121791
 C      7   4   3     4.623233700076   129.01476654   243.08959888
 C     19   7   4     2.836658148264    36.14316860    19.74246723
 C     20  19   7     2.865781514137   113.06146512   123.28952449
 C     21  20  19     2.634529072673   120.26732018   305.27151408
 C     22  21  20     2.635944414375   121.48141798   181.90902716
 C     23  22  21     2.632200994736   119.05166969   359.79851568
 C     24  23  22     2.636433599149   120.61461293   359.96372804
 C     25  24  23     2.646691518068   120.05117070     0.11763764
 O     26  25  24     2.546259331066   123.51451062   179.50166972
 C     27  26  25     2.659394294554   119.40595736   355.98567367
 N     19   7   4     2.526443468118    80.22583390   183.50861849
 O     29  19   7     2.312728331598   127.48707116   172.18549694
 H     22  21  20     2.067278905915   118.61834759     1.37794337
 H     23  22  21     2.063802673903   120.28674510   179.80148071
 H     24  23  22     2.065555276316   120.26974516   180.02486152
 H     25  24  23     2.060512805400   119.56822741   180.09387201
 H     28  27  26     2.083599628268   111.56408370    63.79288450
 H     28  27  26     2.083714333051   111.38439549   301.48753794
 H     28  27  26     2.072677620759   106.42034587   182.79227215
 O     29  19   7     2.473435854986   114.62022341   352.47993069
 H     11  10   8     2.077241978110   110.47793369   299.92503729
 H      2   1   3     2.062110892216   121.57067688   179.83474229
 C     19   7   4     2.738079039382   156.62632000   344.78195482
 O     41  19   7     2.293337723931   128.03999183   201.10744833
 O     41  19   7     2.544444545770   109.35997441    20.88498069
 C     43  41  19     2.676315625171   116.50257256   179.52756757
 H     44  43  41     2.071574152378   106.16806064   181.08501313
 H     44  43  41     2.078799878610   110.99427159   300.60229865
 H     44  43  41     2.079123807312   110.99667561    61.60990605
 H     20  19   7     2.072151022759   107.76772340   243.10911647

---------------------
BASIS SET INFORMATION
---------------------
There are 4 groups of distinct atoms

 Group   1 Type C   : 11s6p2d1f contracted to 5s3p2d1f pattern {62111/411/11/1}
 Group   2 Type N   : 11s6p2d1f contracted to 5s3p2d1f pattern {62111/411/11/1}
 Group   3 Type O   : 11s6p2d1f contracted to 5s3p2d1f pattern {62111/411/11/1}
 Group   4 Type H   : 5s1p contracted to 3s1p pattern {311/1}

Atom   0C    basis set group =>   1
Atom   1C    basis set group =>   1
Atom   2C    basis set group =>   1
Atom   3N    basis set group =>   2
Atom   4C    basis set group =>   1
Atom   5C    basis set group =>   1
Atom   6C    basis set group =>   1
Atom   7C    basis set group =>   1
Atom   8O    basis set group =>   3
Atom   9O    basis set group =>   3
Atom  10C    basis set group =>   1
Atom  11H    basis set group =>   4
Atom  12H    basis set group =>   4
Atom  13H    basis set group =>   4
Atom  14H    basis set group =>   4
Atom  15H    basis set group =>   4
Atom  16H    basis set group =>   4
Atom  17H    basis set group =>   4
Atom  18C    basis set group =>   1
Atom  19C    basis set group =>   1
Atom  20C    basis set group =>   1
Atom  21C    basis set group =>   1
Atom  22C    basis set group =>   1
Atom  23C    basis set group =>   1
Atom  24C    basis set group =>   1
Atom  25C    basis set group =>   1
Atom  26O    basis set group =>   3
Atom  27C    basis set group =>   1
Atom  28N    basis set group =>   2
Atom  29O    basis set group =>   3
Atom  30H    basis set group =>   4
Atom  31H    basis set group =>   4
Atom  32H    basis set group =>   4
Atom  33H    basis set group =>   4
Atom  34H    basis set group =>   4
Atom  35H    basis set group =>   4
Atom  36H    basis set group =>   4
Atom  37O    basis set group =>   3
Atom  38H    basis set group =>   4
Atom  39H    basis set group =>   4
Atom  40C    basis set group =>   1
Atom  41O    basis set group =>   3
Atom  42O    basis set group =>   3
Atom  43C    basis set group =>   1
Atom  44H    basis set group =>   4
Atom  45H    basis set group =>   4
Atom  46H    basis set group =>   4
Atom  47H    basis set group =>   4
---------------------------------
AUXILIARY/J BASIS SET INFORMATION
---------------------------------
There are 4 groups of distinct atoms

 Group   1 Type C   : 12s5p4d2f1g contracted to 6s4p3d1f1g pattern {711111/2111/211/2/1}
 Group   2 Type N   : 12s5p4d2f1g contracted to 6s4p3d1f1g pattern {711111/2111/211/2/1}
 Group   3 Type O   : 12s5p4d2f1g contracted to 6s4p3d1f1g pattern {711111/2111/211/2/1}
 Group   4 Type H   : 5s2p1d contracted to 3s1p1d pattern {311/2/1}

Atom   0C    basis set group =>   1
Atom   1C    basis set group =>   1
Atom   2C    basis set group =>   1
Atom   3N    basis set group =>   2
Atom   4C    basis set group =>   1
Atom   5C    basis set group =>   1
Atom   6C    basis set group =>   1
Atom   7C    basis set group =>   1
Atom   8O    basis set group =>   3
Atom   9O    basis set group =>   3
Atom  10C    basis set group =>   1
Atom  11H    basis set group =>   4
Atom  12H    basis set group =>   4
Atom  13H    basis set group =>   4
Atom  14H    basis set group =>   4
Atom  15H    basis set group =>   4
Atom  16H    basis set group =>   4
Atom  17H    basis set group =>   4
Atom  18C    basis set group =>   1
Atom  19C    basis set group =>   1
Atom  20C    basis set group =>   1
Atom  21C    basis set group =>   1
Atom  22C    basis set group =>   1
Atom  23C    basis set group =>   1
Atom  24C    basis set group =>   1
Atom  25C    basis set group =>   1
Atom  26O    basis set group =>   3
Atom  27C    basis set group =>   1
Atom  28N    basis set group =>   2
Atom  29O    basis set group =>   3
Atom  30H    basis set group =>   4
Atom  31H    basis set group =>   4
Atom  32H    basis set group =>   4
Atom  33H    basis set group =>   4
Atom  34H    basis set group =>   4
Atom  35H    basis set group =>   4
Atom  36H    basis set group =>   4
Atom  37O    basis set group =>   3
Atom  38H    basis set group =>   4
Atom  39H    basis set group =>   4
Atom  40C    basis set group =>   1
Atom  41O    basis set group =>   3
Atom  42O    basis set group =>   3
Atom  43C    basis set group =>   1
Atom  44H    basis set group =>   4
Atom  45H    basis set group =>   4
Atom  46H    basis set group =>   4
Atom  47H    basis set group =>   4


           ************************************************************
           *        Program running with 24 parallel MPI-processes    *
           *              working on a common directory               *
           ************************************************************
------------------------------------------------------------------------------
                           ORCA GTO INTEGRAL CALCULATION
                           -- RI-GTO INTEGRALS CHOSEN --
------------------------------------------------------------------------------
------------------------------------------------------------------------------
                   ___                                                        
                  /   \      - P O W E R E D   B Y -                         
                 /     \                                                     
                 |  |  |   _    _      __       _____    __    __             
                 |  |  |  | |  | |    /  \     |  _  \  |  |  /  |          
                  \  \/   | |  | |   /    \    | | | |  |  | /  /          
                 / \  \   | |__| |  /  /\  \   | |_| |  |  |/  /          
                |  |  |   |  __  | /  /__\  \  |    /   |      \           
                |  |  |   | |  | | |   __   |  |    \   |  |\   \          
                \     /   | |  | | |  |  |  |  | |\  \  |  | \   \       
                 \___/    |_|  |_| |__|  |__|  |_| \__\ |__|  \__/        
                                                                              
                      - O R C A' S   B I G   F R I E N D -                    
                                      &                                       
                       - I N T E G R A L  F E E D E R -                       
                                                                              
 v1 FN, 2020, v2 2021                                                         
------------------------------------------------------------------------------


Reading SHARK input file TS2_CO2Me/TS2_CO2Me.SHARKINP.tmp ... ok
----------------------
SHARK INTEGRAL PACKAGE
----------------------

Number of atoms                             ...     48
Number of basis functions                   ...    988
Number of shells                            ...    388
Maximum angular momentum                    ...      3
Integral batch strategy                     ... SHARK/LIBINT Hybrid
RI-J (if used) integral strategy            ... SPLIT-RIJ (Revised 2003 algorithm where possible)
Printlevel                                  ...      1
Contraction scheme used                     ... SEGMENTED contraction
Coulomb Range Separation                    ... NOT USED
Exchange Range Separation                   ... NOT USED
Finite Nucleus Model                        ... NOT USED
Auxiliary Coulomb fitting basis             ... AVAILABLE
   # of basis functions in Aux-J            ...   1592
   # of shells in Aux-J                     ...    520
   Maximum angular momentum in Aux-J        ...      4
Auxiliary J/K fitting basis                 ... NOT available
Auxiliary Correlation fitting basis         ... NOT available
Auxiliary 'external' fitting basis          ... NOT available
Integral threshold                          ...     2.500000e-11
Primitive cut-off                           ...     2.500000e-12
Primitive pair pre-selection threshold      ...     2.500000e-12

Calculating pre-screening integrals         ... done (  0.1 sec) Dimension = 388
Organizing shell pair data                  ... done (  1.5 sec)
Shell pair information
Total number of shell pairs                 ...     75466
Shell pairs after pre-screening             ...     52864
Total number of primitive shell pairs       ...    232216
Primitive shell pairs kept                  ...    104809
          la=0 lb=0:  13478 shell pairs
          la=1 lb=0:  15274 shell pairs
          la=1 lb=1:   4322 shell pairs
          la=2 lb=0:   7537 shell pairs
          la=2 lb=1:   4343 shell pairs
          la=2 lb=2:   1109 shell pairs
          la=3 lb=0:   3470 shell pairs
          la=3 lb=1:   2064 shell pairs
          la=3 lb=2:   1014 shell pairs
          la=3 lb=3:    253 shell pairs

Calculating one electron integrals          ... done (  0.1 sec)
Calculating RI/J V-Matrix + Cholesky decomp.... done (  0.3 sec)
Calculating Nuclear repulsion               ... done (  0.0 sec) ENN=   2876.111546125019 Eh

SHARK setup successfully completed in   3.9 seconds

Maximum memory used throughout the entire GTOINT-calculation: 79.1 MB


           ************************************************************
           *        Program running with 24 parallel MPI-processes    *
           *              working on a common directory               *
           ************************************************************
-------------------------------------------------------------------------------
                                 ORCA SCF
-------------------------------------------------------------------------------

------------
SCF SETTINGS
------------
Hamiltonian:
 Density Functional     Method          .... DFT(GTOs)
 Exchange Functional    Exchange        .... PBE
   PBE kappa parameter   XKappa         ....  0.804000
   PBE mue parameter    XMuePBE         ....  0.219520
 Correlation Functional Correlation     .... PBE
   PBE beta parameter  CBetaPBE         ....  0.066725
 LDA part of GGA corr.  LDAOpt          .... PW91-LDA
 Gradients option       PostSCFGGA      .... off
 Hybrid DFT is turned on
   Fraction HF Exchange ScalHFX         ....  0.250000
   Scaling of DF-GGA-X  ScalDFX         ....  0.750000
   Scaling of DF-GGA-C  ScalDFC         ....  1.000000
   Scaling of DF-LDA-C  ScalLDAC        ....  1.000000
   Perturbative correction              ....  0.000000
   Density functional embedding theory  .... OFF
   NL short-range parameter             ....  6.900000
 RI-approximation to the Coulomb term is turned on
   Number of AuxJ basis functions       .... 1592
   RIJ-COSX (HFX calculated with COS-X)).... on


General Settings:
 Integral files         IntName         .... TS2_CO2Me/TS2_CO2Me
 Hartree-Fock type      HFTyp           .... RHF
 Total Charge           Charge          ....    0
 Multiplicity           Mult            ....    1
 Number of Electrons    NEL             ....  204
 Basis Dimension        Dim             ....  988
 Nuclear Repulsion      ENuc            ....   2876.1115461250 Eh

Convergence Acceleration:
 DIIS                   CNVDIIS         .... on
   Start iteration      DIISMaxIt       ....    12
   Startup error        DIISStart       ....  0.200000
   # of expansion vecs  DIISMaxEq       ....     5
   Bias factor          DIISBfac        ....   1.050
   Max. coefficient     DIISMaxC        ....  10.000
 Trust-Rad. Augm. Hess. CNVTRAH         .... auto
   Auto Start mean grad. ratio tolernc. ....  1.125000
   Auto Start start iteration           ....    20
   Auto Start num. interpolation iter.  ....    10
   Max. Number of Micro iterations      ....    16
   Max. Number of Macro iterations      .... Maxiter - #DIIS iter
   Number of Davidson start vectors     ....     2
   Converg. threshold I  (grad. norm)   ....   1.000e-05
   Converg. threshold II (energy diff.) ....   1.000e-08
   Grad. Scal. Fac. for Micro threshold ....   0.100
   Minimum threshold for Micro iter.    ....   0.010
   NR start threshold (gradient norm)   ....   0.001
   Initial trust radius                 ....   0.400
   Minimum AH scaling param. (alpha)    ....   1.000
   Maximum AH scaling param. (alpha)    .... 1000.000
   Orbital update algorithm             .... Taylor
   White noise on init. David. guess    .... on
   Maximum white noise                  ....   0.010
   Quad. conv. algorithm                .... NR
 SOSCF                  CNVSOSCF        .... on
   Start iteration      SOSCFMaxIt      ....   150
   Startup grad/error   SOSCFStart      ....  0.003300
 Level Shifting         CNVShift        .... on
   Level shift para.    LevelShift      ....    0.2500
   Turn off err/grad.   ShiftErr        ....    0.0010
 Zerner damping         CNVZerner       .... off
 Static damping         CNVDamp         .... on
   Fraction old density DampFac         ....    0.7000
   Max. Damping (<1)    DampMax         ....    0.9800
   Min. Damping (>=0)   DampMin         ....    0.0000
   Turn off err/grad.   DampErr         ....    0.1000
 Fernandez-Rico         CNVRico         .... off

SCF Procedure:
 Maximum # iterations   MaxIter         ....   800
 SCF integral mode      SCFMode         .... Direct
   Integral package                     .... SHARK and LIBINT hybrid scheme
 Reset frequency        DirectResetFreq ....    20
 Integral Threshold     Thresh          ....  2.500e-11 Eh
 Primitive CutOff       TCut            ....  2.500e-12 Eh

Convergence Tolerance:
 Convergence Check Mode ConvCheckMode   .... Total+1el-Energy
 Convergence forced     ConvForced      .... 0
 Energy Change          TolE            ....  1.000e-08 Eh
 1-El. energy change                    ....  1.000e-05 Eh
 Orbital Gradient       TolG            ....  1.000e-05
 Orbital Rotation angle TolX            ....  1.000e-05
 DIIS Error             TolErr          ....  5.000e-07


Diagonalization of the overlap matrix:
Smallest eigenvalue                        ... 5.864e-06
Time for diagonalization                   ...    0.325 sec
Threshold for overlap eigenvalues          ... 1.000e-08
Number of eigenvalues below threshold      ... 0
Time for construction of square roots      ...    0.241 sec
Total time needed                          ...    0.573 sec

Time for model grid setup =    0.459 sec

------------------------------
INITIAL GUESS: MODEL POTENTIAL
------------------------------
Loading Hartree-Fock densities                     ... done
Calculating cut-offs                               ... done
Initializing the effective Hamiltonian             ... done
Setting up the integral package (SHARK)            ... done
Starting the Coulomb interaction                   ... done (   0.5 sec)
Reading the grid                                   ... done
Mapping shells                                     ... done
Starting the XC term evaluation                    ... done (   0.3 sec)
  promolecular density results
     # of electrons  =    203.988776667
     EX              =   -173.254961387
     EC              =     -6.902859202
     EX+EC           =   -180.157820589
Transforming the Hamiltonian                       ... done (   0.2 sec)
Diagonalizing the Hamiltonian                      ... done (   0.3 sec)
Back transforming the eigenvectors                 ... done (   0.1 sec)
Now organizing SCF variables                       ... done
                      ------------------
                      INITIAL GUESS DONE (   2.1 sec)
                      ------------------
-------------------
DFT GRID GENERATION
-------------------

General Integration Accuracy     IntAcc      ... 4.388
Radial Grid Type                 RadialGrid  ... OptM3 with GC (2021)
Angular Grid (max. ang.)         AngularGrid ... 4 (Lebedev-302)
Angular grid pruning method      GridPruning ... 4 (adaptive)
Weight generation scheme         WeightScheme... Becke
Basis function cutoff            BFCut       ... 1.0000e-11
Integration weight cutoff        WCut        ... 1.0000e-14
Angular grids for H and He will be reduced by one unit
Partially contracted basis set               ... off
Rotationally invariant grid construction     ... off

Total number of grid points                  ...   230597
Total number of batches                      ...     3628
Average number of points per batch           ...       63
Average number of grid points per atom       ...     4804
Time for grid setup =    1.665 sec

--------------------
COSX GRID GENERATION
--------------------

GRIDX 1
-------
General Integration Accuracy     IntAcc      ... 3.816
Radial Grid Type                 RadialGrid  ... OptM3 with GC (2021)
Angular Grid (max. ang.)         AngularGrid ... 1 (Lebedev-50)
Angular grid pruning method      GridPruning ... 4 (adaptive)
Weight generation scheme         WeightScheme... Becke
Basis function cutoff            BFCut       ... 1.0000e-11
Integration weight cutoff        WCut        ... 1.0000e-14
Angular grids for H and He will be reduced by one unit
Partially contracted basis set               ... on
Rotationally invariant grid construction     ... off

Total number of grid points                  ...    29220
Total number of batches                      ...      482
Average number of points per batch           ...       60
Average number of grid points per atom       ...      609
UseSFitting                                  ... on

GRIDX 2
-------
General Integration Accuracy     IntAcc      ... 4.020
Radial Grid Type                 RadialGrid  ... OptM3 with GC (2021)
Angular Grid (max. ang.)         AngularGrid ... 2 (Lebedev-110)
Angular grid pruning method      GridPruning ... 4 (adaptive)
Weight generation scheme         WeightScheme... Becke
Basis function cutoff            BFCut       ... 1.0000e-11
Integration weight cutoff        WCut        ... 1.0000e-14
Angular grids for H and He will be reduced by one unit
Partially contracted basis set               ... on
Rotationally invariant grid construction     ... off

Total number of grid points                  ...    63353
Total number of batches                      ...     1017
Average number of points per batch           ...       62
Average number of grid points per atom       ...     1320
UseSFitting                                  ... on

GRIDX 3
-------
General Integration Accuracy     IntAcc      ... 4.338
Radial Grid Type                 RadialGrid  ... OptM3 with GC (2021)
Angular Grid (max. ang.)         AngularGrid ... 3 (Lebedev-194)
Angular grid pruning method      GridPruning ... 4 (adaptive)
Weight generation scheme         WeightScheme... Becke
Basis function cutoff            BFCut       ... 1.0000e-11
Integration weight cutoff        WCut        ... 1.0000e-14
Angular grids for H and He will be reduced by one unit
Partially contracted basis set               ... on
Rotationally invariant grid construction     ... off

Total number of grid points                  ...   138374
Total number of batches                      ...     2186
Average number of points per batch           ...       63
Average number of grid points per atom       ...     2883
UseSFitting                                  ... on

Time for X-Grid setup             =    3.258 sec


--------------------
CPCM SOLVATION MODEL
--------------------
CPCM parameters:
  Epsilon                                         ...      47.2000
  Refrac                                          ...       1.4790
  Rsolv                                           ...       1.3000
  Surface type                                    ... GAUSSIAN VDW
  Epsilon function type                           ...         CPCM
Radii:
 Radius for C  used is    3.8550 Bohr (=   2.0400 Ang.)
 Radius for N  used is    3.5149 Bohr (=   1.8600 Ang.)
 Radius for O  used is    3.4469 Bohr (=   1.8240 Ang.)
 Radius for H  used is    2.4944 Bohr (=   1.3200 Ang.)
Calculating surface                               ...        done! (  0.0s)
GEPOL surface points                              ...         2481
GEPOL Volume                                      ...    2950.4720
GEPOL Surface-area                                ...    1443.9251
Calculating surface distance matrix               ...        done! (  0.1s)
Performing Cholesky decomposition & store         ...        done! (  0.5s)
Overall time for CPCM initialization              ...                 0.6s
--------------
SCF ITERATIONS
--------------
ITER       Energy         Delta-E        Max-DP      RMS-DP      [F,P]     Damp
               ***  Starting incremental Fock matrix formation  ***
  0  -1370.3801153337   0.000000000000 0.31137583  0.00079018  0.2800386 0.7000
  1  -1370.6576881744  -0.277572840635 0.24171008  0.00065854  0.1120060 0.7000
                               ***Turning on DIIS***
  2  -1370.7657780263  -0.108089851906 0.23459586  0.00110212  0.0330097 0.0000
  3  -1370.9503083867  -0.184530360417 0.22297661  0.00053902  0.0584973 0.0000
  4  -1370.9809750367  -0.030666650007 0.02557689  0.00019050  0.0183891 0.0000
  5  -1370.9833707272  -0.002395690470 0.02747957  0.00006791  0.0052699 0.0000
                      *** Initiating the SOSCF procedure ***
                           *** Shutting down DIIS ***
                      *** Re-Reading the Fockian *** 
                      *** Removing any level shift *** 
ITER      Energy       Delta-E        Grad      Rot      Max-DP    RMS-DP
  6  -1370.98350455  -0.0001338278  0.000169  0.000169  0.005162  0.000018
               *** Restarting incremental Fock matrix formation ***
  7  -1370.98348808   0.0000164720  0.000116  0.000619  0.001483  0.000016
  8  -1370.98348698   0.0000010994  0.000182  0.000338  0.000479  0.000005
  9  -1370.98349102  -0.0000040362  0.000029  0.000106  0.001331  0.000004
 10  -1370.98349077   0.0000002523  0.000045  0.000066  0.001210  0.000002
 11  -1370.98349114  -0.0000003731  0.000004  0.000012  0.000461  0.000001
 12  -1370.98349115  -0.0000000090  0.000005  0.000010  0.000081  0.000000
                  ***Gradient check signals convergence***
              ***Rediagonalizing the Fockian in SOSCF/NRSCF***

               *****************************************************
               *                     SUCCESS                       *
               *           SCF CONVERGED AFTER  13 CYCLES          *
               *****************************************************

Old exchange energy                            =    -44.084957080 Eh
New exchange energy                            =    -44.084966247 Eh
Exchange energy change after final integration =     -0.000009167 Eh
Total energy after final integration           =  -1370.983500278 Eh
Final COS-X integration done in                =    22.607 sec

----------------
TOTAL SCF ENERGY
----------------

Total Energy       :        -1370.98350028 Eh          -37306.35766 eV

Components:
Nuclear Repulsion  :         2876.11154613 Eh           78262.97398 eV
Electronic Energy  :        -4247.09504640 Eh         -115569.33164 eV
One Electron Energy:        -7594.42623042 Eh         -206654.84386 eV
Two Electron Energy:         3347.33118402 Eh           91085.51222 eV
Max COSX asymmetry :            0.00000236 Eh               0.00006 eV
CPCM Dielectric    :           -0.05686416 Eh              -1.54735 eV

Virial components:
Potential Energy   :        -2735.61740058 Eh          -74439.93392 eV
Kinetic Energy     :         1364.63390031 Eh           37133.57626 eV
Virial Ratio       :            2.00465297


DFT components:
N(Alpha)           :      102.000062615884 electrons
N(Beta)            :      102.000062615884 electrons
N(Total)           :      204.000125231767 electrons
E(X)               :     -132.094089658316 Eh       
E(C)               :       -6.899136253227 Eh       
E(XC)              :     -138.993225911543 Eh       
DFET-embed. en.    :        0.000000000000 Eh       
CPCM Solvation Model Properties:
Surface-charge          :           -0.03046420
Charge-correction       :           -0.00046321 Eh              -0.01260 eV
Free-energy (cav+disp)  :  This term is not implemented in the current solvation scheme

---------------
SCF CONVERGENCE
---------------

  Last Energy change         ...    3.8307e-08  Tolerance :   1.0000e-08
  Last MAX-Density change    ...    2.1094e-15  Tolerance :   1.0000e-07
  Last RMS-Density change    ...    1.2610e-17  Tolerance :   5.0000e-09
  Last Orbital Gradient      ...    1.2423e-06  Tolerance :   1.0000e-05
  Last Orbital Rotation      ...    4.2849e-06  Tolerance :   1.0000e-05

             **** THE GBW FILE WAS UPDATED (TS2_CO2Me/TS2_CO2Me.gbw) ****
             **** DENSITY TS2_CO2Me/TS2_CO2Me.scfp WAS UPDATED ****
             **** ENERGY FILE WAS UPDATED (TS2_CO2Me/TS2_CO2Me.en.tmp) ****
             **** THE GBW FILE WAS UPDATED (TS2_CO2Me/TS2_CO2Me.gbw) ****
             **** DENSITY TS2_CO2Me/TS2_CO2Me.scfp WAS UPDATED ****
----------------
ORBITAL ENERGIES
----------------

  NO   OCC          E(Eh)            E(eV) 
   0   2.0000     -19.269347      -524.3456 
   1   2.0000     -19.252591      -523.8896 
   2   2.0000     -19.245631      -523.7002 
   3   2.0000     -19.233559      -523.3718 
   4   2.0000     -19.211944      -522.7836 
   5   2.0000     -19.210159      -522.7350 
   6   2.0000     -19.189263      -522.1664 
   7   2.0000     -14.593227      -397.1019 
   8   2.0000     -14.441684      -392.9782 
   9   2.0000     -10.371184      -282.2143 
  10   2.0000     -10.353532      -281.7339 
  11   2.0000     -10.332352      -281.1576 
  12   2.0000     -10.293844      -280.1097 
  13   2.0000     -10.287705      -279.9427 
  14   2.0000     -10.286504      -279.9100 
  15   2.0000     -10.274945      -279.5955 
  16   2.0000     -10.269005      -279.4338 
  17   2.0000     -10.268250      -279.4133 
  18   2.0000     -10.267607      -279.3958 
  19   2.0000     -10.265883      -279.3489 
  20   2.0000     -10.262722      -279.2629 
  21   2.0000     -10.253595      -279.0145 
  22   2.0000     -10.253040      -278.9994 
  23   2.0000     -10.241903      -278.6964 
  24   2.0000     -10.233179      -278.4590 
  25   2.0000     -10.232734      -278.4468 
  26   2.0000     -10.228920      -278.3431 
  27   2.0000     -10.224870      -278.2329 
  28   2.0000      -1.234412       -33.5901 
  29   2.0000      -1.161205       -31.5980 
  30   2.0000      -1.140221       -31.0270 
  31   2.0000      -1.110583       -30.2205 
  32   2.0000      -1.068614       -29.0785 
  33   2.0000      -1.055961       -28.7342 
  34   2.0000      -1.045315       -28.4445 
  35   2.0000      -1.015436       -27.6314 
  36   2.0000      -0.903335       -24.5810 
  37   2.0000      -0.876209       -23.8429 
  38   2.0000      -0.854860       -23.2619 
  39   2.0000      -0.831049       -22.6140 
  40   2.0000      -0.812709       -22.1149 
  41   2.0000      -0.793950       -21.6045 
  42   2.0000      -0.777636       -21.1606 
  43   2.0000      -0.763090       -20.7647 
  44   2.0000      -0.752970       -20.4893 
  45   2.0000      -0.717959       -19.5366 
  46   2.0000      -0.690478       -18.7889 
  47   2.0000      -0.679326       -18.4854 
  48   2.0000      -0.665956       -18.1216 
  49   2.0000      -0.651093       -17.7171 
  50   2.0000      -0.623759       -16.9733 
  51   2.0000      -0.612745       -16.6736 
  52   2.0000      -0.596829       -16.2405 
  53   2.0000      -0.592503       -16.1228 
  54   2.0000      -0.572074       -15.5669 
  55   2.0000      -0.565707       -15.3937 
  56   2.0000      -0.553836       -15.0706 
  57   2.0000      -0.544689       -14.8217 
  58   2.0000      -0.540811       -14.7162 
  59   2.0000      -0.526111       -14.3162 
  60   2.0000      -0.519831       -14.1453 
  61   2.0000      -0.516859       -14.0644 
  62   2.0000      -0.514850       -14.0098 
  63   2.0000      -0.505021       -13.7423 
  64   2.0000      -0.499566       -13.5939 
  65   2.0000      -0.497835       -13.5468 
  66   2.0000      -0.496756       -13.5174 
  67   2.0000      -0.493618       -13.4320 
  68   2.0000      -0.490498       -13.3471 
  69   2.0000      -0.470523       -12.8036 
  70   2.0000      -0.463985       -12.6257 
  71   2.0000      -0.458710       -12.4821 
  72   2.0000      -0.454663       -12.3720 
  73   2.0000      -0.450976       -12.2717 
  74   2.0000      -0.444548       -12.0968 
  75   2.0000      -0.434017       -11.8102 
  76   2.0000      -0.431939       -11.7536 
  77   2.0000      -0.427336       -11.6284 
  78   2.0000      -0.417790       -11.3686 
  79   2.0000      -0.414574       -11.2811 
  80   2.0000      -0.407847       -11.0981 
  81   2.0000      -0.396242       -10.7823 
  82   2.0000      -0.394273       -10.7287 
  83   2.0000      -0.384104       -10.4520 
  84   2.0000      -0.381359       -10.3773 
  85   2.0000      -0.376706       -10.2507 
  86   2.0000      -0.370302       -10.0764 
  87   2.0000      -0.359686        -9.7876 
  88   2.0000      -0.344289        -9.3686 
  89   2.0000      -0.341862        -9.3025 
  90   2.0000      -0.336940        -9.1686 
  91   2.0000      -0.331209        -9.0127 
  92   2.0000      -0.325710        -8.8630 
  93   2.0000      -0.323855        -8.8126 
  94   2.0000      -0.319505        -8.6942 
  95   2.0000      -0.311440        -8.4747 
  96   2.0000      -0.299110        -8.1392 
  97   2.0000      -0.298365        -8.1189 
  98   2.0000      -0.282429        -7.6853 
  99   2.0000      -0.272173        -7.4062 
 100   2.0000      -0.242905        -6.6098 
 101   2.0000      -0.236955        -6.4479 
 102   0.0000      -0.056839        -1.5467 
 103   0.0000      -0.054935        -1.4948 
 104   0.0000      -0.038311        -1.0425 
 105   0.0000      -0.032651        -0.8885 
 106   0.0000      -0.015544        -0.4230 
 107   0.0000       0.002188         0.0595 
 108   0.0000       0.043726         1.1898 
 109   0.0000       0.049378         1.3436 
 110   0.0000       0.061094         1.6625 
 111   0.0000       0.063101         1.7171 
 112   0.0000       0.069631         1.8947 
 113   0.0000       0.070340         1.9140 
 114   0.0000       0.075446         2.0530 
 115   0.0000       0.082290         2.2392 
 116   0.0000       0.087720         2.3870 
 117   0.0000       0.090009         2.4493 
 118   0.0000       0.095850         2.6082 
 119   0.0000       0.098470         2.6795 
 120   0.0000       0.102042         2.7767 
 121   0.0000       0.111352         3.0300 
[...]
 42:    504.39   0.000482    2.44  0.000298  ( 0.004920 -0.004484  0.015938)
 43:    557.04   0.002606   13.17  0.001460  ( 0.002294  0.036898 -0.009653)
 44:    583.15   0.002642   13.35  0.001414  (-0.015244  0.020609  0.027505)
 45:    612.97   0.004311   21.79  0.002195  (-0.039551 -0.021355  0.013214)
 46:    629.03   0.010615   53.64  0.005266  ( 0.004819  0.070195 -0.017761)
 47:    636.52   0.002004   10.13  0.000983  ( 0.015966  0.026664 -0.004085)
 48:    660.15   0.000083    0.42  0.000039  (-0.004019 -0.004625  0.001257)
 49:    711.02   0.014068   71.09  0.006174  ( 0.064700 -0.041413  0.016526)
 50:    715.90   0.012613   63.74  0.005498  (-0.014151  0.067557 -0.027093)
 51:    734.27   0.004660   23.55  0.001980  ( 0.041720 -0.011105 -0.010789)
 52:    746.27   0.000217    1.10  0.000091  ( 0.000312 -0.001539  0.009393)
 53:    767.36   0.016676   84.27  0.006781  (-0.000218  0.070882 -0.041919)
 54:    773.14   0.005251   26.54  0.002120  (-0.038840  0.009698 -0.022739)
 55:    776.11   0.007273   36.76  0.002925  (-0.001830 -0.050430  0.019442)
 56:    778.32   0.003794   19.17  0.001521  ( 0.007387  0.032086 -0.020904)
 57:    782.95   0.006875   34.74  0.002740  ( 0.036748 -0.021752 -0.030274)
 58:    797.89   0.011133   56.26  0.004354  (-0.017523  0.052750  0.035563)
 59:    815.83   0.002368   11.97  0.000906  (-0.001447 -0.021942  0.020547)
 60:    847.59   0.002259   11.41  0.000832  (-0.011984 -0.009290  0.024530)
 61:    872.81   0.002740   13.85  0.000980  ( 0.003914 -0.030294  0.006837)
 62:    890.03   0.005667   28.64  0.001987  ( 0.013654 -0.041364  0.009466)
 63:    894.35   0.000034    0.17  0.000012  (-0.001161  0.002549 -0.001992)
 64:    961.97   0.000682    3.45  0.000221  (-0.003402 -0.008179  0.011946)
 65:    970.69   0.002077   10.50  0.000668  ( 0.014988 -0.018027 -0.010865)
 66:    979.51   0.000354    1.79  0.000113  ( 0.009056 -0.005521  0.000580)
 67:    991.38   0.035921  181.53  0.011307  ( 0.066153 -0.048632  0.067569)
 68:    993.07   0.000395    2.00  0.000124  ( 0.006058 -0.002189  0.009088)
 69:   1015.70   0.000004    0.02  0.000001  (-0.000636  0.000471  0.000744)
 70:   1031.23   0.008158   41.23  0.002469  ( 0.032234  0.018774 -0.032821)
 71:   1040.65   0.000029    0.14  0.000009  (-0.001144  0.002513  0.000968)
 72:   1044.61   0.009487   47.95  0.002834  (-0.003016 -0.051167 -0.014390)
 73:   1060.31   0.000197    0.99  0.000058  ( 0.002658  0.001180  0.007032)
 74:   1072.65   0.008227   41.58  0.002394  ( 0.048083  0.006620  0.006141)
 75:   1085.43   0.009551   48.27  0.002746  ( 0.023163  0.012727  0.045250)
 76:   1095.55   0.018703   94.52  0.005328  (-0.003411 -0.066844  0.029115)
 77:   1106.62   0.003415   17.26  0.000963  (-0.006513 -0.017553  0.024751)
 78:   1112.24   0.026478  133.81  0.007429  ( 0.041368 -0.034100  0.067490)
 79:   1119.70   0.123129  622.24  0.034316  ( 0.093281 -0.101175  0.124010)
 80:   1136.71   0.039552  199.88  0.010858  (-0.074293 -0.003590 -0.072979)
 81:   1169.44   0.000853    4.31  0.000228  (-0.004769  0.002429  0.014105)
 82:   1170.21   0.000194    0.98  0.000052  ( 0.001596  0.006176 -0.003340)
 83:   1171.20   0.000213    1.08  0.000057  ( 0.004788 -0.003261 -0.004814)
 84:   1171.48   0.000437    2.21  0.000116  ( 0.006374  0.008260  0.002756)
 85:   1175.18   0.002501   12.64  0.000664  (-0.022356 -0.002343 -0.012601)
 86:   1190.24   0.007081   35.78  0.001857  ( 0.041001 -0.012246  0.005047)
 87:   1195.09   0.001533    7.75  0.000400  (-0.001715  0.000711  0.019922)
 88:   1199.06   0.033199  167.78  0.008640  ( 0.063557 -0.055333  0.039232)
 89:   1214.46   0.000895    4.52  0.000230  ( 0.000795  0.011873 -0.009395)
 90:   1220.09   0.024614  124.39  0.006296  ( 0.068129 -0.025813  0.031428)
 91:   1231.24   0.012513   63.24  0.003171  (-0.025408 -0.031988 -0.038764)
 92:   1237.95   0.004573   23.11  0.001153  ( 0.014700  0.030523  0.002262)
 93:   1252.99   0.045119  228.01  0.011237  ( 0.067432 -0.061903  0.053459)
 94:   1285.96   0.036040  182.13  0.008746  (-0.047508 -0.070076 -0.039727)
 95:   1290.33   0.095372  481.97  0.023065  ( 0.101349 -0.083868  0.075895)
 96:   1303.09   0.080077  404.68  0.019177  (-0.061621 -0.048562 -0.114112)
 97:   1321.61   0.021958  110.97  0.005185  ( 0.017479  0.062606  0.030982)
 98:   1333.37   0.039316  198.69  0.009202  ( 0.068091  0.067183  0.007190)
 99:   1342.82   0.000862    4.36  0.000200  ( 0.006122 -0.007334 -0.010448)
100:   1379.83   0.017958   90.75  0.004061  (-0.057167 -0.015212 -0.023705)
101:   1386.67   0.002705   13.67  0.000609  ( 0.006227 -0.000052  0.023876)
102:   1417.40   0.014676   74.17  0.003231  ( 0.026345  0.034987 -0.036237)
103:   1428.91   0.036862  186.29  0.008050  ( 0.036890 -0.065997  0.048311)
104:   1464.21   0.003036   15.34  0.000647  (-0.017411  0.013642  0.012559)
105:   1465.54   0.003693   18.66  0.000786  ( 0.015180  0.022586  0.006762)
106:   1465.99   0.009679   48.91  0.002060  ( 0.006838  0.009768  0.043797)
107:   1467.28   0.029375  148.45  0.006247  (-0.045919  0.036311 -0.053107)
108:   1472.40   0.005925   29.94  0.001256  ( 0.020216 -0.020065  0.021084)
109:   1473.72   0.002972   15.02  0.000629  (-0.003405  0.022091 -0.011385)
110:   1478.17   0.004830   24.41  0.001020  (-0.009658 -0.027663  0.012697)
111:   1479.87   0.018747   94.74  0.003953  ( 0.055063 -0.030268 -0.002287)
112:   1483.02   0.004964   25.09  0.001045  ( 0.004192 -0.014966 -0.028337)
113:   1494.07   0.016790   84.85  0.003507  (-0.004019  0.000557  0.059080)
114:   1497.50   0.013056   65.98  0.002721  (-0.015940 -0.026555 -0.041969)
115:   1528.91   0.000517    2.61  0.000106  (-0.009205 -0.004530 -0.000596)
116:   1538.86   0.052657  266.11  0.010678  ( 0.034847  0.042692  0.087415)
117:   1553.76   0.143229  723.82  0.028767  (-0.141774  0.025327 -0.089583)
118:   1649.13   0.001614    8.16  0.000305  (-0.012514 -0.006264  0.010466)
119:   1649.35   0.004269   21.57  0.000808  ( 0.014292  0.015212  0.019289)
120:   1663.65   0.013056   65.98  0.002449  ( 0.000207 -0.028448 -0.040494)
121:   1666.29   0.011140   56.30  0.002086  (-0.029941 -0.034357 -0.003088)
122:   1758.34   0.152207  769.19  0.027013  ( 0.095609  0.130175 -0.030437)
123:   1785.22   0.092200  465.94  0.016117  ( 0.018805  0.033823 -0.120910)
124:   3036.05   0.012472   63.03  0.001282  (-0.029053 -0.012531 -0.016759)
125:   3065.64   0.008315   42.02  0.000846  ( 0.009560 -0.016374  0.022065)
126:   3072.93   0.005551   28.05  0.000564  ( 0.019368 -0.012856 -0.004830)
127:   3107.12   0.007965   40.25  0.000800  ( 0.004306 -0.023271  0.015488)
128:   3134.56   0.000861    4.35  0.000086  ( 0.007554 -0.004105  0.003434)
129:   3144.87   0.005000   25.27  0.000496  (-0.012420  0.011097  0.014792)
130:   3156.87   0.003680   18.60  0.000364  (-0.011600 -0.014401 -0.004676)
131:   3164.56   0.003787   19.14  0.000373  (-0.006348  0.009473  0.015603)
132:   3179.99   0.002973   15.03  0.000292  (-0.013757 -0.008680 -0.005211)
133:   3183.57   0.000527    2.66  0.000052  (-0.007027 -0.001267 -0.000805)
134:   3192.68   0.002027   10.25  0.000198  (-0.003784  0.006614 -0.011836)
135:   3195.03   0.001476    7.46  0.000144  ( 0.011628 -0.000673 -0.002916)
136:   3198.40   0.000584    2.95  0.000057  ( 0.004395  0.004011 -0.004644)
137:   3202.48   0.001067    5.39  0.000104  (-0.007490 -0.006876  0.000765)
138:   3212.65   0.000047    0.24  0.000005  (-0.000467 -0.001412 -0.001549)
139:   3213.61   0.002964   14.98  0.000288  (-0.003001  0.008555  0.014339)
140:   3230.21   0.000206    1.04  0.000020  (-0.000757  0.000492  0.004372)
141:   3230.96   0.000443    2.24  0.000043  ( 0.006074  0.001229  0.002086)
142:   3234.44   0.000342    1.73  0.000033  ( 0.003466  0.004577  0.000196)
143:   3275.65   0.000316    1.60  0.000030  (-0.002242 -0.003654 -0.003420)

* The epsilon (eps) is given for a Dirac delta lineshape.
** The dipole moment derivative (T) already includes vibrational overlap.

The first frequency considered to be a vibration is 7
The total number of vibrations considered is 137


--------------------------
THERMOCHEMISTRY AT 298.15K
--------------------------

Temperature         ... 298.15 K
Pressure            ... 1.00 atm
Total Mass          ... 388.38 AMU

Throughout the following assumptions are being made:
  (1) The electronic state is orbitally nondegenerate
  (2) There are no thermally accessible electronically excited states
  (3) Hindered rotations indicated by low frequency modes are not
      treated as such but are treated as vibrations and this may
      cause some error
  (4) All equations used are the standard statistical mechanics
      equations for an ideal gas
  (5) All vibrations are strictly harmonic

freq.      21.28  E(vib)   ...       0.56 
freq.      35.18  E(vib)   ...       0.54 
freq.      38.29  E(vib)   ...       0.54 
freq.      43.66  E(vib)   ...       0.53 
freq.      50.90  E(vib)   ...       0.52 
freq.      57.64  E(vib)   ...       0.51 
freq.      60.30  E(vib)   ...       0.51 
freq.      65.34  E(vib)   ...       0.50 
freq.      86.64  E(vib)   ...       0.48 
freq.      97.91  E(vib)   ...       0.46 
freq.     102.91  E(vib)   ...       0.46 
freq.     121.19  E(vib)   ...       0.44 
freq.     128.02  E(vib)   ...       0.43 
freq.     146.62  E(vib)   ...       0.41 
freq.     153.54  E(vib)   ...       0.40 
freq.     156.11  E(vib)   ...       0.40 
freq.     160.38  E(vib)   ...       0.39 
freq.     171.79  E(vib)   ...       0.38 
freq.     184.64  E(vib)   ...       0.37 
freq.     191.37  E(vib)   ...       0.36 
freq.     211.25  E(vib)   ...       0.34 
freq.     239.62  E(vib)   ...       0.31 
freq.     250.69  E(vib)   ...       0.30 
freq.     259.67  E(vib)   ...       0.30 
freq.     275.83  E(vib)   ...       0.28 
freq.     293.09  E(vib)   ...       0.27 
freq.     317.87  E(vib)   ...       0.25 
freq.     324.09  E(vib)   ...       0.25 
freq.     351.40  E(vib)   ...       0.23 
freq.     359.57  E(vib)   ...       0.22 
freq.     395.34  E(vib)   ...       0.20 
freq.     408.64  E(vib)   ...       0.19 
freq.     443.96  E(vib)   ...       0.17 
freq.     473.58  E(vib)   ...       0.15 
freq.     489.10  E(vib)   ...       0.15 
freq.     504.39  E(vib)   ...       0.14 
freq.     557.04  E(vib)   ...       0.12 
freq.     583.15  E(vib)   ...       0.11 
freq.     612.97  E(vib)   ...       0.10 
freq.     629.03  E(vib)   ...       0.09 
freq.     636.52  E(vib)   ...       0.09 
freq.     660.15  E(vib)   ...       0.08 
freq.     711.02  E(vib)   ...       0.07 
freq.     715.90  E(vib)   ...       0.07 
freq.     734.27  E(vib)   ...       0.06 
freq.     746.27  E(vib)   ...       0.06 
freq.     767.36  E(vib)   ...       0.06 
freq.     773.14  E(vib)   ...       0.05 
freq.     776.11  E(vib)   ...       0.05 
freq.     778.32  E(vib)   ...       0.05 
freq.     782.95  E(vib)   ...       0.05 
freq.     797.89  E(vib)   ...       0.05 
freq.     815.83  E(vib)   ...       0.05 
freq.     847.59  E(vib)   ...       0.04 
freq.     872.81  E(vib)   ...       0.04 
freq.     890.03  E(vib)   ...       0.04 
freq.     894.35  E(vib)   ...       0.03 
freq.     961.97  E(vib)   ...       0.03 
freq.     970.69  E(vib)   ...       0.03 
freq.     979.51  E(vib)   ...       0.03 
freq.     991.38  E(vib)   ...       0.02 
freq.     993.07  E(vib)   ...       0.02 
freq.    1015.70  E(vib)   ...       0.02 
freq.    1031.23  E(vib)   ...       0.02 
freq.    1040.65  E(vib)   ...       0.02 
freq.    1044.61  E(vib)   ...       0.02 
freq.    1060.31  E(vib)   ...       0.02 
freq.    1072.65  E(vib)   ...       0.02 
freq.    1085.43  E(vib)   ...       0.02 
freq.    1095.55  E(vib)   ...       0.02 
freq.    1106.62  E(vib)   ...       0.02 
freq.    1112.24  E(vib)   ...       0.01 
freq.    1119.70  E(vib)   ...       0.01 
freq.    1136.71  E(vib)   ...       0.01 
freq.    1169.44  E(vib)   ...       0.01 
freq.    1170.21  E(vib)   ...       0.01 
freq.    1171.20  E(vib)   ...       0.01 
freq.    1171.48  E(vib)   ...       0.01 
freq.    1175.18  E(vib)   ...       0.01 
freq.    1190.24  E(vib)   ...       0.01 
freq.    1195.09  E(vib)   ...       0.01 
freq.    1199.06  E(vib)   ...       0.01 
freq.    1214.46  E(vib)   ...       0.01 
freq.    1220.09  E(vib)   ...       0.01 
freq.    1231.24  E(vib)   ...       0.01 
freq.    1237.95  E(vib)   ...       0.01 
freq.    1252.99  E(vib)   ...       0.01 
freq.    1285.96  E(vib)   ...       0.01 
freq.    1290.33  E(vib)   ...       0.01 
freq.    1303.09  E(vib)   ...       0.01 
freq.    1321.61  E(vib)   ...       0.01 
freq.    1333.37  E(vib)   ...       0.01 
freq.    1342.82  E(vib)   ...       0.01 
freq.    1379.83  E(vib)   ...       0.01 
freq.    1386.67  E(vib)   ...       0.00 
freq.    1417.40  E(vib)   ...       0.00 
freq.    1428.91  E(vib)   ...       0.00 
freq.    1464.21  E(vib)   ...       0.00 
freq.    1465.54  E(vib)   ...       0.00 
freq.    1465.99  E(vib)   ...       0.00 
freq.    1467.28  E(vib)   ...       0.00 
freq.    1472.40  E(vib)   ...       0.00 
freq.    1473.72  E(vib)   ...       0.00 
freq.    1478.17  E(vib)   ...       0.00 
freq.    1479.87  E(vib)   ...       0.00 
freq.    1483.02  E(vib)   ...       0.00 
freq.    1494.07  E(vib)   ...       0.00 
freq.    1497.50  E(vib)   ...       0.00 
freq.    1528.91  E(vib)   ...       0.00 
freq.    1538.86  E(vib)   ...       0.00 
freq.    1553.76  E(vib)   ...       0.00 
freq.    1649.13  E(vib)   ...       0.00 
freq.    1649.35  E(vib)   ...       0.00 
freq.    1663.65  E(vib)   ...       0.00 
freq.    1666.29  E(vib)   ...       0.00 
freq.    1758.34  E(vib)   ...       0.00 
freq.    1785.22  E(vib)   ...       0.00 
freq.    3036.05  E(vib)   ...       0.00 
freq.    3065.64  E(vib)   ...       0.00 
freq.    3072.93  E(vib)   ...       0.00 
freq.    3107.12  E(vib)   ...       0.00 
freq.    3134.56  E(vib)   ...       0.00 
freq.    3144.87  E(vib)   ...       0.00 
freq.    3156.87  E(vib)   ...       0.00 
freq.    3164.56  E(vib)   ...       0.00 
freq.    3179.99  E(vib)   ...       0.00 
freq.    3183.57  E(vib)   ...       0.00 
freq.    3192.68  E(vib)   ...       0.00 
freq.    3195.03  E(vib)   ...       0.00 
freq.    3198.40  E(vib)   ...       0.00 
freq.    3202.48  E(vib)   ...       0.00 
freq.    3212.65  E(vib)   ...       0.00 
freq.    3213.61  E(vib)   ...       0.00 
freq.    3230.21  E(vib)   ...       0.00 
freq.    3230.96  E(vib)   ...       0.00 
freq.    3234.44  E(vib)   ...       0.00 
freq.    3275.65  E(vib)   ...       0.00 

------------
INNER ENERGY
------------

The inner energy is: U= E(el) + E(ZPE) + E(vib) + E(rot) + E(trans)
    E(el)   - is the total energy from the electronic structure calculation
              = E(kin-el) + E(nuc-el) + E(el-el) + E(nuc-nuc)
    E(ZPE)  - the the zero temperature vibrational energy from the frequency calculation
    E(vib)  - the the finite temperature correction to E(ZPE) due to population
              of excited vibrational states
    E(rot)  - is the rotational thermal energy
    E(trans)- is the translational thermal energy

Summary of contributions to the inner energy U:
Electronic energy                ...  -1371.04716532 Eh
Zero point energy                ...      0.37505180 Eh     235.35 kcal/mol
Thermal vibrational correction   ...      0.02370100 Eh      14.87 kcal/mol
Thermal rotational correction    ...      0.00141627 Eh       0.89 kcal/mol
Thermal translational correction ...      0.00141627 Eh       0.89 kcal/mol
-----------------------------------------------------------------------
Total thermal energy                  -1370.64557997 Eh


Summary of corrections to the electronic energy:
(perhaps to be used in another calculation)
Total thermal correction                  0.02653355 Eh      16.65 kcal/mol
Non-thermal (ZPE) correction              0.37505180 Eh     235.35 kcal/mol
-----------------------------------------------------------------------
Total correction                          0.40158535 Eh     252.00 kcal/mol


--------
ENTHALPY
--------

The enthalpy is H = U + kB*T
                kB is Boltzmann's constant
Total free energy                 ...  -1370.64557997 Eh 
Thermal Enthalpy correction       ...      0.00094421 Eh       0.59 kcal/mol
-----------------------------------------------------------------------
Total Enthalpy                    ...  -1370.64463576 Eh


Note: Only C1 symmetry has been detected, increase convergence thresholds 
      if your molecule has a higher symmetry. Symmetry factor of 1.0 is   
      used for the rotational entropy correction. 
 

Note: Rotational entropy computed according to Herzberg 
Infrared and Raman Spectra, Chapter V,1, Van Nostrand Reinhold, 1945 
Point Group:  C1, Symmetry Number:   1  
Rotational constants in cm-1:     0.007123     0.006299     0.004511 

Vibrational entropy computed according to the QRRHO of S. Grimme
Chem.Eur.J. 2012 18 9955


-------
ENTROPY
-------

The entropy contributions are T*S = T*(S(el)+S(vib)+S(rot)+S(trans))
     S(el)   - electronic entropy
     S(vib)  - vibrational entropy
     S(rot)  - rotational entropy
     S(trans)- translational entropy
The entropies will be listed as multiplied by the temperature to get
units of energy

Electronic entropy                ...      0.00000000 Eh      0.00 kcal/mol
Vibrational entropy               ...      0.04310633 Eh     27.05 kcal/mol
Rotational entropy                ...      0.01678713 Eh     10.53 kcal/mol
Translational entropy             ...      0.02079284 Eh     13.05 kcal/mol
-----------------------------------------------------------------------
Final entropy term                ...      0.08068631 Eh     50.63 kcal/mol

In case the symmetry of your molecule has not been determined correctly
or in case you have a reason to use a different symmetry number we print 
out the resulting rotational entropy values for sn=1,12 :
 --------------------------------------------------------
|  sn= 1 | S(rot)=       0.01678713 Eh     10.53 kcal/mol|
|  sn= 2 | S(rot)=       0.01613267 Eh     10.12 kcal/mol|
|  sn= 3 | S(rot)=       0.01574984 Eh      9.88 kcal/mol|
|  sn= 4 | S(rot)=       0.01547822 Eh      9.71 kcal/mol|
|  sn= 5 | S(rot)=       0.01526753 Eh      9.58 kcal/mol|
|  sn= 6 | S(rot)=       0.01509538 Eh      9.47 kcal/mol|
|  sn= 7 | S(rot)=       0.01494984 Eh      9.38 kcal/mol|
|  sn= 8 | S(rot)=       0.01482376 Eh      9.30 kcal/mol|
|  sn= 9 | S(rot)=       0.01471255 Eh      9.23 kcal/mol|
|  sn=10 | S(rot)=       0.01461307 Eh      9.17 kcal/mol|
|  sn=11 | S(rot)=       0.01452308 Eh      9.11 kcal/mol|
|  sn=12 | S(rot)=       0.01444093 Eh      9.06 kcal/mol|
 --------------------------------------------------------


-------------------
GIBBS FREE ENERGY
-------------------

The Gibbs free energy is G = H - T*S

Total enthalpy                    ...  -1370.64463576 Eh 
Total entropy correction          ...     -0.08068631 Eh    -50.63 kcal/mol
-----------------------------------------------------------------------
Final Gibbs free energy         ...  -1370.72532207 Eh

For completeness - the Gibbs free energy minus the electronic energy
G-E(el)                           ...      0.32184325 Eh    201.96 kcal/mol


Timings for individual modules:

Sum of individual times         ...     9701.369 sec (= 161.689 min)
GTO integral calculation        ...       81.094 sec (=   1.352 min)   0.8 %
SCF iterations                  ...     4078.753 sec (=  67.979 min)  42.0 %
SCF Gradient evaluation         ...     1143.666 sec (=  19.061 min)  11.8 %
Geometry relaxation             ...        6.866 sec (=   0.114 min)   0.1 %
Analytical frequency calculation...     4390.990 sec (=  73.183 min)  45.3 %
                             ****ORCA TERMINATED NORMALLY****
TOTAL RUN TIME: 0 days 2 hours 43 minutes 0 seconds 732 msec
