
                                 *****************
                                 * O   R   C   A *
                                 *****************

                                            #,                                       
                                            ###                                      
                                            ####                                     
                                            #####                                    
                                            ######                                   
                                           ########,                                 
                                     ,,################,,,,,                         
                               ,,#################################,,                 
                          ,,##########################################,,             
                       ,#########################################, ''#####,          
                    ,#############################################,,   '####,        
                  ,##################################################,,,,####,       
                ,###########''''           ''''###############################       
              ,#####''   ,,,,##########,,,,          '''####'''          '####       
            ,##' ,,,,###########################,,,                        '##       
           ' ,,###''''                  '''############,,,                           
         ,,##''                                '''############,,,,        ,,,,,,###''
      ,#''                                            '''#######################'''  
     '                                                          ''''####''''         
             ,#######,   #######,   ,#######,      ##                                
            ,#'     '#,  ##    ##  ,#'     '#,    #''#        ######   ,####,        
            ##       ##  ##   ,#'  ##            #'  '#       #        #'  '#        
            ##       ##  #######   ##           ,######,      #####,   #    #        
            '#,     ,#'  ##    ##  '#,     ,#' ,#      #,         ##   #,  ,#        
             '#######'   ##     ##  '#######'  #'      '#     #####' # '####'        



                  #######################################################
                  #                        -***-                        #
                  #          Department of theory and spectroscopy      #
                  #    Directorship and core code : Frank Neese         #
                  #        Max Planck Institute fuer Kohlenforschung    #
                  #                Kaiser Wilhelm Platz 1               #
                  #                 D-45470 Muelheim/Ruhr               #
                  #                      Germany                        #
                  #                                                     #
                  #                  All rights reserved                #
                  #                        -***-                        #
                  #######################################################


                         Program Version 5.0.4 -  RELEASE  -


 With contributions from (in alphabetic order):
   Daniel Aravena         : Magnetic Suceptibility
   Michael Atanasov       : Ab Initio Ligand Field Theory (pilot matlab implementation)
   Alexander A. Auer      : GIAO ZORA, VPT2 properties, NMR spectrum
   Ute Becker             : Parallelization
   Giovanni Bistoni       : ED, misc. LED, open-shell LED, HFLD
   Martin Brehm           : Molecular dynamics
   Dmytro Bykov           : SCF Hessian
   Vijay G. Chilkuri      : MRCI spin determinant printing, contributions to CSF-ICE
   Dipayan Datta          : RHF DLPNO-CCSD density
   Achintya Kumar Dutta   : EOM-CC, STEOM-CC
   Dmitry Ganyushin       : Spin-Orbit,Spin-Spin,Magnetic field MRCI
   Miquel Garcia          : C-PCM and meta-GGA Hessian, CC/C-PCM, Gaussian charge scheme
   Yang Guo               : DLPNO-NEVPT2, F12-NEVPT2, CIM, IAO-localization
   Andreas Hansen         : Spin unrestricted coupled pair/coupled cluster methods
   Benjamin Helmich-Paris : MC-RPA, TRAH-SCF, COSX integrals
   Lee Huntington         : MR-EOM, pCC
   Robert Izsak           : Overlap fitted RIJCOSX, COSX-SCS-MP3, EOM
   Marcus Kettner         : VPT2
   Christian Kollmar      : KDIIS, OOCD, Brueckner-CCSD(T), CCSD density, CASPT2, CASPT2-K
   Simone Kossmann        : Meta GGA functionals, TD-DFT gradient, OOMP2, MP2 Hessian
   Martin Krupicka        : Initial AUTO-CI
   Lucas Lang             : DCDCAS
   Marvin Lechner         : AUTO-CI (C++ implementation), FIC-MRCC
   Dagmar Lenk            : GEPOL surface, SMD
   Dimitrios Liakos       : Extrapolation schemes; Compound Job, initial MDCI parallelization
   Dimitrios Manganas     : Further ROCIS development; embedding schemes
   Dimitrios Pantazis     : SARC Basis sets
   Anastasios Papadopoulos: AUTO-CI, single reference methods and gradients
   Taras Petrenko         : DFT Hessian,TD-DFT gradient, ASA, ECA, R-Raman, ABS, FL, XAS/XES, NRVS
   Peter Pinski           : DLPNO-MP2, DLPNO-MP2 Gradient
   Christoph Reimann      : Effective Core Potentials
   Marius Retegan         : Local ZFS, SOC
   Christoph Riplinger    : Optimizer, TS searches, QM/MM, DLPNO-CCSD(T), (RO)-DLPNO pert. Triples
   Tobias Risthaus        : Range-separated hybrids, TD-DFT gradient, RPA, STAB
   Michael Roemelt        : Original ROCIS implementation
   Masaaki Saitow         : Open-shell DLPNO-CCSD energy and density
   Barbara Sandhoefer     : DKH picture change effects
   Avijit Sen             : IP-ROCIS
   Kantharuban Sivalingam : CASSCF convergence, NEVPT2, FIC-MRCI
   Bernardo de Souza      : ESD, SOC TD-DFT
   Georgi Stoychev        : AutoAux, RI-MP2 NMR, DLPNO-MP2 response
   Willem Van den Heuvel  : Paramagnetic NMR
   Boris Wezisla          : Elementary symmetry handling
   Frank Wennmohs         : Technical directorship


 We gratefully acknowledge several colleagues who have allowed us to
 interface, adapt or use parts of their codes:
   Stefan Grimme, W. Hujo, H. Kruse, P. Pracht,  : VdW corrections, initial TS optimization,
                  C. Bannwarth, S. Ehlert          DFT functionals, gCP, sTDA/sTD-DF
   Ed Valeev, F. Pavosevic, A. Kumar             : LibInt (2-el integral package), F12 methods
   Garnet Chan, S. Sharma, J. Yang, R. Olivares  : DMRG
   Ulf Ekstrom                                   : XCFun DFT Library
   Mihaly Kallay                                 : mrcc  (arbitrary order and MRCC methods)
   Jiri Pittner, Ondrej Demel                    : Mk-CCSD
   Frank Weinhold                                : gennbo (NPA and NBO analysis)
   Christopher J. Cramer and Donald G. Truhlar   : smd solvation model
   Lars Goerigk                                  : TD-DFT with DH, B97 family of functionals
   V. Asgeirsson, H. Jonsson                     : NEB implementation
   FAccTs GmbH                                   : IRC, NEB, NEB-TS, DLPNO-Multilevel, CI-OPT
                                                   MM, QMMM, 2- and 3-layer-ONIOM, Crystal-QMMM,
                                                   LR-CPCM, SF, NACMEs, symmetry and pop. for TD-DFT,
                                                   nearIR, NL-DFT gradient (VV10), updates on ESD,
                                                   ML-optimized integration grids
   S Lehtola, MJT Oliveira, MAL Marques          : LibXC Library
   Liviu Ungur et al                             : ANISO software


 Your calculation uses the libint2 library for the computation of 2-el integrals
 For citations please refer to: http://libint.valeyev.net

 Your ORCA version has been built with support for libXC version: 5.1.0
 For citations please refer to: https://tddft.org/programs/libxc/

 This ORCA versions uses:
   CBLAS   interface :  Fast vector & matrix operations
   LAPACKE interface :  Fast linear algebra routines
   SCALAPACK package :  Parallel linear algebra routines
   Shared memory     :  Shared parallel matrices
   BLAS/LAPACK       :  OpenBLAS 0.3.15  USE64BITINT DYNAMIC_ARCH NO_AFFINITY Haswell SINGLE_THREADED
        Core in use  :  Haswell
   Copyright (c) 2011-2014, The OpenBLAS Project


Your calculation utilizes the atom-pairwise dispersion correction
with the Becke-Johnson damping scheme (D3BJ)
Cite in your paper:
S.Grimme, S.Ehrlich, L.Goerigk, J Comput Chem, (2011), 32, 1456–1465 
S.Grimme, J.Antony, S.Ehrlich and H.Krieg, J.Chem.Phys., 132, (2010), 154104 
   

================================================================================

----- Orbital basis set information -----
Your calculation utilizes the basis: def2-TZVP
   F. Weigend and R. Ahlrichs, Phys. Chem. Chem. Phys. 7, 3297 (2005).

----- AuxJ basis set information -----
Your calculation utilizes the auxiliary basis: def2/J
   F. Weigend, Phys. Chem. Chem. Phys. 8, 1057 (2006).

================================================================================
                                        WARNINGS
                       Please study these warnings very carefully!
================================================================================


WARNING: Geometry Optimization
  ===> : Switching off AutoStart
         For restart on a previous wavefunction, please use MOREAD

INFO   : the flag for use of the SHARK integral package has been found!

================================================================================
                                       INPUT FILE
================================================================================
NAME = TS2_CN/TS2_CN.inp
|  1> %pal nprocs 24 end
|  2> ! PBE0 D3BJ def2-TZVP TightSCF OPTTS FREQ TightOpt
|  3> ! CPCM(dmso)
|  4> %scf
|  5> MaxIter 800
|  6> end
|  7> 
|  8> %geom
|  9> MaxIter 800
| 10> MaxStep 0.15
| 11> end
| 12> 
| 13> *xyz 0 1
| 14> C      -2.99000000      3.00241700      0.14864500
| 15> C      -2.67728500      2.42930900     -1.08307200
| 16> C      -1.46299700      1.76633600     -1.21840600
| 17> N      -0.60583700      1.66797800     -0.20347800
| 18> C      -0.89156800      2.20761700      0.98062800
| 19> C      -2.08008200      2.89509800      1.19823000
| 20> C       1.04481300      0.49102100     -0.56367100
| 21> C       1.92205600      1.52988300      0.06163600
| 22> O       2.21518500      1.53081700      1.23374700
| 23> O       2.31203400      2.42976600     -0.82087900
| 24> C       3.16020300      3.46791500     -0.33708600
| 25> H      -3.93712100      3.52868200      0.28915500
| 26> H      -1.17319800      1.29161500     -2.16096500
| 27> H      -0.14606000      2.08510700      1.77232000
| 28> H      -2.28496000      3.32892500      2.17835200
| 29> H       0.78156100      0.59204800     -1.61326800
| 30> H       4.09472700      3.04561300      0.05847000
| 31> H       2.65471100      4.03693300      0.45591100
| 32> C       1.67494500     -1.60598300      0.49116600
| 33> C       0.52575100     -0.66408500      0.28011300
| 34> C      -0.67808900     -1.32445400     -0.36008400
| 35> C      -0.55877200     -1.97669800     -1.58679500
| 36> C      -1.66403200     -2.55275800     -2.21139500
| 37> C      -2.90916400     -2.47560000     -1.59063200
| 38> C      -3.05351600     -1.83494900     -0.36034700
| 39> C      -1.93952900     -1.25869000      0.26309200
| 40> O      -1.99257800     -0.62009600      1.44797100
| 41> C      -3.23717700     -0.44081900      2.08232200
| 42> N       2.72631300     -1.43339600     -0.31672700
| 43> O       3.73920800     -2.12142200     -0.33907400
| 44> H       0.22964400     -0.25939700      1.25687700
| 45> H       0.42427200     -2.02473400     -2.06456500
| 46> H      -1.55261400     -3.05547100     -3.17434700
| 47> H      -3.78822000     -2.91960800     -2.06476000
| 48> H      -4.03607200     -1.78635300      0.10970900
| 49> H      -3.69449800     -1.40637600      2.35423000
| 50> H      -3.93498800      0.12470000      1.44311000
| 51> H      -3.03933300      0.13516400      2.99442600
| 52> O       2.62272400     -0.42581900     -1.13464500
| 53> H       3.36852300      4.11484100     -1.19566000
| 54> H      -3.36218900      2.48824800     -1.93057500
| 55> C       1.68674800     -2.66174100      1.41410300
| 56> N       1.65887600     -3.52429300      2.19625800
| 57> *
| 58> 
| 59>                          ****END OF INPUT****
================================================================================

                       *****************************
                       * Geometry Optimization Run *
                       *****************************

Geometry optimization settings:
Update method            Update   .... Bofill
Choice of coordinates    CoordSys .... Z-matrix Internals
Initial Hessian          InHess   .... Almoef's Model

Convergence Tolerances:
Energy Change            TolE     ....  1.0000e-06 Eh
Max. Gradient            TolMAXG  ....  1.0000e-04 Eh/bohr
RMS Gradient             TolRMSG  ....  3.0000e-05 Eh/bohr
Max. Displacement        TolMAXD  ....  1.0000e-03 bohr
RMS Displacement         TolRMSD  ....  6.0000e-04 bohr
Strict Convergence                ....  False
------------------------------------------------------------------------------
                        ORCA OPTIMIZATION COORDINATE SETUP
------------------------------------------------------------------------------

The optimization will be done in new redundant internal coordinates
Making redundant internal coordinates   ...  (new redundants) done
Following TS mode number                ...     0
Evaluating the initial hessian          ...  (Almloef) done
Evaluating the coordinates              ...  done
Calculating the B-matrix                .... done
Calculating the G-matrix                .... done
Diagonalizing the G-matrix              .... done
Small eigenvalue found = 4.939e-03
Small eigenvalue found = 1.201e-02
Small eigenvalue found = 1.838e-02
Small eigenvalue found = 2.059e-02
Small eigenvalue found = 2.863e-02
The first mode is                       ....  181
The number of degrees of freedom        ....  123

    -----------------------------------------------------------------
                    Redundant Internal Coordinates


    -----------------------------------------------------------------
         Definition                    Initial Value    Approx d2E/dq
    -----------------------------------------------------------------
      1. B(C   1,C   0)                  1.3940         0.615574   
      2. B(C   2,C   1)                  1.3901         0.624595   
      3. B(N   3,C   2)                  1.3321         0.692245   
      4. B(C   4,N   3)                  1.3323         0.691784   
      5. B(C   5,C   0)                  1.3932         0.617421   
      6. B(C   5,C   4)                  1.3902         0.624428   
      7. B(C   6,N   3)                  2.0590         0.047916   
      8. B(C   7,C   6)                  1.4966         0.422350   
      9. B(C   7,N   3)                  2.5455         0.008023   
     10. B(O   8,C   7)                  1.2082         1.091217   
     11. B(O   9,C   7)                  1.3194         0.725405   
     12. B(C  10,O   9)                  1.4252         0.491715   
     13. B(H  11,C   0)                  1.0926         0.356700   
     14. B(H  12,C   2)                  1.0944         0.354297   
     15. B(H  13,C   4)                  1.0943         0.354412   
     16. B(H  13,O   8)                  2.4845         0.001922   
     17. B(H  14,C   5)                  1.0912         0.358454   
     18. B(H  15,C   6)                  1.0868         0.364341   
     19. B(H  15,H  12)                  2.1472         0.001418   
     20. B(H  15,C   2)                  2.5638         0.001604   
     21. B(H  15,N   3)                  2.2517         0.004521   
     22. B(H  16,C  10)                  1.0992         0.348192   
     23. B(H  17,C  10)                  1.0992         0.348187   
     24. B(C  19,C  18)                  1.5008         0.415896   
     25. B(C  19,C   6)                  1.5217         0.385096   
     26. B(C  19,N   3)                  2.6368         0.005736   
     27. B(C  20,C  19)                  1.5150         0.394764   
     28. B(C  21,C  20)                  1.3944         0.614675   
     29. B(C  22,C  21)                  1.3941         0.615412   
     30. B(C  23,C  22)                  1.3934         0.616968   
     31. B(C  24,C  23)                  1.3946         0.614357   
     32. B(C  25,C  24)                  1.4006         0.600905   
     33. B(C  25,C  20)                  1.4085         0.583720   
     34. B(O  26,C  25)                  1.3471         0.655229   
     35. B(C  27,O  26)                  1.4084         0.523037   
     36. B(N  28,C  18)                  1.3371         0.679618   
     37. B(O  29,N  28)                  1.2247         0.919970   
     38. B(H  30,C  19)                  1.0980         0.349720   
     39. B(H  30,H  13)                  2.4297         0.000502   
     40. B(H  30,N   3)                  2.5584         0.001465   
     41. B(H  31,C  21)                  1.0941         0.354781   
     42. B(H  32,C  22)                  1.0920         0.357496   
     43. B(H  33,C  23)                  1.0930         0.356135   
     44. B(H  34,C  24)                  1.0903         0.359718   
     45. B(H  35,C  27)                  1.1024         0.344012   
     46. B(H  36,C  27)                  1.1024         0.344031   
     47. B(H  37,C  27)                  1.0967         0.351297   
     48. B(O  38,N  28)                  1.3019         0.692751   
     49. B(O  38,C   6)                  1.9122         0.082183   
     50. B(H  39,C  10)                  1.0950         0.353525   
     51. B(H  40,C   1)                  1.0913         0.358449   
     52. B(C  41,C  18)                  1.4023         0.597090   
     53. B(N  42,C  41)                  1.1647         1.280319   
     54. A(C   1,C   0,H  11)          120.4047         0.351916   
     55. A(C   5,C   0,H  11)          120.4222         0.352095   
     56. A(C   1,C   0,C   5)          119.1731         0.433182   
     57. A(C   2,C   1,H  40)          119.8946         0.353076   
     58. A(C   0,C   1,H  40)          121.5473         0.352207   
     59. A(C   0,C   1,C   2)          118.5576         0.434083   
     60. A(N   3,C   2,H  12)          116.9855         0.356364   
     61. A(C   1,C   2,N   3)          121.5424         0.440458   
     62. A(C   1,C   2,H  12)          121.4685         0.352380   
     63. A(C   4,N   3,C   6)          123.9824         0.283907   
     64. A(C   2,N   3,C  19)          118.7623         0.209572   
     65. A(C   2,N   3,C   4)          120.6143         0.445721   
     66. A(C   2,N   3,C   7)          136.2508         0.219084   
     67. A(C   6,N   3,C  19)           35.1658         0.154878   
     68. A(C   7,N   3,C  19)           60.4450         0.132962   
     69. A(C   2,N   3,C   6)          115.1360         0.283936   
     70. A(C   4,N   3,C   7)           98.1863         0.219064   
     71. A(C   6,N   3,C   7)           36.0107         0.160076   
     72. A(C   4,N   3,C  19)          106.6946         0.209553   
     73. A(N   3,C   4,H  13)          116.8424         0.356343   
     74. A(N   3,C   4,C   5)          121.5197         0.440384   
     75. A(C   5,C   4,H  13)          121.6379         0.352384   
     76. A(C   0,C   5,C   4)          118.5899         0.434296   
     77. A(C   0,C   5,H  14)          121.5599         0.352387   
     78. A(C   4,C   5,H  14)          119.8484         0.353060   
     79. A(H  15,C   6,O  38)           87.4826         0.255104   
     80. A(C   7,C   6,O  38)           88.5041         0.287583   
     81. A(H  15,C   6,C  19)          121.5633         0.326571   
     82. A(C   7,C   6,C  19)          119.6812         0.373024   
     83. A(C  19,C   6,O  38)           94.7660         0.283476   
     84. A(N   3,C   6,C  19)           93.6376         0.261121   
     85. A(N   3,C   6,O  38)          171.0529         0.209343   
     86. A(N   3,C   6,H  15)           85.5049         0.236011   
     87. A(C   7,C   6,H  15)          118.7486         0.331588   
     88. A(N   3,C   6,C   7)           90.0017         0.264756   
     89. A(C   6,C   7,O   8)          123.2356         0.445574   
     90. A(N   3,C   7,O   9)          100.7701         0.220469   
     91. A(N   3,C   7,O   8)          109.9946         0.233198   
     92. A(C   6,C   7,O   9)          111.5450         0.414097   
     93. A(N   3,C   7,C   6)           53.9875         0.206285   
     94. A(O   8,C   7,O   9)          125.2169         0.488696   
     95. A(C   7,O   9,C  10)          116.4665         0.422712   
     96. A(H  16,C  10,H  17)          109.2853         0.287790   
     97. A(O   9,C  10,H  17)          110.3838         0.335474   
     98. A(O   9,C  10,H  16)          110.3823         0.335475   
     99. A(H  17,C  10,H  39)          110.3238         0.288475   
    100. A(H  16,C  10,H  39)          110.3286         0.288475   
    101. A(O   9,C  10,H  39)          106.1054         0.336325   
    102. A(C  19,C  18,N  28)          115.8563         0.408220   
    103. A(N  28,C  18,C  41)          119.2230         0.435448   
    104. A(C  19,C  18,C  41)          124.8541         0.401574   
    105. A(N   3,C  19,C  20)           88.1090         0.196059   
    106. A(C  18,C  19,C  20)          113.2238         0.373629   
    107. A(N   3,C  19,C   6)           51.1966         0.195460   
    108. A(C   6,C  19,C  20)          111.5680         0.368715   
    109. A(C   6,C  19,C  18)          107.0487         0.372036   
    110. A(N   3,C  19,C  18)          155.4315         0.197331   
    111. A(C  20,C  19,H  30)          108.8016         0.325704   
    112. A(C  18,C  19,H  30)          108.2235         0.328514   
    113. A(C   6,C  19,H  30)          107.7878         0.324379   
    114. A(N   3,C  19,H  30)           73.8256         0.179090   
    115. A(C  19,C  20,C  21)          120.5068         0.399942   
    116. A(C  21,C  20,C  25)          119.1887         0.428725   
    117. A(C  19,C  20,C  25)          120.2873         0.396327   
    118. A(C  20,C  21,C  22)          121.3035         0.432815   
    119. A(C  22,C  21,H  31)          119.9052         0.351580   
    120. A(C  20,C  21,H  31)          118.7893         0.351509   
    121. A(C  21,C  22,C  23)          119.0749         0.433104   
    122. A(C  23,C  22,H  32)          120.6319         0.352184   
    123. A(C  21,C  22,H  32)          120.2931         0.352033   
    124. A(C  22,C  23,C  24)          120.7262         0.432971   
    125. A(C  24,C  23,H  33)          119.0807         0.351704   
    126. A(C  22,C  23,H  33)          120.1931         0.351956   
    127. A(C  25,C  24,H  34)          120.4326         0.350984   
    128. A(C  23,C  24,H  34)          119.6100         0.352300   
    129. A(C  23,C  24,C  25)          119.9575         0.430923   
    130. A(C  24,C  25,O  26)          123.7282         0.433089   
    131. A(C  20,C  25,O  26)          116.5241         0.430837   
    132. A(C  20,C  25,C  24)          119.7464         0.426987   
    133. A(C  25,O  26,C  27)          119.4280         0.419705   
    134. A(H  36,C  27,H  37)          109.0863         0.287649   
    135. A(H  35,C  27,H  37)          109.2495         0.287646   
    136. A(O  26,C  27,H  37)          106.3808         0.339447   
    137. A(H  35,C  27,H  36)          109.2516         0.286709   
    138. A(O  26,C  27,H  36)          111.3156         0.338265   
    139. A(O  26,C  27,H  35)          111.4805         0.338262   
    140. A(O  29,N  28,O  38)          119.2841         0.463198   
    141. A(C  18,N  28,O  38)          114.6407         0.441368   
    142. A(C  18,N  28,O  29)          126.0745         0.464734   
    143. A(C   6,O  38,N  28)          104.4269         0.307441   
    144. L(C  18,C  41,N  42,C  19, 2) 180.5328         0.488846   
    145. L(C  18,C  41,N  42,C  19, 1) 177.8902         0.488846   
    146. D(H  40,C   1,C   0,H  11)     -0.0979         0.026198   
    147. D(H  40,C   1,C   0,C   5)    179.8690         0.026198   
    148. D(C   2,C   1,C   0,H  11)   -179.8655         0.026198   
    149. D(C   2,C   1,C   0,C   5)      0.1014         0.026198   
    150. D(H  12,C   2,C   1,C   0)    179.4509         0.029363   
    151. D(H  12,C   2,C   1,H  40)     -0.3206         0.029363   
    152. D(N   3,C   2,C   1,C   0)      0.1591         0.029363   
    153. D(N   3,C   2,C   1,H  40)   -179.6123         0.029363   
    154. D(C  19,N   3,C   2,C   1)    134.8725         0.055278   
    155. D(C  19,N   3,C   2,H  12)    -44.4495         0.055278   
    156. D(C   7,N   3,C   2,H  12)     31.6460         0.055278   
    157. D(C   4,N   3,C   2,C   1)     -0.0039         0.055278   
    158. D(C   4,N   3,C   2,H  12)   -179.3260         0.055278   
    159. D(C   7,N   3,C   2,C   1)   -149.0319         0.055278   
    160. D(C   6,N   3,C   2,H  12)     -5.0327         0.055278   
    161. D(C   6,N   3,C   2,C   1)    174.2893         0.055278   
    162. D(C   5,C   4,N   3,C  19)   -139.9875         0.052357   
    163. D(H  13,C   4,N   3,C   2)    179.6663         0.052357   
    164. D(H  13,C   4,N   3,C   6)      5.8987         0.052357   
    165. D(C   5,C   4,N   3,C   7)    158.5101         0.052357   
    166. D(C   5,C   4,N   3,C   6)   -174.1865         0.052357   
    167. D(H  13,C   4,N   3,C  19)     40.0977         0.052357   
    168. D(H  13,C   4,N   3,C   7)    -21.4047         0.052357   
    169. D(C   5,C   4,N   3,C   2)     -0.4190         0.052357   
    170. D(H  14,C   5,C   0,H  11)     -0.0354         0.026365   
    171. D(C   4,C   5,C   0,H  11)    179.4701         0.026365   
    172. D(C   4,C   5,C   0,C   1)     -0.4968         0.026365   
    173. D(C   0,C   5,C   4,N   3)      0.6679         0.027004   
    174. D(C   0,C   5,C   4,H  13)   -179.4214         0.027004   
    175. D(H  14,C   5,C   0,C   1)    179.9977         0.026365   
    176. D(H  14,C   5,C   4,N   3)   -179.8179         0.027004   
    177. D(H  14,C   5,C   4,H  13)      0.0928         0.027004   
    178. D(O  38,C   6,N   3,C  19)    159.9047         0.001697   
    179. D(O  38,C   6,N   3,C   7)    -80.3481         0.001697   
    180. D(O  38,C   6,N   3,C   4)   -130.9036         0.001697   
    181. D(C  19,C   6,N   3,C   7)    119.7472         0.001697   
    182. D(C  19,C   6,N   3,C   4)     69.1917         0.001697   
    183. D(C  19,C   6,N   3,C   2)   -104.8846         0.001697   
    184. D(H  15,C   6,N   3,C  19)    121.4073         0.001697   
    185. D(H  15,C   6,N   3,C   7)   -118.8455         0.001697   
    186. D(H  15,C   6,N   3,C   4)   -169.4010         0.001697   
    187. D(O  38,C   6,N   3,C   2)     55.0201         0.001697   
    188. D(H  15,C   6,N   3,C   2)     16.5227         0.001697   
    189. D(C   7,C   6,N   3,C   4)    -50.5555         0.001697   
    190. D(C   7,C   6,N   3,C  19)   -119.7472         0.001697   
    191. D(C   7,C   6,N   3,C   2)    135.3682         0.001697   
    192. D(O   9,C   7,C   6,H  15)     -2.9149         0.014986   
    193. D(O   8,C   7,C   6,N   3)     91.6669         0.014986   
    194. D(O   8,C   7,C   6,O  38)    -97.1556         0.014986   
    195. D(O   8,C   7,C   6,H  15)    176.5391         0.014986   
    196. D(O   9,C   7,N   3,C  19)    143.9859         0.001506   
    197. D(O   9,C   7,N   3,C   6)    108.8972         0.001506   
    198. D(O   8,C   7,N   3,C   6)   -117.1649         0.001506   
    199. D(C   6,C   7,N   3,C  19)     35.0888         0.001506   
    200. D(C   6,C   7,N   3,C   4)    139.6887         0.001506   
    201. D(C   6,C   7,N   3,C   2)    -66.8913         0.001506   
    202. D(O   8,C   7,N   3,C   4)     22.5238         0.001506   
    203. D(O   8,C   7,C   6,C  19)     -2.5221         0.014986   
    204. D(O   9,C   7,N   3,C   2)     42.0058         0.001506   
    205. D(O   8,C   7,N   3,C  19)    -82.0761         0.001506   
    206. D(O   8,C   7,N   3,C   2)    175.9438         0.001506   
    207. D(O   9,C   7,C   6,C  19)    178.0239         0.014986   
    208. D(O   9,C   7,N   3,C   4)   -111.4142         0.001506   
    209. D(N   3,C   7,C   6,O  38)    171.1776         0.014986   
    210. D(N   3,C   7,C   6,C  19)    -94.1889         0.014986   
    211. D(N   3,C   7,C   6,H  15)     84.8723         0.014986   
    212. D(O   9,C   7,C   6,N   3)    -87.7872         0.014986   
    213. D(O   9,C   7,C   6,O  38)     83.3903         0.014986   
    214. D(C  10,O   9,C   7,N   3)    124.9317         0.043868   
    215. D(C  10,O   9,C   7,O   8)      0.8546         0.043868   
    216. D(C  10,O   9,C   7,C   6)   -179.7043         0.043868   
    217. D(H  39,C  10,O   9,C   7)   -179.4490         0.019096   
    218. D(H  17,C  10,O   9,C   7)    -59.9143         0.019096   
    219. D(H  16,C  10,O   9,C   7)     61.0113         0.019096   
    220. D(N   3,C  19,C  18,C  41)    142.4209         0.013692   
    221. D(H  30,C  19,C  18,C  41)     51.5721         0.013692   
    222. D(H  30,C  19,C  18,N  28)   -131.4315         0.013692   
    223. D(C  20,C  19,C  18,C  41)    -69.1253         0.013692   
    224. D(C   6,C  19,C  18,C  41)    167.5084         0.013692   
    225. D(C   6,C  19,C  18,N  28)    -15.4952         0.013692   
    226. D(N   3,C  19,C   6,O  38)   -176.9263         0.013201   
    227. D(N   3,C  19,C   6,C   7)     92.0785         0.013201   
    228. D(H  30,C  19,C   6,N   3)    -50.6999         0.013201   
    229. D(H  30,C  19,C   6,O  38)    132.3738         0.013201   
    230. D(H  30,C  19,C   6,H  15)   -137.6553         0.013201   
    231. D(H  30,C  19,C   6,C   7)     41.3787         0.013201   
    232. D(C  20,C  19,C   6,N   3)     68.6917         0.013201   
    233. D(C  20,C  19,C   6,O  38)   -108.2346         0.013201   
    234. D(C  20,C  19,C   6,C   7)    160.7703         0.013201   
    235. D(C  18,C  19,C   6,N   3)   -166.9255         0.013201   
    236. D(C  18,C  19,C   6,O  38)     16.1482         0.013201   
    237. D(C  18,C  19,C   6,H  15)    106.1190         0.013201   
    238. D(C  18,C  19,C   6,C   7)    -74.8469         0.013201   
    239. D(C  20,C  19,C   6,H  15)    -18.2638         0.013201   
    240. D(H  30,C  19,N   3,C   7)     93.9645         0.001503   
    241. D(H  30,C  19,N   3,C   6)    129.8958         0.001503   
    242. D(H  30,C  19,N   3,C   4)      3.9168         0.001503   
    243. D(H  30,C  19,N   3,C   2)   -136.5374         0.001503   
    244. D(C  20,C  19,N   3,C   7)   -155.8333         0.001503   
    245. D(C  20,C  19,N   3,C   6)   -119.9020         0.001503   
    246. D(C  20,C  19,N   3,C   4)    114.1190         0.001503   
    247. D(N   3,C  19,C   6,H  15)    -86.9555         0.013201   
    248. D(C  20,C  19,N   3,C   2)    -26.3352         0.001503   
    249. D(C  18,C  19,N   3,C   7)     -4.5876         0.001503   
    250. D(C  18,C  19,N   3,C   6)     31.3437         0.001503   
    251. D(C  20,C  19,C  18,N  28)    107.8712         0.013692   
    252. D(C  18,C  19,N   3,C   4)    -94.6353         0.001503   
    253. D(C  18,C  19,N   3,C   2)    124.9105         0.001503   
    254. D(C   6,C  19,N   3,C   7)    -35.9313         0.001503   
    255. D(N   3,C  19,C  18,N  28)    -40.5827         0.013692   
    256. D(C   6,C  19,N   3,C   4)   -125.9789         0.001503   
    257. D(C   6,C  19,N   3,C   2)     93.5669         0.001503   
    258. D(C  25,C  20,C  19,N   3)    -67.6740         0.012377   
    259. D(C  25,C  20,C  19,H  30)      4.5278         0.012377   
    260. D(C  25,C  20,C  19,C  18)    124.8970         0.012377   
    261. D(C  25,C  20,C  19,C   6)   -114.2613         0.012377   
    262. D(C  21,C  20,C  19,N   3)    110.8024         0.012377   
    263. D(C  21,C  20,C  19,H  30)   -176.9958         0.012377   
    264. D(C  21,C  20,C  19,C  18)    -56.6266         0.012377   
    265. D(C  21,C  20,C  19,C   6)     64.2151         0.012377   
    266. D(H  31,C  21,C  20,C  25)   -179.9414         0.026118   
    267. D(H  31,C  21,C  20,C  19)      1.5656         0.026118   
    268. D(C  22,C  21,C  20,C  25)      0.5752         0.026118   
    269. D(C  22,C  21,C  20,C  19)   -177.9178         0.026118   
    270. D(H  32,C  22,C  21,C  20)    179.7083         0.026184   
    271. D(C  23,C  22,C  21,H  31)   -179.6811         0.026184   
    272. D(C  23,C  22,C  21,C  20)     -0.2035         0.026184   
    273. D(H  32,C  22,C  21,H  31)      0.2306         0.026184   
    274. D(H  33,C  23,C  22,H  32)     -0.0025         0.026324   
    275. D(H  33,C  23,C  22,C  21)    179.9089         0.026324   
    276. D(C  24,C  23,C  22,H  32)    179.9504         0.026324   
    277. D(C  24,C  23,C  22,C  21)     -0.1382         0.026324   
    278. D(H  34,C  24,C  23,H  33)      0.0313         0.026089   
    279. D(H  34,C  24,C  23,C  22)   -179.9221         0.026089   
    280. D(C  25,C  24,C  23,H  33)   -179.9486         0.026089   
    281. D(C  25,C  24,C  23,C  22)      0.0980         0.026089   
    282. D(O  26,C  25,C  24,H  34)     -0.1283         0.024897   
    283. D(O  26,C  25,C  24,C  23)    179.8515         0.024897   
    284. D(C  20,C  25,C  24,H  34)   -179.7016         0.024897   
    285. D(C  20,C  25,C  24,C  23)      0.2782         0.024897   
    286. D(O  26,C  25,C  20,C  21)    179.7891         0.023423   
    287. D(O  26,C  25,C  20,C  19)     -1.7145         0.023423   
    288. D(C  24,C  25,C  20,C  21)     -0.6075         0.023423   
    289. D(C  24,C  25,C  20,C  19)    177.8888         0.023423   
    290. D(C  27,O  26,C  25,C  24)     -3.7595         0.031771   
    291. D(C  27,O  26,C  25,C  20)    175.8264         0.031771   
    292. D(H  37,C  27,O  26,C  25)   -177.5066         0.021700   
    293. D(H  36,C  27,O  26,C  25)    -58.7851         0.021700   
    294. D(H  35,C  27,O  26,C  25)     63.4839         0.021700   
    295. D(O  38,N  28,C  18,C  41)   -179.8253         0.038001   
    296. D(O  38,N  28,C  18,C  19)      2.9988         0.038001   
    297. D(O  29,N  28,C  18,C  41)     -0.1260         0.038001   
    298. D(O  29,N  28,C  18,C  19)   -177.3019         0.038001   
    299. D(C   6,O  38,N  28,O  29)   -171.5098         0.042293   
    300. D(C   6,O  38,N  28,C  18)      8.2116         0.042293   
    301. D(N  28,O  38,C   6,N   3)   -175.5132         0.001930   
    302. D(N  28,O  38,C   6,C  19)    -15.6389         0.001930   
    303. D(N  28,O  38,C   6,H  15)   -137.1120         0.001930   
    304. D(N  28,O  38,C   6,C   7)    104.0231         0.001930   
    -----------------------------------------------------------------

Number of atoms                         .... 43
Number of degrees of freedom            .... 304

         *************************************************************
         *                GEOMETRY OPTIMIZATION CYCLE   1            *
         *************************************************************
---------------------------------
CARTESIAN COORDINATES (ANGSTROEM)
---------------------------------
  C     -2.990000    3.002417    0.148645
  C     -2.677285    2.429309   -1.083072
  C     -1.462997    1.766336   -1.218406
  N     -0.605837    1.667978   -0.203478
  C     -0.891568    2.207617    0.980628
  C     -2.080082    2.895098    1.198230
  C      1.044813    0.491021   -0.563671
  C      1.922056    1.529883    0.061636
  O      2.215185    1.530817    1.233747
  O      2.312034    2.429766   -0.820879
  C      3.160203    3.467915   -0.337086
  H     -3.937121    3.528682    0.289155
  H     -1.173198    1.291615   -2.160965
  H     -0.146060    2.085107    1.772320
  H     -2.284960    3.328925    2.178352
  H      0.781561    0.592048   -1.613268
  H      4.094727    3.045613    0.058470
  H      2.654711    4.036933    0.455911
  C      1.674945   -1.605983    0.491166
  C      0.525751   -0.664085    0.280113
  C     -0.678089   -1.324454   -0.360084
  C     -0.558772   -1.976698   -1.586795
  C     -1.664032   -2.552758   -2.211395
  C     -2.909164   -2.475600   -1.590632
  C     -3.053516   -1.834949   -0.360347
  C     -1.939529   -1.258690    0.263092
  O     -1.992578   -0.620096    1.447971
  C     -3.237177   -0.440819    2.082322
  N      2.726313   -1.433396   -0.316727
  O      3.739208   -2.121422   -0.339074
  H      0.229644   -0.259397    1.256877
  H      0.424272   -2.024734   -2.064565
  H     -1.552614   -3.055471   -3.174347
  H     -3.788220   -2.919608   -2.064760
  H     -4.036072   -1.786353    0.109709
  H     -3.694498   -1.406376    2.354230
  H     -3.934988    0.124700    1.443110
  H     -3.039333    0.135164    2.994426
  O      2.622724   -0.425819   -1.134645
  H      3.368523    4.114841   -1.195660
  H     -3.362189    2.488248   -1.930575
  C      1.686748   -2.661741    1.414103
  N      1.658876   -3.524293    2.196258

----------------------------
CARTESIAN COORDINATES (A.U.)
----------------------------
  NO LB      ZA    FRAG     MASS         X           Y           Z
   0 C     6.0000    0    12.011   -5.650281    5.673746    0.280898
   1 C     6.0000    0    12.011   -5.059335    4.590729   -2.046709
   2 C     6.0000    0    12.011   -2.764664    3.337891   -2.302454
   3 N     7.0000    0    14.007   -1.144866    3.152022   -0.384518
   4 C     6.0000    0    12.011   -1.684819    4.171792    1.853118
   5 C     6.0000    0    12.011   -3.930785    5.470942    2.264327
   6 C     6.0000    0    12.011    1.974410    0.927895   -1.065184
   7 C     6.0000    0    12.011    3.632159    2.891060    0.116475
   8 O     8.0000    0    15.999    4.186093    2.892825    2.331444
   9 O     8.0000    0    15.999    4.369111    4.591592   -1.551236
  10 C     6.0000    0    12.011    5.971918    6.553410   -0.637000
  11 H     1.0000    0     1.008   -7.440080    6.668243    0.546424
  12 H     1.0000    0     1.008   -2.217023    2.440799   -4.083632
  13 H     1.0000    0     1.008   -0.276013    3.940281    3.349199
  14 H     1.0000    0     1.008   -4.317949    6.290757    4.116489
  15 H     1.0000    0     1.008    1.476936    1.118809   -3.048635
  16 H     1.0000    0     1.008    7.737913    5.755374    0.110492
  17 H     1.0000    0     1.008    5.016677    7.628698    0.861547
  18 C     6.0000    0    12.011    3.165187   -3.034868    0.928169
  19 C     6.0000    0    12.011    0.993525   -1.254939    0.529337
  20 C     6.0000    0    12.011   -1.281403   -2.502855   -0.680460
  21 C     6.0000    0    12.011   -1.055926   -3.735418   -2.998608
  22 C     6.0000    0    12.011   -3.144565   -4.824014   -4.178931
  23 C     6.0000    0    12.011   -5.497523   -4.678206   -3.005859
  24 C     6.0000    0    12.011   -5.770309   -3.467551   -0.680957
  25 C     6.0000    0    12.011   -3.665179   -2.378579    0.497172
  26 O     8.0000    0    15.999   -3.765427   -1.171812    2.736269
  27 C     6.0000    0    12.011   -6.117378   -0.833027    3.935018
  28 N     7.0000    0    14.007    5.151985   -2.708726   -0.598527
  29 O     8.0000    0    15.999    7.066079   -4.008907   -0.640757
  30 H     1.0000    0     1.008    0.433964   -0.490189    2.375153
  31 H     1.0000    0     1.008    0.801758   -3.826193   -3.901462
  32 H     1.0000    0     1.008   -2.934015   -5.774003   -5.998646
  33 H     1.0000    0     1.008   -7.158698   -5.517260   -3.901831
  34 H     1.0000    0     1.008   -7.627071   -3.375718    0.207320
  35 H     1.0000    0     1.008   -6.981589   -2.657665    4.448850
  36 H     1.0000    0     1.008   -7.436050    0.235649    2.727083
  37 H     1.0000    0     1.008   -5.743507    0.255423    5.658645
  38 O     8.0000    0    15.999    4.956230   -0.804681   -2.144168
  39 H     1.0000    0     1.008    6.365586    7.775923   -2.259470
  40 H     1.0000    0     1.008   -6.353616    4.702107   -3.648258
  41 C     6.0000    0    12.011    3.187492   -5.029962    2.672267
  42 N     7.0000    0    14.007    3.134821   -6.659949    4.150326

--------------------------------
INTERNAL COORDINATES (ANGSTROEM)
--------------------------------
 C      0   0   0     0.000000000000     0.00000000     0.00000000
 C      1   0   0     1.394048140839     0.00000000     0.00000000
 C      2   1   0     1.390087708466   118.55763654     0.00000000
 N      3   2   1     1.332094743983   121.54239689     0.15914518
 C      4   3   2     1.332276050193   120.61434449     0.00000000
 C      5   4   3     1.390160524530   121.51969672   359.58101087
 C      4   3   2     2.059031859782   115.13597530   174.28934123
 C      7   4   3     1.496595596794    90.00174871   135.36818862
 O      8   7   4     1.208209286224   123.23562861    91.66685022
 O      8   7   4     1.319357790517   111.54503301   272.21278131
 C     10   8   7     1.425201622793   116.46653098   180.29567383
 H      1   2   3     1.092582307639   120.40470661   180.13454577
 H      3   2   1     1.094422659087   121.46851835   179.45085588
 H      5   4   3     1.094334090225   116.84236798   179.66625699
 H      6   5   4     1.091246991151   119.84836640   180.18214019
 H      7   4   3     1.086812740375    85.50489260    16.52269452
 H     11  10   8     1.099153599328   110.38226904    61.01131246
 H     11  10   8     1.099157808687   110.38375253   300.08565248
 C      7   4   3     2.430467693677   128.68966058   245.26381447
 C     19   7   4     1.500787147083    36.76918303    16.81228653
 C     20  19   7     1.514981901070   113.22382420   123.36633967
 C     21  20  19     1.394445645963   120.50675651   303.37336820
 C     22  21  20     1.394119776490   121.30349450   182.08223449
 C     23  22  21     1.393432365261   119.07494423   359.79653002
 C     24  23  22     1.394586815128   120.72624205   359.86181711
 C     25  24  23     1.400613314934   119.95746279     0.09798750
 O     26  25  24     1.347054096122   123.72823496   179.85147853
 C     27  26  25     1.408392028070   119.42795138   356.24049812
 N     19   7   4     1.337105846013    80.22746486   182.69236328
 O     29  19   7     1.224677690705   126.07454274   173.35919522
 H     20  19   7     1.097961586072   108.22352506   244.06370577
 H     22  21  20     1.094050792300   118.78928951     1.56558203
 H     23  22  21     1.091975679856   120.29310240   179.70826685
 H     24  23  22     1.093014142445   120.19306735   179.90891797
 H     25  24  23     1.090289185257   119.60995929   180.07791348
 H     28  27  26     1.102441280864   111.48052481    63.48389176
 H     28  27  26     1.102426374878   111.31557317   301.21488641
 H     28  27  26     1.096737147835   106.38079937   182.49340520
 O     29  19   7     1.301895520606   114.64072270   353.65991234
 H     11  10   8     1.095015883607   106.10541476   180.55098544
 H      2   1   3     1.091250947283   121.54733974   179.76754046
 C     19   7   4     1.402346951129   159.61547792   346.17667569
 N     42  19   7     1.164705647412   177.87386119    14.47009117

---------------------------
INTERNAL COORDINATES (A.U.)
---------------------------
 C      0   0   0     0.000000000000     0.00000000     0.00000000
 C      1   0   0     2.634369203689     0.00000000     0.00000000
 C      2   1   0     2.626885071131   118.55763654     0.00000000
 N      3   2   1     2.517294250564   121.54239689     0.15914518
 C      4   3   2     2.517636869647   120.61434449     0.00000000
 C      5   4   3     2.627022673550   121.51969672   359.58101087
 C      4   3   2     3.891006316007   115.13597530   174.28934123
 C      7   4   3     2.828155811172    90.00174871   135.36818862
 O      8   7   4     2.283184663424   123.23562861    91.66685022
 O      8   7   4     2.493224896733   111.54503301   272.21278131
 C     10   8   7     2.693240752698   116.46653098   180.29567383
 H      1   2   3     2.064681340206   120.40470661   180.13454577
 H      3   2   1     2.068159100432   121.46851835   179.45085588
 H      5   4   3     2.067991729539   116.84236798   179.66625699
 H      6   5   4     2.062157957742   119.84836640   180.18214019
 H      7   4   3     2.053778438166    85.50489260    16.52269452
 H     11  10   8     2.077099281844   110.38226904    61.01131246
 H     11  10   8     2.077107236379   110.38375253   300.08565248
 C      7   4   3     4.592918318393   128.68966058   245.26381447
 C     19   7   4     2.836076693296    36.76918303    16.81228653
 C     20  19   7     2.862900890870   113.22382420   123.36633967
 C     21  20  19     2.635120379510   120.50675651   303.37336820
 C     22  21  20     2.634504575449   121.30349450   182.08223449
 C     23  22  21     2.633205556486   119.07494423   359.79653002
 C     24  23  22     2.635387150570   120.72624205   359.86181711
 C     25  24  23     2.646775584749   119.95746279     0.09798750
 O     26  25  24     2.545563329247   123.72823496   179.85147853
 C     27  26  25     2.661475222250   119.42795138   356.24049812
 N     19   7   4     2.526763861030    80.22746486   182.69236328
 O     29  19   7     2.314305437755   126.07454274   173.35919522
 H     20  19   7     2.074846703241   108.22352506   244.06370577
 H     22  21  20     2.067456374046   118.78928951     1.56558203
 H     23  22  21     2.063534979830   120.29310240   179.70826685
 H     24  23  22     2.065497389723   120.19306735   179.90891797
 H     25  24  23     2.060347966912   119.60995929   180.07791348
 H     28  27  26     2.083312099563   111.48052481    63.48389176
 H     28  27  26     2.083283931330   111.31557317   301.21488641
 H     28  27  26     2.072532850306   106.38079937   182.49340520
 O     29  19   7     2.460225988924   114.64072270   353.65991234
 H     11  10   8     2.069280132311   106.10541476   180.55098544
 H      2   1   3     2.062165433747   121.54733974   179.76754046
 C     19   7   4     2.650051682374   159.61547792   346.17667569
 N     42  19   7     2.200974700240   177.87386119    14.47009117

---------------------
BASIS SET INFORMATION
---------------------
There are 4 groups of distinct atoms

 Group   1 Type C   : 11s6p2d1f contracted to 5s3p2d1f pattern {62111/411/11/1}
 Group   2 Type N   : 11s6p2d1f contracted to 5s3p2d1f pattern {62111/411/11/1}
 Group   3 Type O   : 11s6p2d1f contracted to 5s3p2d1f pattern {62111/411/11/1}
 Group   4 Type H   : 5s1p contracted to 3s1p pattern {311/1}

Atom   0C    basis set group =>   1
Atom   1C    basis set group =>   1
Atom   2C    basis set group =>   1
Atom   3N    basis set group =>   2
Atom   4C    basis set group =>   1
Atom   5C    basis set group =>   1
Atom   6C    basis set group =>   1
Atom   7C    basis set group =>   1
Atom   8O    basis set group =>   3
Atom   9O    basis set group =>   3
Atom  10C    basis set group =>   1
Atom  11H    basis set group =>   4
Atom  12H    basis set group =>   4
Atom  13H    basis set group =>   4
Atom  14H    basis set group =>   4
Atom  15H    basis set group =>   4
Atom  16H    basis set group =>   4
Atom  17H    basis set group =>   4
Atom  18C    basis set group =>   1
Atom  19C    basis set group =>   1
Atom  20C    basis set group =>   1
Atom  21C    basis set group =>   1
Atom  22C    basis set group =>   1
Atom  23C    basis set group =>   1
Atom  24C    basis set group =>   1
Atom  25C    basis set group =>   1
Atom  26O    basis set group =>   3
Atom  27C    basis set group =>   1
Atom  28N    basis set group =>   2
Atom  29O    basis set group =>   3
Atom  30H    basis set group =>   4
Atom  31H    basis set group =>   4
Atom  32H    basis set group =>   4
Atom  33H    basis set group =>   4
Atom  34H    basis set group =>   4
Atom  35H    basis set group =>   4
Atom  36H    basis set group =>   4
Atom  37H    basis set group =>   4
Atom  38O    basis set group =>   3
Atom  39H    basis set group =>   4
Atom  40H    basis set group =>   4
Atom  41C    basis set group =>   1
Atom  42N    basis set group =>   2
---------------------------------
AUXILIARY/J BASIS SET INFORMATION
---------------------------------
There are 4 groups of distinct atoms

 Group   1 Type C   : 12s5p4d2f1g contracted to 6s4p3d1f1g pattern {711111/2111/211/2/1}
 Group   2 Type N   : 12s5p4d2f1g contracted to 6s4p3d1f1g pattern {711111/2111/211/2/1}
 Group   3 Type O   : 12s5p4d2f1g contracted to 6s4p3d1f1g pattern {711111/2111/211/2/1}
 Group   4 Type H   : 5s2p1d contracted to 3s1p1d pattern {311/2/1}

Atom   0C    basis set group =>   1
Atom   1C    basis set group =>   1
Atom   2C    basis set group =>   1
Atom   3N    basis set group =>   2
Atom   4C    basis set group =>   1
Atom   5C    basis set group =>   1
Atom   6C    basis set group =>   1
Atom   7C    basis set group =>   1
Atom   8O    basis set group =>   3
Atom   9O    basis set group =>   3
Atom  10C    basis set group =>   1
Atom  11H    basis set group =>   4
Atom  12H    basis set group =>   4
Atom  13H    basis set group =>   4
Atom  14H    basis set group =>   4
Atom  15H    basis set group =>   4
Atom  16H    basis set group =>   4
Atom  17H    basis set group =>   4
Atom  18C    basis set group =>   1
Atom  19C    basis set group =>   1
Atom  20C    basis set group =>   1
Atom  21C    basis set group =>   1
Atom  22C    basis set group =>   1
Atom  23C    basis set group =>   1
Atom  24C    basis set group =>   1
Atom  25C    basis set group =>   1
Atom  26O    basis set group =>   3
Atom  27C    basis set group =>   1
Atom  28N    basis set group =>   2
Atom  29O    basis set group =>   3
Atom  30H    basis set group =>   4
Atom  31H    basis set group =>   4
Atom  32H    basis set group =>   4
Atom  33H    basis set group =>   4
Atom  34H    basis set group =>   4
Atom  35H    basis set group =>   4
Atom  36H    basis set group =>   4
Atom  37H    basis set group =>   4
Atom  38O    basis set group =>   3
Atom  39H    basis set group =>   4
Atom  40H    basis set group =>   4
Atom  41C    basis set group =>   1
Atom  42N    basis set group =>   2


           ************************************************************
           *        Program running with 24 parallel MPI-processes    *
           *              working on a common directory               *
           ************************************************************
------------------------------------------------------------------------------
                           ORCA GTO INTEGRAL CALCULATION
                           -- RI-GTO INTEGRALS CHOSEN --
------------------------------------------------------------------------------
------------------------------------------------------------------------------
                   ___                                                        
                  /   \      - P O W E R E D   B Y -                         
                 /     \                                                     
                 |  |  |   _    _      __       _____    __    __             
                 |  |  |  | |  | |    /  \     |  _  \  |  |  /  |          
                  \  \/   | |  | |   /    \    | | | |  |  | /  /          
                 / \  \   | |__| |  /  /\  \   | |_| |  |  |/  /          
                |  |  |   |  __  | /  /__\  \  |    /   |      \           
                |  |  |   | |  | | |   __   |  |    \   |  |\   \          
                \     /   | |  | | |  |  |  |  | |\  \  |  | \   \       
                 \___/    |_|  |_| |__|  |__|  |_| \__\ |__|  \__/        
                                                                              
                      - O R C A' S   B I G   F R I E N D -                    
                                      &                                       
                       - I N T E G R A L  F E E D E R -                       
                                                                              
 v1 FN, 2020, v2 2021                                                         
------------------------------------------------------------------------------


Reading SHARK input file TS2_CN/TS2_CN.SHARKINP.tmp ... ok
----------------------
SHARK INTEGRAL PACKAGE
----------------------

Number of atoms                             ...     43
Number of basis functions                   ...    908
Number of shells                            ...    354
Maximum angular momentum                    ...      3
Integral batch strategy                     ... SHARK/LIBINT Hybrid
RI-J (if used) integral strategy            ... SPLIT-RIJ (Revised 2003 algorithm where possible)
Printlevel                                  ...      1
Contraction scheme used                     ... SEGMENTED contraction
Coulomb Range Separation                    ... NOT USED
Exchange Range Separation                   ... NOT USED
Finite Nucleus Model                        ... NOT USED
Auxiliary Coulomb fitting basis             ... AVAILABLE
   # of basis functions in Aux-J            ...   1461
   # of shells in Aux-J                     ...    475
   Maximum angular momentum in Aux-J        ...      4
Auxiliary J/K fitting basis                 ... NOT available
Auxiliary Correlation fitting basis         ... NOT available
Auxiliary 'external' fitting basis          ... NOT available
Integral threshold                          ...     2.500000e-11
Primitive cut-off                           ...     2.500000e-12
Primitive pair pre-selection threshold      ...     2.500000e-12

Calculating pre-screening integrals         ... done (  0.1 sec) Dimension = 354
Organizing shell pair data                  ... done (  0.6 sec)
Shell pair information
Total number of shell pairs                 ...     62835
Shell pairs after pre-screening             ...     45470
Total number of primitive shell pairs       ...    194376
Primitive shell pairs kept                  ...     91340
          la=0 lb=0:  11349 shell pairs
          la=1 lb=0:  13019 shell pairs
          la=1 lb=1:   3726 shell pairs
          la=2 lb=0:   6560 shell pairs
          la=2 lb=1:   3825 shell pairs
          la=2 lb=2:    989 shell pairs
          la=3 lb=0:   3033 shell pairs
          la=3 lb=1:   1823 shell pairs
          la=3 lb=2:    915 shell pairs
          la=3 lb=3:    231 shell pairs

Calculating one electron integrals          ... done (  0.1 sec)
Calculating RI/J V-Matrix + Cholesky decomp.... done (  0.2 sec)
Calculating Nuclear repulsion               ... done (  0.0 sec) ENN=   2453.025251950021 Eh

SHARK setup successfully completed in   1.7 seconds

Maximum memory used throughout the entire GTOINT-calculation: 68.8 MB


           ************************************************************
           *        Program running with 24 parallel MPI-processes    *
           *              working on a common directory               *
           ************************************************************
-------------------------------------------------------------------------------
                                 ORCA SCF
-------------------------------------------------------------------------------

------------
SCF SETTINGS
------------
Hamiltonian:
 Density Functional     Method          .... DFT(GTOs)
 Exchange Functional    Exchange        .... PBE
   PBE kappa parameter   XKappa         ....  0.804000
   PBE mue parameter    XMuePBE         ....  0.219520
 Correlation Functional Correlation     .... PBE
   PBE beta parameter  CBetaPBE         ....  0.066725
 LDA part of GGA corr.  LDAOpt          .... PW91-LDA
 Gradients option       PostSCFGGA      .... off
 Hybrid DFT is turned on
   Fraction HF Exchange ScalHFX         ....  0.250000
   Scaling of DF-GGA-X  ScalDFX         ....  0.750000
   Scaling of DF-GGA-C  ScalDFC         ....  1.000000
   Scaling of DF-LDA-C  ScalLDAC        ....  1.000000
   Perturbative correction              ....  0.000000
   Density functional embedding theory  .... OFF
   NL short-range parameter             ....  6.900000
 RI-approximation to the Coulomb term is turned on
   Number of AuxJ basis functions       .... 1461
   RIJ-COSX (HFX calculated with COS-X)).... on


General Settings:
 Integral files         IntName         .... TS2_CN/TS2_CN
 Hartree-Fock type      HFTyp           .... RHF
 Total Charge           Charge          ....    0
 Multiplicity           Mult            ....    1
 Number of Electrons    NEL             ....  186
 Basis Dimension        Dim             ....  908
 Nuclear Repulsion      ENuc            ....   2453.0252519500 Eh

Convergence Acceleration:
 DIIS                   CNVDIIS         .... on
   Start iteration      DIISMaxIt       ....    12
   Startup error        DIISStart       ....  0.200000
   # of expansion vecs  DIISMaxEq       ....     5
   Bias factor          DIISBfac        ....   1.050
   Max. coefficient     DIISMaxC        ....  10.000
 Trust-Rad. Augm. Hess. CNVTRAH         .... auto
   Auto Start mean grad. ratio tolernc. ....  1.125000
   Auto Start start iteration           ....    20
   Auto Start num. interpolation iter.  ....    10
   Max. Number of Micro iterations      ....    16
   Max. Number of Macro iterations      .... Maxiter - #DIIS iter
   Number of Davidson start vectors     ....     2
   Converg. threshold I  (grad. norm)   ....   1.000e-05
   Converg. threshold II (energy diff.) ....   1.000e-08
   Grad. Scal. Fac. for Micro threshold ....   0.100
   Minimum threshold for Micro iter.    ....   0.010
   NR start threshold (gradient norm)   ....   0.001
   Initial trust radius                 ....   0.400
   Minimum AH scaling param. (alpha)    ....   1.000
   Maximum AH scaling param. (alpha)    .... 1000.000
   Orbital update algorithm             .... Taylor
   White noise on init. David. guess    .... on
   Maximum white noise                  ....   0.010
   Quad. conv. algorithm                .... NR
 SOSCF                  CNVSOSCF        .... on
   Start iteration      SOSCFMaxIt      ....   150
   Startup grad/error   SOSCFStart      ....  0.003300
 Level Shifting         CNVShift        .... on
   Level shift para.    LevelShift      ....    0.2500
   Turn off err/grad.   ShiftErr        ....    0.0010
 Zerner damping         CNVZerner       .... off
 Static damping         CNVDamp         .... on
   Fraction old density DampFac         ....    0.7000
   Max. Damping (<1)    DampMax         ....    0.9800
   Min. Damping (>=0)   DampMin         ....    0.0000
   Turn off err/grad.   DampErr         ....    0.1000
 Fernandez-Rico         CNVRico         .... off

SCF Procedure:
 Maximum # iterations   MaxIter         ....   800
 SCF integral mode      SCFMode         .... Direct
   Integral package                     .... SHARK and LIBINT hybrid scheme
 Reset frequency        DirectResetFreq ....    20
 Integral Threshold     Thresh          ....  2.500e-11 Eh
 Primitive CutOff       TCut            ....  2.500e-12 Eh

Convergence Tolerance:
 Convergence Check Mode ConvCheckMode   .... Total+1el-Energy
 Convergence forced     ConvForced      .... 0
 Energy Change          TolE            ....  1.000e-08 Eh
 1-El. energy change                    ....  1.000e-05 Eh
 Orbital Gradient       TolG            ....  1.000e-05
 Orbital Rotation angle TolX            ....  1.000e-05
 DIIS Error             TolErr          ....  5.000e-07


Diagonalization of the overlap matrix:
Smallest eigenvalue                        ... 5.989e-06
Time for diagonalization                   ...    0.253 sec
Threshold for overlap eigenvalues          ... 1.000e-08
Number of eigenvalues below threshold      ... 0
Time for construction of square roots      ...    0.141 sec
Total time needed                          ...    0.400 sec

Time for model grid setup =    0.331 sec

------------------------------
INITIAL GUESS: MODEL POTENTIAL
------------------------------
Loading Hartree-Fock densities                     ... done
Calculating cut-offs                               ... done
Initializing the effective Hamiltonian             ... done
Setting up the integral package (SHARK)            ... done
Starting the Coulomb interaction                   ... done (   0.8 sec)
Reading the grid                                   ... done
Mapping shells                                     ... done
Starting the XC term evaluation                    ... done (   0.3 sec)
  promolecular density results
     # of electrons  =    185.988546634
     EX              =   -157.410416797
     EC              =     -6.275101446
     EX+EC           =   -163.685518244
Transforming the Hamiltonian                       ... done (   0.1 sec)
Diagonalizing the Hamiltonian                      ... done (   0.3 sec)
Back transforming the eigenvectors                 ... done (   0.1 sec)
Now organizing SCF variables                       ... done
                      ------------------
                      INITIAL GUESS DONE (   2.0 sec)
                      ------------------
-------------------
DFT GRID GENERATION
-------------------

General Integration Accuracy     IntAcc      ... 4.388
Radial Grid Type                 RadialGrid  ... OptM3 with GC (2021)
Angular Grid (max. ang.)         AngularGrid ... 4 (Lebedev-302)
Angular grid pruning method      GridPruning ... 4 (adaptive)
Weight generation scheme         WeightScheme... Becke
Basis function cutoff            BFCut       ... 1.0000e-11
Integration weight cutoff        WCut        ... 1.0000e-14
Angular grids for H and He will be reduced by one unit
Partially contracted basis set               ... off
Rotationally invariant grid construction     ... off

Total number of grid points                  ...   209147
Total number of batches                      ...     3292
Average number of points per batch           ...       63
Average number of grid points per atom       ...     4864
Time for grid setup =    1.484 sec

--------------------
COSX GRID GENERATION
--------------------

GRIDX 1
-------
General Integration Accuracy     IntAcc      ... 3.816
Radial Grid Type                 RadialGrid  ... OptM3 with GC (2021)
Angular Grid (max. ang.)         AngularGrid ... 1 (Lebedev-50)
Angular grid pruning method      GridPruning ... 4 (adaptive)
Weight generation scheme         WeightScheme... Becke
Basis function cutoff            BFCut       ... 1.0000e-11
Integration weight cutoff        WCut        ... 1.0000e-14
Angular grids for H and He will be reduced by one unit
Partially contracted basis set               ... on
Rotationally invariant grid construction     ... off

Total number of grid points                  ...    26507
Total number of batches                      ...      435
Average number of points per batch           ...       60
Average number of grid points per atom       ...      616
UseSFitting                                  ... on

GRIDX 2
-------
General Integration Accuracy     IntAcc      ... 4.020
Radial Grid Type                 RadialGrid  ... OptM3 with GC (2021)
Angular Grid (max. ang.)         AngularGrid ... 2 (Lebedev-110)
Angular grid pruning method      GridPruning ... 4 (adaptive)
Weight generation scheme         WeightScheme... Becke
Basis function cutoff            BFCut       ... 1.0000e-11
Integration weight cutoff        WCut        ... 1.0000e-14
Angular grids for H and He will be reduced by one unit
Partially contracted basis set               ... on
Rotationally invariant grid construction     ... off

Total number of grid points                  ...    57783
Total number of batches                      ...      927
Average number of points per batch           ...       62
Average number of grid points per atom       ...     1344
UseSFitting                                  ... on

GRIDX 3
-------
General Integration Accuracy     IntAcc      ... 4.338
Radial Grid Type                 RadialGrid  ... OptM3 with GC (2021)
Angular Grid (max. ang.)         AngularGrid ... 3 (Lebedev-194)
Angular grid pruning method      GridPruning ... 4 (adaptive)
Weight generation scheme         WeightScheme... Becke
Basis function cutoff            BFCut       ... 1.0000e-11
Integration weight cutoff        WCut        ... 1.0000e-14
Angular grids for H and He will be reduced by one unit
Partially contracted basis set               ... on
Rotationally invariant grid construction     ... off

Total number of grid points                  ...   126333
Total number of batches                      ...     1995
Average number of points per batch           ...       63
Average number of grid points per atom       ...     2938
UseSFitting                                  ... on

Time for X-Grid setup             =    2.885 sec


--------------------
CPCM SOLVATION MODEL
--------------------
CPCM parameters:
  Epsilon                                         ...      47.2000
  Refrac                                          ...       1.4790
  Rsolv                                           ...       1.3000
  Surface type                                    ... GAUSSIAN VDW
  Epsilon function type                           ...         CPCM
Radii:
 Radius for C  used is    3.8550 Bohr (=   2.0400 Ang.)
 Radius for N  used is    3.5149 Bohr (=   1.8600 Ang.)
 Radius for O  used is    3.4469 Bohr (=   1.8240 Ang.)
 Radius for H  used is    2.4944 Bohr (=   1.3200 Ang.)
Calculating surface                               ...        done! (  0.0s)
GEPOL surface points                              ...         2220
GEPOL Volume                                      ...    2730.0961
GEPOL Surface-area                                ...    1348.1603
Calculating surface distance matrix               ...        done! (  0.1s)
Performing Cholesky decomposition & store         ...        done! (  0.3s)
Overall time for CPCM initialization              ...                 0.4s
--------------
SCF ITERATIONS
--------------
ITER       Energy         Delta-E        Max-DP      RMS-DP      [F,P]     Damp
               ***  Starting incremental Fock matrix formation  ***
  0  -1234.8737677073   0.000000000000 0.31224776  0.00094351  0.2656299 0.7000
  1  -1235.1317755764  -0.258007869140 0.24188303  0.00081699  0.1061093 0.7000
                               ***Turning on DIIS***
  2  -1235.2305881731  -0.098812596650 0.20874253  0.00125811  0.0344388 0.0000
  3  -1235.4009819996  -0.170393826489 0.23391892  0.00075082  0.0531955 0.0000
  4  -1235.4288087338  -0.027826734263 0.03041302  0.00023409  0.0245799 0.0000
  5  -1235.4316736010  -0.002864867139 0.02888518  0.00009284  0.0052114 0.0000
                      *** Initiating the SOSCF procedure ***
                           *** Shutting down DIIS ***
                      *** Re-Reading the Fockian *** 
                      *** Removing any level shift *** 
ITER      Energy       Delta-E        Grad      Rot      Max-DP    RMS-DP
  6  -1235.43178867  -0.0001150689  0.000206  0.000206  0.006255  0.000024
               *** Restarting incremental Fock matrix formation ***
  7  -1235.43180273  -0.0000140570  0.000113  0.000453  0.002188  0.000021
  8  -1235.43180210   0.0000006243  0.000244  0.000525  0.000764  0.000006
  9  -1235.43180532  -0.0000032130  0.000037  0.000132  0.000886  0.000005
 10  -1235.43180518   0.0000001327  0.000039  0.000063  0.000586  0.000001
 11  -1235.43180542  -0.0000002361  0.000007  0.000022  0.000182  0.000001
 12  -1235.43180543  -0.0000000131  0.000011  0.000015  0.000216  0.000001
 13  -1235.43180544  -0.0000000055  0.000003  0.000005  0.000279  0.000001
 14  -1235.43180539   0.0000000447  0.000003  0.000003  0.000183  0.000001
                  ***Gradient check signals convergence***
              ***Rediagonalizing the Fockian in SOSCF/NRSCF***

               *****************************************************
               *                     SUCCESS                       *
               *           SCF CONVERGED AFTER  15 CYCLES          *
               *****************************************************

Old exchange energy                            =    -40.039372009 Eh
New exchange energy                            =    -40.039339296 Eh
Exchange energy change after final integration =      0.000032713 Eh
Total energy after final integration           =  -1235.431772751 Eh
Final COS-X integration done in                =    18.499 sec

----------------
TOTAL SCF ENERGY
----------------

Total Energy       :        -1235.43177275 Eh          -33617.80763 eV

Components:
Nuclear Repulsion  :         2453.02525195 Eh           66750.21062 eV
Electronic Energy  :        -3688.45702470 Eh         -100368.01825 eV
One Electron Energy:        -6561.15322273 Eh         -178538.05589 eV
Two Electron Energy:         2872.69619803 Eh           78170.03764 eV
Max COSX asymmetry :            0.00000140 Eh               0.00004 eV
CPCM Dielectric    :           -0.05170083 Eh              -1.40685 eV

Virial components:
Potential Energy   :        -2465.03704342 Eh          -67077.06808 eV
Kinetic Energy     :         1229.60527067 Eh           33459.26045 eV
Virial Ratio       :            2.00473851


DFT components:
N(Alpha)           :       92.999944355674 electrons
N(Beta)            :       92.999944355674 electrons
N(Total)           :      185.999888711348 electrons
E(X)               :     -119.982214926057 Eh       
E(C)               :       -6.273556735799 Eh       
E(XC)              :     -126.255771661856 Eh       
DFET-embed. en.    :        0.000000000000 Eh       
CPCM Solvation Model Properties:
Surface-charge          :           -0.02995605
Charge-correction       :           -0.00020165 Eh              -0.00549 eV
Free-energy (cav+disp)  :  This term is not implemented in the current solvation scheme

---------------
SCF CONVERGENCE
---------------

  Last Energy change         ...   -7.0386e-08  Tolerance :   1.0000e-08
  Last MAX-Density change    ...    2.3315e-15  Tolerance :   1.0000e-07
  Last RMS-Density change    ...    1.5023e-17  Tolerance :   5.0000e-09
  Last Orbital Gradient      ...    4.1065e-07  Tolerance :   1.0000e-05
  Last Orbital Rotation      ...    1.6918e-06  Tolerance :   1.0000e-05

             **** THE GBW FILE WAS UPDATED (TS2_CN/TS2_CN.gbw) ****
             **** DENSITY TS2_CN/TS2_CN.scfp WAS UPDATED ****
             **** ENERGY FILE WAS UPDATED (TS2_CN/TS2_CN.en.tmp) ****
             **** THE GBW FILE WAS UPDATED (TS2_CN/TS2_CN.gbw) ****
             **** DENSITY TS2_CN/TS2_CN.scfp WAS UPDATED ****
----------------
ORBITAL ENERGIES
----------------

  NO   OCC          E(Eh)            E(eV) 
   0   2.0000     -19.271741      -524.4107 
   1   2.0000     -19.248537      -523.7793 
   2   2.0000     -19.245900      -523.7076 
   3   2.0000     -19.221690      -523.0488 
   4   2.0000     -19.212928      -522.8104 
   5   2.0000     -14.604417      -397.4064 
   6   2.0000     -14.441426      -392.9712 
   7   2.0000     -14.393153      -391.6576 
   8   2.0000     -10.374219      -282.2968 
   9   2.0000     -10.339347      -281.3479 
  10   2.0000     -10.297248      -280.2024 
  11   2.0000     -10.291785      -280.0537 
  12   2.0000     -10.287895      -279.9478 
  13   2.0000     -10.286874      -279.9201 
  14   2.0000     -10.280196      -279.7384 
  15   2.0000     -10.277437      -279.6633 
  16   2.0000     -10.276042      -279.6253 
  17   2.0000     -10.270229      -279.4671 
  18   2.0000     -10.262953      -279.2691 
  19   2.0000     -10.253745      -279.0186 
  20   2.0000     -10.253302      -279.0065 
  21   2.0000     -10.245697      -278.7996 
  22   2.0000     -10.236620      -278.5526 
  23   2.0000     -10.235198      -278.5139 
  24   2.0000     -10.231243      -278.4063 
  25   2.0000     -10.227157      -278.2951 
  26   2.0000      -1.245937       -33.9037 
  27   2.0000      -1.163821       -31.6692 
  28   2.0000      -1.113334       -30.2954 
  29   2.0000      -1.072546       -29.1855 
  30   2.0000      -1.067604       -29.0510 
  31   2.0000      -1.015205       -27.6251 
  32   2.0000      -0.947569       -25.7847 
  33   2.0000      -0.908153       -24.7121 
  34   2.0000      -0.881890       -23.9974 
  35   2.0000      -0.856402       -23.3039 
  36   2.0000      -0.836480       -22.7618 
  37   2.0000      -0.812751       -22.1161 
  38   2.0000      -0.797735       -21.7075 
  39   2.0000      -0.780542       -21.2396 
  40   2.0000      -0.756877       -20.5957 
  41   2.0000      -0.720365       -19.6021 
  42   2.0000      -0.701523       -19.0894 
  43   2.0000      -0.680798       -18.5254 
  44   2.0000      -0.677450       -18.4344 
  45   2.0000      -0.666111       -18.1258 
  46   2.0000      -0.628008       -17.0890 
  47   2.0000      -0.616360       -16.7720 
  48   2.0000      -0.601390       -16.3647 
  49   2.0000      -0.592306       -16.1175 
  50   2.0000      -0.575245       -15.6532 
  51   2.0000      -0.561051       -15.2670 
  52   2.0000      -0.550281       -14.9739 
  53   2.0000      -0.546073       -14.8594 
  54   2.0000      -0.532678       -14.4949 
  55   2.0000      -0.523040       -14.2326 
  56   2.0000      -0.519033       -14.1236 
  57   2.0000      -0.518587       -14.1115 
  58   2.0000      -0.508955       -13.8494 
  59   2.0000      -0.500732       -13.6256 
  60   2.0000      -0.496932       -13.5222 
  61   2.0000      -0.494179       -13.4473 
  62   2.0000      -0.479825       -13.0567 
  63   2.0000      -0.466431       -12.6922 
  64   2.0000      -0.460765       -12.5380 
  65   2.0000      -0.453507       -12.3406 
  66   2.0000      -0.453296       -12.3348 
  67   2.0000      -0.443160       -12.0590 
  68   2.0000      -0.436409       -11.8753 
  69   2.0000      -0.431956       -11.7541 
  70   2.0000      -0.422279       -11.4908 
  71   2.0000      -0.416943       -11.3456 
  72   2.0000      -0.404036       -10.9944 
  73   2.0000      -0.398557       -10.8453 
  74   2.0000      -0.395622       -10.7654 
  75   2.0000      -0.391754       -10.6602 
  76   2.0000      -0.385330       -10.4854 
  77   2.0000      -0.381047       -10.3688 
  78   2.0000      -0.375958       -10.2303 
  79   2.0000      -0.368011       -10.0141 
  80   2.0000      -0.366953        -9.9853 
  81   2.0000      -0.346608        -9.4317 
  82   2.0000      -0.343670        -9.3517 
  83   2.0000      -0.338917        -9.2224 
  84   2.0000      -0.336647        -9.1606 
  85   2.0000      -0.328465        -8.9380 
  86   2.0000      -0.325018        -8.8442 
  87   2.0000      -0.316341        -8.6081 
  88   2.0000      -0.298755        -8.1295 
  89   2.0000      -0.296116        -8.0577 
  90   2.0000      -0.275303        -7.4914 
  91   2.0000      -0.246767        -6.7149 
  92   2.0000      -0.240192        -6.5360 
  93   0.0000      -0.061118        -1.6631 
  94   0.0000      -0.056605        -1.5403 
  95   0.0000      -0.044357        -1.2070 
  96   0.0000      -0.034392        -0.9358 
  97   0.0000      -0.018864        -0.5133 
  98   0.0000      -0.000418        -0.0114 
  99   0.0000       0.008663         0.2357 
 100   0.0000       0.046184         1.2567 
 101   0.0000       0.049176         1.3382 
 102   0.0000       0.061851         1.6831 
 103   0.0000       0.065247         1.7755 
 104   0.0000       0.069994         1.9046 
 105   0.0000       0.073594         2.0026 
 106   0.0000       0.078066         2.1243 
 107   0.0000       0.088474         2.4075 
 108   0.0000       0.092681         2.5220 
 109   0.0000       0.093904         2.5553 
 110   0.0000       0.097214         2.6453 
 111   0.0000       0.103713         2.8222 
 112   0.0000       0.112803         3.0695 
 113   0.0000       0.114234         3.1085 
 114   0.0000       0.120609         3.2820 
 115   0.0000       0.123415         3.3583 
 116   0.0000       0.127180         3.4607 
 117   0.0000       0.129617         3.5271 
 118   0.0000       0.131667         3.5828 
 119   0.0000       0.139891         3.8066 
 120   0.0000       0.141205         3.8424 
 121   0.0000       0.146942         3.9985 
 122   0.0000       0.148203         4.0328 
 123   0.0000       0.154389         4.2011 
 124   0.0000       0.163205         4.4410 
 125   0.0000       0.164593         4.4788 
 126   0.0000       0.169343         4.6081 
 127   0.0000       0.183324         4.9885 
 128   0.0000       0.194420         5.2904 
 129   0.0000       0.197776         5.3818 
 130   0.0000       0.202311         5.5052 
 131   0.0000       0.209442         5.6992 
 132   0.0000       0.210611         5.7310 
 133   0.0000       0.214335         5.8324 
 134   0.0000       0.216851         5.9008 
 135   0.0000       0.217747         5.9252 
 136   0.0000       0.222015         6.0413 
 137   0.0000       0.222501         6.0546 
 138   0.0000       0.230868         6.2822 
 139   0.0000       0.232568         6.3285 
 140   0.0000       0.237404         6.4601 
 141   0.0000       0.240523         6.5450 
 142   0.0000       0.241684         6.5766 
 143   0.0000       0.246701         6.7131 
 144   0.0000       0.249010         6.7759 
 145   0.0000       0.257427         7.0049 
 146   0.0000       0.259791         7.0693 
 147   0.0000       0.264973         7.2103 
 148   0.0000       0.269209         7.3255 
 149   0.0000       0.276841         7.5332 
 150   0.0000       0.279337         7.6012 
 151   0.0000       0.282504         7.6873 
 152   0.0000       0.289544         7.8789 
 153   0.0000       0.299048         8.1375 
 154   0.0000       0.299884         8.1603 
 155   0.0000       0.310162         8.4399 
 156   0.0000       0.313050         8.5185 
 157   0.0000       0.319604         8.6969 
 158   0.0000       0.320303         8.7159 
 159   0.0000       0.322895         8.7864 
 160   0.0000       0.329310         8.9610 
 161   0.0000       0.330775         9.0008 
 162   0.0000       0.334210         9.0943 
 163   0.0000       0.341403         9.2901 
 164   0.0000       0.345933         9.4133 
 165   0.0000       0.348156         9.4738 
 166   0.0000       0.350742         9.5442 
 167   0.0000       0.354935         9.6583 
 168   0.0000       0.357150         9.7185 
 169   0.0000       0.361894         9.8476 
 170   0.0000       0.366444         9.9714 
 171   0.0000       0.369921        10.0661 
 172   0.0000       0.383638        10.4393 
 173   0.0000       0.388127        10.5615 
 174   0.0000       0.389774        10.6063 
 175   0.0000       0.394183        10.7263 
 176   0.0000       0.396050        10.7771 
 177   0.0000       0.401145        10.9157 
 178   0.0000       0.408255        11.1092 
 179   0.0000       0.410153        11.1608 
 180   0.0000       0.414117        11.2687 
 181   0.0000       0.415313        11.3013 
 182   0.0000       0.417032        11.3480 
 183   0.0000       0.422927        11.5084 
 184   0.0000       0.424124        11.5410 
 185   0.0000       0.427542        11.6340 
 186   0.0000       0.434282        11.8174 
 187   0.0000       0.440570        11.9885 
 188   0.0000       0.443171        12.0593 
 189   0.0000       0.447919        12.1885 
 190   0.0000       0.450905        12.2697 
 191   0.0000       0.452311        12.3080 
 192   0.0000       0.455174        12.3859 
 193   0.0000       0.457610        12.4522 
 194   0.0000       0.460392        12.5279 
 195   0.0000       0.462443        12.5837 
[...]
 19:    151.77   0.000474    2.40  0.000975  (-0.007028 -0.029740 -0.006380)
 20:    157.38   0.002081   10.52  0.004126  (-0.045999  0.044766  0.002446)
 21:    166.72   0.005741   29.01  0.010746  (-0.060831  0.083404  0.009478)
 22:    180.79   0.001317    6.66  0.002273  (-0.014314  0.030719  0.033535)
 23:    192.79   0.001777    8.98  0.002877  ( 0.041760 -0.018833  0.027902)
 24:    210.40   0.000058    0.29  0.000085  (-0.001473 -0.005996 -0.006872)
 25:    233.38   0.000744    3.76  0.000994  (-0.012500  0.028727  0.003594)
 26:    244.67   0.000258    1.31  0.000330  ( 0.005918 -0.014574 -0.009066)
 27:    262.99   0.001930    9.75  0.002290  (-0.027882 -0.038230  0.007138)
 28:    270.80   0.000113    0.57  0.000130  (-0.002262  0.006017 -0.009422)
 29:    289.21   0.003471   17.54  0.003745  ( 0.034075  0.032278 -0.039269)
 30:    318.84   0.002096   10.59  0.002052  (-0.038506 -0.018255 -0.015347)
 31:    331.18   0.000541    2.73  0.000510  (-0.004120  0.004578 -0.021720)
 32:    371.33   0.005631   28.46  0.004732  (-0.012024  0.067552 -0.004926)
 33:    397.99   0.000007    0.04  0.000005  (-0.001372  0.001294 -0.001376)
 34:    443.76   0.002340   11.82  0.001645  ( 0.037144  0.015779 -0.004077)
 35:    473.20   0.003160   15.97  0.002084  (-0.044395  0.009476  0.004809)
 36:    486.95   0.001549    7.83  0.000993  (-0.024999  0.002078 -0.019066)
 37:    504.26   0.001177    5.95  0.000729  ( 0.022020 -0.015604 -0.000559)
 38:    543.55   0.000195    0.98  0.000112  ( 0.004159  0.002689  0.009338)
 39:    558.45   0.001687    8.53  0.000943  (-0.001353  0.029021 -0.009933)
 40:    586.27   0.003634   18.37  0.001935  (-0.009295 -0.023992 -0.035672)
 41:    596.15   0.001367    6.91  0.000716  ( 0.019594 -0.017389  0.005421)
 42:    615.62   0.002742   13.86  0.001390  (-0.031927 -0.003226 -0.018985)
 43:    632.25   0.006055   30.60  0.002989  ( 0.000094  0.051972 -0.016953)
 44:    637.07   0.003443   17.40  0.001686  ( 0.025076 -0.031713  0.007207)
 45:    659.90   0.000125    0.63  0.000059  (-0.004910  0.005737 -0.001392)
 46:    711.10   0.002391   12.08  0.001049  (-0.025484  0.019193 -0.005594)
 47:    714.02   0.026103  131.91  0.011408  ( 0.036416  0.097739 -0.023006)
 48:    737.34   0.003562   18.00  0.001508  (-0.031025 -0.012480 -0.019732)
 49:    754.32   0.004921   24.87  0.002036  (-0.018298 -0.034580 -0.022473)
 50:    767.84   0.013190   66.65  0.005360  (-0.034927  0.055812 -0.032024)
 51:    773.48   0.010263   51.87  0.004141  ( 0.011525  0.053505 -0.033840)
 52:    777.09   0.002639   13.34  0.001060  ( 0.007640  0.030937 -0.006653)
 53:    782.65   0.008681   43.87  0.003461  ( 0.020689 -0.054741 -0.006046)
 54:    809.15   0.004627   23.39  0.001785  (-0.013459 -0.008818 -0.039061)
 55:    837.68   0.001114    5.63  0.000415  (-0.001744  0.014468 -0.014240)
 56:    874.16   0.002304   11.65  0.000823  (-0.000204 -0.027942  0.006471)
 57:    891.86   0.004928   24.90  0.001724  (-0.017880 -0.036969  0.006149)
 58:    895.18   0.000051    0.26  0.000018  ( 0.001771  0.003018 -0.002383)
 59:    962.54   0.001053    5.32  0.000341  ( 0.010327  0.000616  0.015306)
 60:    969.01   0.001825    9.22  0.000588  ( 0.006447  0.022451  0.006490)
 61:    981.37   0.000313    1.58  0.000099  ( 0.006076  0.007701 -0.001789)
 62:    995.81   0.000039    0.20  0.000012  ( 0.000277  0.003334  0.001050)
 63:   1016.80   0.000058    0.29  0.000018  (-0.000473  0.002379 -0.003468)
 64:   1030.83   0.007351   37.15  0.002225  (-0.038873  0.001455 -0.026688)
 65:   1041.99   0.000182    0.92  0.000054  ( 0.000988 -0.007081 -0.001835)
 66:   1042.84   0.010323   52.17  0.003089  ( 0.013800 -0.052912 -0.009954)
 67:   1059.85   0.000180    0.91  0.000053  (-0.001344  0.001820  0.006915)
 68:   1071.09   0.008789   44.42  0.002561  (-0.047968 -0.007367  0.014334)
 69:   1084.07   0.008534   43.13  0.002457  ( 0.021945 -0.005447 -0.044107)
 70:   1095.36   0.010981   55.49  0.003128  (-0.034790  0.043303 -0.006552)
 71:   1106.96   0.001170    5.91  0.000330  (-0.008386 -0.014147 -0.007711)
 72:   1111.47   0.002878   14.54  0.000808  (-0.011296 -0.008474  0.024670)
 73:   1136.44   0.011880   60.04  0.003262  (-0.025071  0.050630  0.008383)
 74:   1151.86   0.080338  406.00  0.021765  ( 0.056828  0.097983 -0.094526)
 75:   1168.02   0.000699    3.53  0.000187  ( 0.004181  0.005261  0.011897)
 76:   1170.99   0.000238    1.20  0.000063  (-0.003503  0.006356 -0.003269)
 77:   1172.18   0.000378    1.91  0.000101  (-0.008843  0.004112  0.002324)
 78:   1175.96   0.002523   12.75  0.000670  (-0.019571 -0.004016  0.016446)
 79:   1193.71   0.005587   28.23  0.001461  (-0.021611 -0.027389  0.015599)
 80:   1198.67   0.013412   67.78  0.003492  (-0.029252 -0.051338 -0.000681)
 81:   1214.36   0.001384    6.99  0.000356  ( 0.017567 -0.004955 -0.004747)
 82:   1222.15   0.009592   48.47  0.002449  ( 0.029691  0.039585  0.000794)
 83:   1237.20   0.004854   24.53  0.001224  (-0.021853  0.027298 -0.001273)
 84:   1241.28   0.025466  128.69  0.006402  ( 0.040414  0.056180 -0.040158)
 85:   1271.72   0.029039  146.75  0.007126  ( 0.062690  0.037329 -0.042454)
 86:   1290.42   0.083809  423.54  0.020268  (-0.029363 -0.133762  0.038900)
 87:   1303.84   0.064497  325.94  0.015437  ( 0.046191 -0.025510 -0.112484)
 88:   1321.61   0.018618   94.09  0.004396  (-0.012522  0.063722  0.013373)
 89:   1332.54   0.026265  132.73  0.006151  ( 0.052360 -0.056375  0.015204)
 90:   1340.36   0.001396    7.06  0.000325  ( 0.002798 -0.002333 -0.017659)
 91:   1380.66   0.017630   89.09  0.003985  (-0.055762 -0.003809  0.029342)
 92:   1386.74   0.002171   10.97  0.000489  (-0.000403 -0.003654  0.021797)
 93:   1417.03   0.047090  237.97  0.010370  ( 0.079529 -0.062644  0.011005)
 94:   1429.60   0.014516   73.36  0.003169  (-0.000711  0.055869 -0.006837)
 95:   1465.69   0.003582   18.10  0.000763  (-0.022452  0.015730  0.003341)
 96:   1466.40   0.006057   30.61  0.001289  ( 0.003435  0.015482  0.032210)
 97:   1472.31   0.006070   30.68  0.001287  ( 0.016102  0.022283 -0.023038)
 98:   1473.97   0.002992   15.12  0.000633  (-0.003083  0.023767 -0.007686)
 99:   1480.95   0.017075   86.29  0.003598  ( 0.043853  0.039769  0.009661)
100:   1482.72   0.004776   24.14  0.001005  (-0.003264 -0.011716 -0.029280)
101:   1492.43   0.016317   82.46  0.003412  ( 0.001731  0.001951 -0.058352)
102:   1499.02   0.012693   64.14  0.002642  ( 0.015211 -0.018847 -0.045340)
103:   1528.14   0.000774    3.91  0.000158  (-0.012339  0.002274  0.000791)
104:   1539.01   0.041050  207.45  0.008324  (-0.028156  0.031338  0.080925)
105:   1570.13   0.207919  1050.74  0.041324  ( 0.180223  0.037165 -0.086383)
106:   1647.92   0.001715    8.67  0.000325  ( 0.000161 -0.002357 -0.017867)
107:   1650.05   0.002838   14.34  0.000537  (-0.015197  0.006962  0.016040)
108:   1664.66   0.011880   60.04  0.002227  (-0.037072  0.027071  0.010951)
109:   1665.08   0.012090   61.10  0.002266  ( 0.011731  0.016354  0.043138)
110:   1787.90   0.089629  452.95  0.015644  ( 0.017908 -0.023514  0.121534)
111:   2319.54   0.057805  292.12  0.007777  (-0.017462 -0.064610  0.057424)
112:   3037.99   0.011874   60.01  0.001220  (-0.028323  0.004119  0.020014)
113:   3074.67   0.005323   26.90  0.000540  (-0.013797 -0.017932 -0.005325)
114:   3110.41   0.007558   38.19  0.000758  ( 0.002652 -0.024224  0.012821)
115:   3114.15   0.001071    5.41  0.000107  (-0.005907 -0.005127  0.006790)
116:   3159.67   0.003434   17.35  0.000339  (-0.015291  0.009804  0.003037)
117:   3166.68   0.003578   18.08  0.000353  (-0.005114 -0.008431 -0.015981)
118:   3181.09   0.000905    4.57  0.000089  (-0.009088 -0.001614  0.001889)
119:   3194.56   0.001869    9.45  0.000183  (-0.002519 -0.006803  0.011401)
120:   3196.92   0.001241    6.27  0.000121  (-0.010289 -0.003383 -0.001947)
121:   3200.68   0.000583    2.95  0.000057  ( 0.005657 -0.003212  0.003813)
122:   3204.80   0.000777    3.93  0.000076  (-0.007929  0.003557 -0.000380)
123:   3212.63   0.000031    0.16  0.000003  ( 0.000588 -0.000813 -0.001419)
124:   3215.72   0.002518   12.73  0.000244  ( 0.002199  0.006948  0.013830)
125:   3230.17   0.000165    0.83  0.000016  (-0.000510 -0.000187 -0.003951)
126:   3231.65   0.000273    1.38  0.000026  (-0.004603 -0.000324  0.002243)
127:   3234.37   0.000295    1.49  0.000028  (-0.004319  0.003136  0.000031)
128:   3279.21   0.000299    1.51  0.000028  (-0.002461  0.001600  0.004450)

* The epsilon (eps) is given for a Dirac delta lineshape.
** The dipole moment derivative (T) already includes vibrational overlap.

The first frequency considered to be a vibration is 7
The total number of vibrations considered is 122


--------------------------
THERMOCHEMISTRY AT 298.15K
--------------------------

Temperature         ... 298.15 K
Pressure            ... 1.00 atm
Total Mass          ... 355.35 AMU

Throughout the following assumptions are being made:
  (1) The electronic state is orbitally nondegenerate
  (2) There are no thermally accessible electronically excited states
  (3) Hindered rotations indicated by low frequency modes are not
      treated as such but are treated as vibrations and this may
      cause some error
  (4) All equations used are the standard statistical mechanics
      equations for an ideal gas
  (5) All vibrations are strictly harmonic

freq.      18.08  E(vib)   ...       0.57 
freq.      31.57  E(vib)   ...       0.55 
freq.      40.29  E(vib)   ...       0.54 
freq.      53.31  E(vib)   ...       0.52 
freq.      53.62  E(vib)   ...       0.52 
freq.      64.05  E(vib)   ...       0.51 
freq.      73.30  E(vib)   ...       0.49 
freq.      79.37  E(vib)   ...       0.49 
freq.      98.56  E(vib)   ...       0.46 
freq.     104.37  E(vib)   ...       0.46 
freq.     125.72  E(vib)   ...       0.43 
freq.     145.88  E(vib)   ...       0.41 
freq.     151.77  E(vib)   ...       0.40 
freq.     157.38  E(vib)   ...       0.40 
freq.     166.72  E(vib)   ...       0.39 
freq.     180.79  E(vib)   ...       0.37 
freq.     192.79  E(vib)   ...       0.36 
freq.     210.40  E(vib)   ...       0.34 
freq.     233.38  E(vib)   ...       0.32 
freq.     244.67  E(vib)   ...       0.31 
freq.     262.99  E(vib)   ...       0.29 
freq.     270.80  E(vib)   ...       0.29 
freq.     289.21  E(vib)   ...       0.27 
freq.     318.84  E(vib)   ...       0.25 
freq.     331.18  E(vib)   ...       0.24 
freq.     371.33  E(vib)   ...       0.21 
freq.     397.99  E(vib)   ...       0.20 
freq.     443.76  E(vib)   ...       0.17 
freq.     473.20  E(vib)   ...       0.15 
freq.     486.95  E(vib)   ...       0.15 
freq.     504.26  E(vib)   ...       0.14 
freq.     543.55  E(vib)   ...       0.12 
freq.     558.45  E(vib)   ...       0.12 
freq.     586.27  E(vib)   ...       0.11 
freq.     596.15  E(vib)   ...       0.10 
freq.     615.62  E(vib)   ...       0.10 
freq.     632.25  E(vib)   ...       0.09 
freq.     637.07  E(vib)   ...       0.09 
freq.     659.90  E(vib)   ...       0.08 
freq.     711.10  E(vib)   ...       0.07 
freq.     714.02  E(vib)   ...       0.07 
freq.     737.34  E(vib)   ...       0.06 
freq.     754.32  E(vib)   ...       0.06 
freq.     767.84  E(vib)   ...       0.06 
freq.     773.48  E(vib)   ...       0.05 
freq.     777.09  E(vib)   ...       0.05 
freq.     782.65  E(vib)   ...       0.05 
freq.     809.15  E(vib)   ...       0.05 
freq.     837.68  E(vib)   ...       0.04 
freq.     874.16  E(vib)   ...       0.04 
freq.     891.86  E(vib)   ...       0.03 
freq.     895.18  E(vib)   ...       0.03 
freq.     962.54  E(vib)   ...       0.03 
freq.     969.01  E(vib)   ...       0.03 
freq.     981.37  E(vib)   ...       0.02 
freq.     995.81  E(vib)   ...       0.02 
freq.    1016.80  E(vib)   ...       0.02 
freq.    1030.83  E(vib)   ...       0.02 
freq.    1041.99  E(vib)   ...       0.02 
freq.    1042.84  E(vib)   ...       0.02 
freq.    1059.85  E(vib)   ...       0.02 
freq.    1071.09  E(vib)   ...       0.02 
freq.    1084.07  E(vib)   ...       0.02 
freq.    1095.36  E(vib)   ...       0.02 
freq.    1106.96  E(vib)   ...       0.02 
freq.    1111.47  E(vib)   ...       0.01 
freq.    1136.44  E(vib)   ...       0.01 
freq.    1151.86  E(vib)   ...       0.01 
freq.    1168.02  E(vib)   ...       0.01 
freq.    1170.99  E(vib)   ...       0.01 
freq.    1172.18  E(vib)   ...       0.01 
freq.    1175.96  E(vib)   ...       0.01 
freq.    1193.71  E(vib)   ...       0.01 
freq.    1198.67  E(vib)   ...       0.01 
freq.    1214.36  E(vib)   ...       0.01 
freq.    1222.15  E(vib)   ...       0.01 
freq.    1237.20  E(vib)   ...       0.01 
freq.    1241.28  E(vib)   ...       0.01 
freq.    1271.72  E(vib)   ...       0.01 
freq.    1290.42  E(vib)   ...       0.01 
freq.    1303.84  E(vib)   ...       0.01 
freq.    1321.61  E(vib)   ...       0.01 
freq.    1332.54  E(vib)   ...       0.01 
freq.    1340.36  E(vib)   ...       0.01 
freq.    1380.66  E(vib)   ...       0.01 
freq.    1386.74  E(vib)   ...       0.00 
freq.    1417.03  E(vib)   ...       0.00 
freq.    1429.60  E(vib)   ...       0.00 
freq.    1465.69  E(vib)   ...       0.00 
freq.    1466.40  E(vib)   ...       0.00 
freq.    1472.31  E(vib)   ...       0.00 
freq.    1473.97  E(vib)   ...       0.00 
freq.    1480.95  E(vib)   ...       0.00 
freq.    1482.72  E(vib)   ...       0.00 
freq.    1492.43  E(vib)   ...       0.00 
freq.    1499.02  E(vib)   ...       0.00 
freq.    1528.14  E(vib)   ...       0.00 
freq.    1539.01  E(vib)   ...       0.00 
freq.    1570.13  E(vib)   ...       0.00 
freq.    1647.92  E(vib)   ...       0.00 
freq.    1650.05  E(vib)   ...       0.00 
freq.    1664.66  E(vib)   ...       0.00 
freq.    1665.08  E(vib)   ...       0.00 
freq.    1787.90  E(vib)   ...       0.00 
freq.    2319.54  E(vib)   ...       0.00 
freq.    3037.99  E(vib)   ...       0.00 
freq.    3074.67  E(vib)   ...       0.00 
freq.    3110.41  E(vib)   ...       0.00 
freq.    3114.15  E(vib)   ...       0.00 
freq.    3159.67  E(vib)   ...       0.00 
freq.    3166.68  E(vib)   ...       0.00 
freq.    3181.09  E(vib)   ...       0.00 
freq.    3194.56  E(vib)   ...       0.00 
freq.    3196.92  E(vib)   ...       0.00 
freq.    3200.68  E(vib)   ...       0.00 
freq.    3204.80  E(vib)   ...       0.00 
freq.    3212.63  E(vib)   ...       0.00 
freq.    3215.72  E(vib)   ...       0.00 
freq.    3230.17  E(vib)   ...       0.00 
freq.    3231.65  E(vib)   ...       0.00 
freq.    3234.37  E(vib)   ...       0.00 
freq.    3279.21  E(vib)   ...       0.00 

------------
INNER ENERGY
------------

The inner energy is: U= E(el) + E(ZPE) + E(vib) + E(rot) + E(trans)
    E(el)   - is the total energy from the electronic structure calculation
              = E(kin-el) + E(nuc-el) + E(el-el) + E(nuc-nuc)
    E(ZPE)  - the the zero temperature vibrational energy from the frequency calculation
    E(vib)  - the the finite temperature correction to E(ZPE) due to population
              of excited vibrational states
    E(rot)  - is the rotational thermal energy
    E(trans)- is the translational thermal energy

Summary of contributions to the inner energy U:
Electronic energy                ...  -1235.49062359 Eh
Zero point energy                ...      0.33104131 Eh     207.73 kcal/mol
Thermal vibrational correction   ...      0.02097125 Eh      13.16 kcal/mol
Thermal rotational correction    ...      0.00141627 Eh       0.89 kcal/mol
Thermal translational correction ...      0.00141627 Eh       0.89 kcal/mol
-----------------------------------------------------------------------
Total thermal energy                  -1235.13577849 Eh


Summary of corrections to the electronic energy:
(perhaps to be used in another calculation)
Total thermal correction                  0.02380380 Eh      14.94 kcal/mol
Non-thermal (ZPE) correction              0.33104131 Eh     207.73 kcal/mol
-----------------------------------------------------------------------
Total correction                          0.35484511 Eh     222.67 kcal/mol


--------
ENTHALPY
--------

The enthalpy is H = U + kB*T
                kB is Boltzmann's constant
Total free energy                 ...  -1235.13577849 Eh 
Thermal Enthalpy correction       ...      0.00094421 Eh       0.59 kcal/mol
-----------------------------------------------------------------------
Total Enthalpy                    ...  -1235.13483428 Eh


Note: Only C1 symmetry has been detected, increase convergence thresholds 
      if your molecule has a higher symmetry. Symmetry factor of 1.0 is   
      used for the rotational entropy correction. 
 

Note: Rotational entropy computed according to Herzberg 
Infrared and Raman Spectra, Chapter V,1, Van Nostrand Reinhold, 1945 
Point Group:  C1, Symmetry Number:   1  
Rotational constants in cm-1:     0.008427     0.007393     0.005103 

Vibrational entropy computed according to the QRRHO of S. Grimme
Chem.Eur.J. 2012 18 9955


-------
ENTROPY
-------

The entropy contributions are T*S = T*(S(el)+S(vib)+S(rot)+S(trans))
     S(el)   - electronic entropy
     S(vib)  - vibrational entropy
     S(rot)  - rotational entropy
     S(trans)- translational entropy
The entropies will be listed as multiplied by the temperature to get
units of energy

Electronic entropy                ...      0.00000000 Eh      0.00 kcal/mol
Vibrational entropy               ...      0.03802435 Eh     23.86 kcal/mol
Rotational entropy                ...      0.01657403 Eh     10.40 kcal/mol
Translational entropy             ...      0.02066698 Eh     12.97 kcal/mol
-----------------------------------------------------------------------
Final entropy term                ...      0.07526536 Eh     47.23 kcal/mol

In case the symmetry of your molecule has not been determined correctly
or in case you have a reason to use a different symmetry number we print 
out the resulting rotational entropy values for sn=1,12 :
 --------------------------------------------------------
|  sn= 1 | S(rot)=       0.01657403 Eh     10.40 kcal/mol|
|  sn= 2 | S(rot)=       0.01591957 Eh      9.99 kcal/mol|
|  sn= 3 | S(rot)=       0.01553674 Eh      9.75 kcal/mol|
|  sn= 4 | S(rot)=       0.01526511 Eh      9.58 kcal/mol|
|  sn= 5 | S(rot)=       0.01505443 Eh      9.45 kcal/mol|
|  sn= 6 | S(rot)=       0.01488228 Eh      9.34 kcal/mol|
|  sn= 7 | S(rot)=       0.01473674 Eh      9.25 kcal/mol|
|  sn= 8 | S(rot)=       0.01461066 Eh      9.17 kcal/mol|
|  sn= 9 | S(rot)=       0.01449945 Eh      9.10 kcal/mol|
|  sn=10 | S(rot)=       0.01439997 Eh      9.04 kcal/mol|
|  sn=11 | S(rot)=       0.01430998 Eh      8.98 kcal/mol|
|  sn=12 | S(rot)=       0.01422783 Eh      8.93 kcal/mol|
 --------------------------------------------------------


-------------------
GIBBS FREE ENERGY
-------------------

The Gibbs free energy is G = H - T*S

Total enthalpy                    ...  -1235.13483428 Eh 
Total entropy correction          ...     -0.07526536 Eh    -47.23 kcal/mol
-----------------------------------------------------------------------
Final Gibbs free energy         ...  -1235.21009963 Eh

For completeness - the Gibbs free energy minus the electronic energy
G-E(el)                           ...      0.28052396 Eh    176.03 kcal/mol


Timings for individual modules:

Sum of individual times         ...    10045.841 sec (= 167.431 min)
GTO integral calculation        ...      103.345 sec (=   1.722 min)   1.0 %
SCF iterations                  ...     5109.130 sec (=  85.152 min)  50.9 %
SCF Gradient evaluation         ...     1391.271 sec (=  23.188 min)  13.8 %
Geometry relaxation             ...        7.612 sec (=   0.127 min)   0.1 %
Analytical frequency calculation...     3434.482 sec (=  57.241 min)  34.2 %
                             ****ORCA TERMINATED NORMALLY****
TOTAL RUN TIME: 0 days 2 hours 49 minutes 14 seconds 617 msec
