
                                 *****************
                                 * O   R   C   A *
                                 *****************

                                            #,                                       
                                            ###                                      
                                            ####                                     
                                            #####                                    
                                            ######                                   
                                           ########,                                 
                                     ,,################,,,,,                         
                               ,,#################################,,                 
                          ,,##########################################,,             
                       ,#########################################, ''#####,          
                    ,#############################################,,   '####,        
                  ,##################################################,,,,####,       
                ,###########''''           ''''###############################       
              ,#####''   ,,,,##########,,,,          '''####'''          '####       
            ,##' ,,,,###########################,,,                        '##       
           ' ,,###''''                  '''############,,,                           
         ,,##''                                '''############,,,,        ,,,,,,###''
      ,#''                                            '''#######################'''  
     '                                                          ''''####''''         
             ,#######,   #######,   ,#######,      ##                                
            ,#'     '#,  ##    ##  ,#'     '#,    #''#        ######   ,####,        
            ##       ##  ##   ,#'  ##            #'  '#       #        #'  '#        
            ##       ##  #######   ##           ,######,      #####,   #    #        
            '#,     ,#'  ##    ##  '#,     ,#' ,#      #,         ##   #,  ,#        
             '#######'   ##     ##  '#######'  #'      '#     #####' # '####'        



                  #######################################################
                  #                        -***-                        #
                  #          Department of theory and spectroscopy      #
                  #    Directorship and core code : Frank Neese         #
                  #        Max Planck Institute fuer Kohlenforschung    #
                  #                Kaiser Wilhelm Platz 1               #
                  #                 D-45470 Muelheim/Ruhr               #
                  #                      Germany                        #
                  #                                                     #
                  #                  All rights reserved                #
                  #                        -***-                        #
                  #######################################################


                         Program Version 5.0.4 -  RELEASE  -


 With contributions from (in alphabetic order):
   Daniel Aravena         : Magnetic Suceptibility
   Michael Atanasov       : Ab Initio Ligand Field Theory (pilot matlab implementation)
   Alexander A. Auer      : GIAO ZORA, VPT2 properties, NMR spectrum
   Ute Becker             : Parallelization
   Giovanni Bistoni       : ED, misc. LED, open-shell LED, HFLD
   Martin Brehm           : Molecular dynamics
   Dmytro Bykov           : SCF Hessian
   Vijay G. Chilkuri      : MRCI spin determinant printing, contributions to CSF-ICE
   Dipayan Datta          : RHF DLPNO-CCSD density
   Achintya Kumar Dutta   : EOM-CC, STEOM-CC
   Dmitry Ganyushin       : Spin-Orbit,Spin-Spin,Magnetic field MRCI
   Miquel Garcia          : C-PCM and meta-GGA Hessian, CC/C-PCM, Gaussian charge scheme
   Yang Guo               : DLPNO-NEVPT2, F12-NEVPT2, CIM, IAO-localization
   Andreas Hansen         : Spin unrestricted coupled pair/coupled cluster methods
   Benjamin Helmich-Paris : MC-RPA, TRAH-SCF, COSX integrals
   Lee Huntington         : MR-EOM, pCC
   Robert Izsak           : Overlap fitted RIJCOSX, COSX-SCS-MP3, EOM
   Marcus Kettner         : VPT2
   Christian Kollmar      : KDIIS, OOCD, Brueckner-CCSD(T), CCSD density, CASPT2, CASPT2-K
   Simone Kossmann        : Meta GGA functionals, TD-DFT gradient, OOMP2, MP2 Hessian
   Martin Krupicka        : Initial AUTO-CI
   Lucas Lang             : DCDCAS
   Marvin Lechner         : AUTO-CI (C++ implementation), FIC-MRCC
   Dagmar Lenk            : GEPOL surface, SMD
   Dimitrios Liakos       : Extrapolation schemes; Compound Job, initial MDCI parallelization
   Dimitrios Manganas     : Further ROCIS development; embedding schemes
   Dimitrios Pantazis     : SARC Basis sets
   Anastasios Papadopoulos: AUTO-CI, single reference methods and gradients
   Taras Petrenko         : DFT Hessian,TD-DFT gradient, ASA, ECA, R-Raman, ABS, FL, XAS/XES, NRVS
   Peter Pinski           : DLPNO-MP2, DLPNO-MP2 Gradient
   Christoph Reimann      : Effective Core Potentials
   Marius Retegan         : Local ZFS, SOC
   Christoph Riplinger    : Optimizer, TS searches, QM/MM, DLPNO-CCSD(T), (RO)-DLPNO pert. Triples
   Tobias Risthaus        : Range-separated hybrids, TD-DFT gradient, RPA, STAB
   Michael Roemelt        : Original ROCIS implementation
   Masaaki Saitow         : Open-shell DLPNO-CCSD energy and density
   Barbara Sandhoefer     : DKH picture change effects
   Avijit Sen             : IP-ROCIS
   Kantharuban Sivalingam : CASSCF convergence, NEVPT2, FIC-MRCI
   Bernardo de Souza      : ESD, SOC TD-DFT
   Georgi Stoychev        : AutoAux, RI-MP2 NMR, DLPNO-MP2 response
   Willem Van den Heuvel  : Paramagnetic NMR
   Boris Wezisla          : Elementary symmetry handling
   Frank Wennmohs         : Technical directorship


 We gratefully acknowledge several colleagues who have allowed us to
 interface, adapt or use parts of their codes:
   Stefan Grimme, W. Hujo, H. Kruse, P. Pracht,  : VdW corrections, initial TS optimization,
                  C. Bannwarth, S. Ehlert          DFT functionals, gCP, sTDA/sTD-DF
   Ed Valeev, F. Pavosevic, A. Kumar             : LibInt (2-el integral package), F12 methods
   Garnet Chan, S. Sharma, J. Yang, R. Olivares  : DMRG
   Ulf Ekstrom                                   : XCFun DFT Library
   Mihaly Kallay                                 : mrcc  (arbitrary order and MRCC methods)
   Jiri Pittner, Ondrej Demel                    : Mk-CCSD
   Frank Weinhold                                : gennbo (NPA and NBO analysis)
   Christopher J. Cramer and Donald G. Truhlar   : smd solvation model
   Lars Goerigk                                  : TD-DFT with DH, B97 family of functionals
   V. Asgeirsson, H. Jonsson                     : NEB implementation
   FAccTs GmbH                                   : IRC, NEB, NEB-TS, DLPNO-Multilevel, CI-OPT
                                                   MM, QMMM, 2- and 3-layer-ONIOM, Crystal-QMMM,
                                                   LR-CPCM, SF, NACMEs, symmetry and pop. for TD-DFT,
                                                   nearIR, NL-DFT gradient (VV10), updates on ESD,
                                                   ML-optimized integration grids
   S Lehtola, MJT Oliveira, MAL Marques          : LibXC Library
   Liviu Ungur et al                             : ANISO software


 Your calculation uses the libint2 library for the computation of 2-el integrals
 For citations please refer to: http://libint.valeyev.net

 Your ORCA version has been built with support for libXC version: 5.1.0
 For citations please refer to: https://tddft.org/programs/libxc/

 This ORCA versions uses:
   CBLAS   interface :  Fast vector & matrix operations
   LAPACKE interface :  Fast linear algebra routines
   SCALAPACK package :  Parallel linear algebra routines
   Shared memory     :  Shared parallel matrices
   BLAS/LAPACK       :  OpenBLAS 0.3.15  USE64BITINT DYNAMIC_ARCH NO_AFFINITY Haswell SINGLE_THREADED
        Core in use  :  Haswell
   Copyright (c) 2011-2014, The OpenBLAS Project


Your calculation utilizes the atom-pairwise dispersion correction
with the Becke-Johnson damping scheme (D3BJ)
Cite in your paper:
S.Grimme, S.Ehrlich, L.Goerigk, J Comput Chem, (2011), 32, 1456–1465 
S.Grimme, J.Antony, S.Ehrlich and H.Krieg, J.Chem.Phys., 132, (2010), 154104 
   

================================================================================

----- Orbital basis set information -----
Your calculation utilizes the basis: def2-TZVP
   F. Weigend and R. Ahlrichs, Phys. Chem. Chem. Phys. 7, 3297 (2005).

----- AuxJ basis set information -----
Your calculation utilizes the auxiliary basis: def2/J
   F. Weigend, Phys. Chem. Chem. Phys. 8, 1057 (2006).

================================================================================
                                        WARNINGS
                       Please study these warnings very carefully!
================================================================================


WARNING: Geometry Optimization
  ===> : Switching off AutoStart
         For restart on a previous wavefunction, please use MOREAD

INFO   : the flag for use of the SHARK integral package has been found!

================================================================================
                                       INPUT FILE
================================================================================
NAME = TS2_NO2/TS2_NO2.inp
|  1> %pal nprocs 24 end
|  2> ! PBE0 D3BJ def2-TZVP TightSCF OPTTS FREQ TightOpt
|  3> ! CPCM(dmso)
|  4> %scf
|  5> MaxIter 800
|  6> end
|  7> 
|  8> %geom
|  9> MaxIter 800
| 10> MaxStep 0.15
| 11> end
| 12> 
| 13> *xyz 0 1
| 14> C      -4.01837100      1.77240300      0.28430100
| 15> C      -3.09177300      1.97618000      1.30464100
| 16> C      -1.74367700      1.77824700      1.02816400
| 17> N      -1.32674100      1.41491800     -0.18360300
| 18> C      -2.20005200      1.22018200     -1.17023100
| 19> C      -3.56647600      1.38756300     -0.97691600
| 20> C       0.63906900      0.94811700     -0.65033500
| 21> C       1.07164300      2.22723300     -0.00308300
| 22> O       1.39896200      2.30203200      1.15730500
| 23> O       1.03923000      3.23557600     -0.85178700
| 24> C       1.42593700      4.50881500     -0.33931500
| 25> H      -5.08602500      1.91059500      0.47061700
| 26> H      -0.97509300      1.91530000      1.79496600
| 27> H      -1.79540100      0.91127200     -2.13900500
| 28> H      -4.25795400      1.21493300     -1.80330800
| 29> H       0.29853400      0.96907500     -1.68212100
| 30> H       1.34214700      5.21058200     -1.17571700
| 31> H       2.46052600      4.47524900      0.03002200
| 32> C       2.05896400     -0.76344900      0.30076600
| 33> C       0.63516500     -0.33546700      0.16118800
| 34> C      -0.24621200     -1.39400900     -0.47193400
| 35> C       0.08714900     -1.94341200     -1.70881200
| 36> C      -0.73313800     -2.88657700     -2.32776500
| 37> C      -1.90647400     -3.28393800     -1.69101700
| 38> C      -2.26010900     -2.75108200     -0.45118700
| 39> C      -1.43288200     -1.80480000      0.16608800
| 40> O      -1.70675200     -1.23611600      1.35480100
| 41> C      -2.91566300     -1.54396800      2.00795900
| 42> N       2.93802400     -0.20179200     -0.54931300
| 43> O       4.12271300     -0.43778800     -0.67140000
| 44> H       0.25267200     -0.11177400      1.16505100
| 45> H       1.00835700     -1.61749500     -2.20083900
| 46> H      -0.45694500     -3.30421000     -3.29821100
| 47> H      -2.56374900     -4.02086300     -2.15956100
| 48> H      -3.18248000     -3.07571700      0.03089100
| 49> H      -2.93640100     -0.93869400      2.92228600
| 50> H      -2.96803400     -2.61161700      2.27779200
| 51> H      -3.78644500     -1.28320400      1.38414300
| 52> O       2.39603100      0.70099300     -1.31616700
| 53> H       0.75719500      4.80953900      0.47971400
| 54> H      -3.40268300      2.27736300      2.30641500
| 55> N       2.42839100     -1.73640200      1.23490500
| 56> O       3.59021200     -2.09549100      1.34548300
| 57> O       1.51271100     -2.18383400      1.92316700
| 58> *
| 59> 
| 60>                          ****END OF INPUT****
================================================================================

                       *****************************
                       * Geometry Optimization Run *
                       *****************************

Geometry optimization settings:
Update method            Update   .... Bofill
Choice of coordinates    CoordSys .... Z-matrix Internals
Initial Hessian          InHess   .... Almoef's Model

Convergence Tolerances:
Energy Change            TolE     ....  1.0000e-06 Eh
Max. Gradient            TolMAXG  ....  1.0000e-04 Eh/bohr
RMS Gradient             TolRMSG  ....  3.0000e-05 Eh/bohr
Max. Displacement        TolMAXD  ....  1.0000e-03 bohr
RMS Displacement         TolRMSD  ....  6.0000e-04 bohr
Strict Convergence                ....  False
------------------------------------------------------------------------------
                        ORCA OPTIMIZATION COORDINATE SETUP
------------------------------------------------------------------------------

The optimization will be done in new redundant internal coordinates
Making redundant internal coordinates   ...  (new redundants) done
Following TS mode number                ...     0
Evaluating the initial hessian          ...  (Almloef) done
Evaluating the coordinates              ...  done
Calculating the B-matrix                .... done
Calculating the G-matrix                .... done
Diagonalizing the G-matrix              .... done
Small eigenvalue found = 4.864e-03
Small eigenvalue found = 1.198e-02
Small eigenvalue found = 1.790e-02
Small eigenvalue found = 2.020e-02
Small eigenvalue found = 2.775e-02
The first mode is                       ....  184
The number of degrees of freedom        ....  126

    -----------------------------------------------------------------
                    Redundant Internal Coordinates


    -----------------------------------------------------------------
         Definition                    Initial Value    Approx d2E/dq
    -----------------------------------------------------------------
      1. B(C   1,C   0)                  1.3933         0.617335   
      2. B(C   2,C   1)                  1.3903         0.624071   
      3. B(N   3,C   2)                  1.3320         0.692487   
      4. B(C   4,N   3)                  1.3319         0.692672   
      5. B(C   5,C   0)                  1.3939         0.615891   
      6. B(C   5,C   4)                  1.3901         0.624465   
      7. B(C   6,N   3)                  2.0737         0.045405   
      8. B(C   7,C   6)                  1.4974         0.421110   
      9. B(C   7,N   3)                  2.5386         0.008228   
     10. B(O   8,C   7)                  1.2080         1.092107   
     11. B(O   9,C   7)                  1.3184         0.728037   
     12. B(C  10,O   9)                  1.4259         0.490381   
     13. B(H  11,C   0)                  1.0926         0.356724   
     14. B(H  12,C   2)                  1.0943         0.354458   
     15. B(H  12,O   8)                  2.4884         0.001894   
     16. B(H  13,C   4)                  1.0944         0.354338   
     17. B(H  14,C   5)                  1.0913         0.358426   
     18. B(H  15,C   6)                  1.0867         0.364450   
     19. B(H  15,H  13)                  2.1440         0.001435   
     20. B(H  15,C   4)                  2.5628         0.001609   
     21. B(H  15,N   3)                  2.2552         0.004463   
     22. B(H  16,C  10)                  1.0950         0.353522   
     23. B(H  17,C  10)                  1.0990         0.348325   
     24. B(C  19,C  18)                  1.4933         0.427542   
     25. B(C  19,C   6)                  1.5186         0.389539   
     26. B(C  19,N   3)                  2.6518         0.005430   
     27. B(C  20,C  19)                  1.5160         0.393327   
     28. B(C  21,C  20)                  1.3939         0.616004   
     29. B(C  22,C  21)                  1.3948         0.613822   
     30. B(C  23,C  22)                  1.3929         0.618265   
     31. B(C  24,C  23)                  1.3951         0.613306   
     32. B(C  25,C  24)                  1.4003         0.601642   
     33. B(C  25,C  20)                  1.4085         0.583642   
     34. B(O  26,C  25)                  1.3459         0.658014   
     35. B(C  27,O  26)                  1.4081         0.523524   
     36. B(N  28,C  18)                  1.3457         0.658558   
     37. B(O  29,N  28)                  1.2141         0.956352   
     38. B(H  30,C  19)                  1.0973         0.350564   
     39. B(H  30,H  12)                  2.4522         0.000463   
     40. B(H  30,N   3)                  2.5776         0.001365   
     41. B(H  31,C  21)                  1.0940         0.354787   
     42. B(H  32,C  22)                  1.0920         0.357463   
     43. B(H  33,C  23)                  1.0930         0.356181   
     44. B(H  34,C  24)                  1.0902         0.359824   
     45. B(H  35,C  27)                  1.0967         0.351327   
     46. B(H  36,C  27)                  1.1025         0.343983   
     47. B(H  37,C  27)                  1.1025         0.343996   
     48. B(O  38,N  28)                  1.3026         0.690887   
     49. B(O  38,C   6)                  1.8951         0.087510   
     50. B(H  39,C  10)                  1.0993         0.348006   
     51. B(H  40,C   1)                  1.0913         0.358389   
     52. B(N  41,C  18)                  1.3985         0.542445   
     53. B(O  42,N  41)                  1.2211         0.932260   
     54. B(O  43,N  41)                  1.2298         0.902872   
     55. A(C   1,C   0,C   5)          119.1696         0.433211   
     56. A(C   5,C   0,H  11)          120.3991         0.351951   
     57. A(C   1,C   0,H  11)          120.4313         0.352090   
     58. A(C   0,C   1,C   2)          118.5812         0.434241   
     59. A(C   2,C   1,H  40)          119.8734         0.353015   
     60. A(C   0,C   1,H  40)          121.5438         0.352368   
     61. A(C   1,C   2,H  12)          121.5908         0.352357   
     62. A(N   3,C   2,H  12)          116.8585         0.356413   
     63. A(C   1,C   2,N   3)          121.5506         0.440419   
     64. A(C   2,N   3,C   6)          124.2561         0.281591   
     65. A(C   4,N   3,C  19)          119.0065         0.208101   
     66. A(C   7,N   3,C  19)           60.1978         0.132668   
     67. A(C   4,N   3,C   6)          114.9566         0.281603   
     68. A(C   6,N   3,C  19)           34.8460         0.153278   
     69. A(C   2,N   3,C   4)          120.5662         0.445853   
     70. A(C   6,N   3,C   7)           36.1406         0.159617   
     71. A(C   2,N   3,C   7)           98.2649         0.219839   
     72. A(C   2,N   3,C  19)          107.0586         0.208094   
     73. A(C   4,N   3,C   7)          135.9643         0.219847   
     74. A(N   3,C   4,H  13)          117.0367         0.356408   
     75. A(N   3,C   4,C   5)          121.5924         0.440491   
     76. A(C   5,C   4,H  13)          121.3676         0.352375   
     77. A(C   0,C   5,C   4)          118.5370         0.434107   
     78. A(C   0,C   5,H  14)          121.5633         0.352234   
     79. A(C   4,C   5,H  14)          119.8994         0.353059   
     80. A(N   3,C   6,O  38)          170.8680         0.209588   
     81. A(H  15,C   6,C  19)          121.5244         0.327205   
     82. A(C   7,C   6,C  19)          119.4575         0.373573   
     83. A(C  19,C   6,O  38)           94.5838         0.286773   
     84. A(H  15,C   6,O  38)           87.6760         0.257494   
     85. A(N   3,C   6,H  15)           84.9685         0.234241   
     86. A(N   3,C   6,C  19)           93.8736         0.259480   
     87. A(N   3,C   6,C   7)           89.0990         0.262513   
     88. A(C   7,C   6,H  15)          118.9762         0.331444   
     89. A(C   7,C   6,O  38)           89.7384         0.290292   
     90. A(N   3,C   7,O   8)          110.1276         0.234050   
     91. A(N   3,C   7,O   9)          100.1211         0.221330   
     92. A(N   3,C   7,C   6)           54.7604         0.206878   
     93. A(C   6,C   7,O   9)          111.5912         0.414147   
     94. A(C   6,C   7,O   8)          123.1197         0.445402   
     95. A(O   8,C   7,O   9)          125.2881         0.489097   
     96. A(C   7,O   9,C  10)          116.4174         0.422780   
     97. A(H  16,C  10,H  17)          110.3826         0.288492   
     98. A(O   9,C  10,H  17)          110.4135         0.335345   
     99. A(O   9,C  10,H  16)          106.0799         0.336172   
    100. A(H  17,C  10,H  39)          109.3074         0.287783   
    101. A(H  16,C  10,H  39)          110.3173         0.288451   
    102. A(O   9,C  10,H  39)          110.3071         0.335294   
    103. A(C  19,C  18,N  28)          116.3713         0.407941   
    104. A(N  28,C  18,N  41)          122.6688         0.422826   
    105. A(C  19,C  18,N  41)          120.9113         0.394242   
    106. A(N   3,C  19,H  30)           74.1271         0.178027   
    107. A(N   3,C  19,C  18)          155.0629         0.196665   
    108. A(C  18,C  19,C  20)          113.1572         0.375177   
    109. A(C   6,C  19,C  20)          111.6238         0.369211   
    110. A(C   6,C  19,C  18)          106.8430         0.374551   
    111. A(N   3,C  19,C   6)           51.2804         0.194421   
    112. A(C  20,C  19,H  30)          108.7691         0.325637   
    113. A(C  18,C  19,H  30)          107.7746         0.330147   
    114. A(C   6,C  19,H  30)          108.5099         0.325119   
    115. A(N   3,C  19,C  20)           88.6513         0.194652   
    116. A(C  19,C  20,C  21)          120.4493         0.399838   
    117. A(C  21,C  20,C  25)          119.2412         0.428881   
    118. A(C  19,C  20,C  25)          120.2835         0.396064   
    119. A(C  20,C  21,C  22)          121.3087         0.432781   
    120. A(C  22,C  21,H  31)          119.8054         0.351427   
    121. A(C  20,C  21,H  31)          118.8843         0.351638   
    122. A(C  21,C  22,C  23)          119.0420         0.433066   
    123. A(C  23,C  22,H  32)          120.6784         0.352303   
    124. A(C  21,C  22,H  32)          120.2795         0.351874   
    125. A(C  22,C  23,C  24)          120.7210         0.433001   
    126. A(C  24,C  23,H  33)          119.0832         0.351610   
    127. A(C  22,C  23,H  33)          120.1958         0.352089   
    128. A(C  25,C  24,H  34)          120.4053         0.351074   
    129. A(C  23,C  24,H  34)          119.5852         0.352216   
    130. A(C  23,C  24,C  25)          120.0095         0.430886   
    131. A(C  24,C  25,O  26)          123.6878         0.433515   
    132. A(C  20,C  25,O  26)          116.6325         0.431155   
    133. A(C  20,C  25,C  24)          119.6770         0.427071   
    134. A(C  25,O  26,C  27)          119.4717         0.420092   
    135. A(H  36,C  27,H  37)          109.2707         0.286701   
    136. A(H  35,C  27,H  37)          109.0423         0.287648   
    137. A(O  26,C  27,H  37)          111.3419         0.338312   
    138. A(H  35,C  27,H  36)          109.2396         0.287646   
    139. A(O  26,C  27,H  36)          111.4710         0.338310   
    140. A(O  26,C  27,H  35)          106.3965         0.339505   
    141. A(O  29,N  28,O  38)          118.7838         0.466267   
    142. A(C  18,N  28,O  38)          112.9141         0.438653   
    143. A(C  18,N  28,O  29)          128.3021         0.465355   
    144. A(C   6,O  38,N  28)          105.6220         0.310434   
    145. A(O  42,N  41,O  43)          123.4207         0.487516   
    146. A(C  18,N  41,O  43)          115.4846         0.444529   
    147. A(C  18,N  41,O  42)          121.0935         0.447116   
    148. D(H  40,C   1,C   0,H  11)     -0.0862         0.026357   
    149. D(H  40,C   1,C   0,C   5)   -179.9707         0.026357   
    150. D(C   2,C   1,C   0,H  11)    179.4516         0.026357   
    151. D(C   2,C   1,C   0,C   5)     -0.4329         0.026357   
    152. D(H  12,C   2,C   1,C   0)   -179.4314         0.026971   
    153. D(H  12,C   2,C   1,H  40)      0.1143         0.026971   
    154. D(N   3,C   2,C   1,C   0)      0.6825         0.026971   
    155. D(N   3,C   2,C   1,H  40)   -179.7718         0.026971   
    156. D(C  19,N   3,C   2,C   1)   -140.8745         0.052475   
    157. D(C  19,N   3,C   2,H  12)     39.2343         0.052475   
    158. D(C   7,N   3,C   2,H  12)    -22.0304         0.052475   
    159. D(C   4,N   3,C   2,C   1)     -0.4930         0.052475   
    160. D(C   4,N   3,C   2,H  12)    179.6158         0.052475   
    161. D(C   7,N   3,C   2,C   1)    157.8608         0.052475   
    162. D(C   6,N   3,C   2,H  12)      5.2977         0.052475   
    163. D(C   6,N   3,C   2,C   1)   -174.8111         0.052475   
    164. D(C   5,C   4,N   3,C  19)    135.8585         0.055353   
    165. D(H  13,C   4,N   3,C   2)   -179.2935         0.055353   
    166. D(H  13,C   4,N   3,C   6)     -4.4721         0.055353   
    167. D(C   5,C   4,N   3,C   7)   -148.2712         0.055353   
    168. D(C   5,C   4,N   3,C   6)    174.8712         0.055353   
    169. D(H  13,C   4,N   3,C  19)    -43.4847         0.055353   
    170. D(H  13,C   4,N   3,C   7)     32.3856         0.055353   
    171. D(C   5,C   4,N   3,C   2)      0.0497         0.055353   
    172. D(H  14,C   5,C   0,H  11)     -0.0431         0.026227   
    173. D(C   4,C   5,C   0,H  11)   -179.8658         0.026227   
    174. D(C   4,C   5,C   0,C   1)      0.0188         0.026227   
    175. D(C   0,C   5,C   4,N   3)      0.1845         0.029350   
    176. D(C   0,C   5,C   4,H  13)    179.4993         0.029350   
    177. D(H  14,C   5,C   0,C   1)    179.8415         0.026227   
    178. D(H  14,C   5,C   4,N   3)   -179.6412         0.029350   
    179. D(H  14,C   5,C   4,H  13)     -0.3264         0.029350   
    180. D(O  38,C   6,N   3,C  19)    157.8079         0.001677   
    181. D(O  38,C   6,N   3,C   7)    -82.7266         0.001677   
    182. D(O  38,C   6,N   3,C   4)     52.2851         0.001677   
    183. D(C  19,C   6,N   3,C   7)    119.4655         0.001677   
    184. D(C  19,C   6,N   3,C   4)   -105.5228         0.001677   
    185. D(C  19,C   6,N   3,C   2)     69.0818         0.001677   
    186. D(H  15,C   6,N   3,C  19)    121.3406         0.001677   
    187. D(H  15,C   6,N   3,C   7)   -119.1938         0.001677   
    188. D(H  15,C   6,N   3,C   4)     15.8178         0.001677   
    189. D(O  38,C   6,N   3,C   2)   -133.1103         0.001677   
    190. D(H  15,C   6,N   3,C   2)   -169.5776         0.001677   
    191. D(C   7,C   6,N   3,C   4)    135.0117         0.001677   
    192. D(C   7,C   6,N   3,C  19)   -119.4655         0.001677   
    193. D(C   7,C   6,N   3,C   2)    -50.3837         0.001677   
    194. D(O   9,C   7,C   6,H  15)     -3.4943         0.014899   
    195. D(O   8,C   7,C   6,N   3)     92.4169         0.014899   
    196. D(O   8,C   7,C   6,O  38)    -96.6411         0.014899   
    197. D(O   8,C   7,C   6,H  15)    176.1607         0.014899   
    198. D(O   9,C   7,N   3,C  19)    144.3431         0.001506   
    199. D(O   9,C   7,N   3,C   6)    109.3635         0.001506   
    200. D(O   8,C   7,N   3,C   6)   -116.9739         0.001506   
    201. D(C   6,C   7,N   3,C  19)     34.9797         0.001506   
    202. D(C   6,C   7,N   3,C   4)    -67.2340         0.001506   
    203. D(C   6,C   7,N   3,C   2)    139.9553         0.001506   
    204. D(O   8,C   7,N   3,C   4)    175.7921         0.001506   
    205. D(O   8,C   7,C   6,C  19)     -1.5232         0.014899   
    206. D(O   9,C   7,N   3,C   2)   -110.6812         0.001506   
    207. D(O   8,C   7,N   3,C  19)    -81.9942         0.001506   
    208. D(O   8,C   7,N   3,C   2)     22.9814         0.001506   
    209. D(O   9,C   7,C   6,C  19)    178.8219         0.014899   
    210. D(O   9,C   7,N   3,C   4)     42.1295         0.001506   
    211. D(N   3,C   7,C   6,O  38)    170.9420         0.014899   
    212. D(N   3,C   7,C   6,C  19)    -93.9401         0.014899   
    213. D(N   3,C   7,C   6,H  15)     83.7438         0.014899   
    214. D(O   9,C   7,C   6,N   3)    -87.2381         0.014899   
    215. D(O   9,C   7,C   6,O  38)     83.7040         0.014899   
    216. D(C  10,O   9,C   7,N   3)    123.7098         0.044221   
    217. D(C  10,O   9,C   7,O   8)      0.0285         0.044221   
    218. D(C  10,O   9,C   7,C   6)    179.6745         0.044221   
    219. D(H  39,C  10,O   9,C   7)    -60.7933         0.018990   
    220. D(H  17,C  10,O   9,C   7)     60.1301         0.018990   
    221. D(H  16,C  10,O   9,C   7)    179.7363         0.018990   
    222. D(N   3,C  19,C  18,N  41)    139.6581         0.014453   
    223. D(H  30,C  19,C  18,N  41)     49.1860         0.014453   
    224. D(H  30,C  19,C  18,N  28)   -133.2836         0.014453   
    225. D(C  20,C  19,C  18,N  41)    -71.1194         0.014453   
    226. D(C   6,C  19,C  18,N  41)    165.6333         0.014453   
    227. D(C   6,C  19,C  18,N  28)    -16.8363         0.014453   
    228. D(N   3,C  19,C   6,O  38)   -176.5522         0.013498   
    229. D(N   3,C  19,C   6,C   7)     91.1541         0.013498   
    230. D(H  30,C  19,C   6,N   3)    -50.3514         0.013498   
    231. D(H  30,C  19,C   6,O  38)    133.0964         0.013498   
    232. D(H  30,C  19,C   6,H  15)   -136.8203         0.013498   
    233. D(H  30,C  19,C   6,C   7)     40.8027         0.013498   
    234. D(C  20,C  19,C   6,N   3)     69.4970         0.013498   
    235. D(C  20,C  19,C   6,O  38)   -107.0552         0.013498   
    236. D(C  20,C  19,C   6,C   7)    160.6511         0.013498   
    237. D(C  18,C  19,C   6,N   3)   -166.3092         0.013498   
    238. D(C  18,C  19,C   6,O  38)     17.1386         0.013498   
    239. D(C  18,C  19,C   6,H  15)    107.2220         0.013498   
    240. D(C  18,C  19,C   6,C   7)    -75.1551         0.013498   
    241. D(C  20,C  19,C   6,H  15)    -16.9719         0.013498   
    242. D(H  30,C  19,N   3,C   7)     94.3356         0.001503   
    243. D(H  30,C  19,N   3,C   6)    130.6164         0.001503   
    244. D(H  30,C  19,N   3,C   4)   -136.6340         0.001503   
    245. D(H  30,C  19,N   3,C   2)      4.4769         0.001503   
    246. D(C  20,C  19,N   3,C   7)   -155.7085         0.001503   
    247. D(C  20,C  19,N   3,C   6)   -119.4277         0.001503   
    248. D(C  20,C  19,N   3,C   4)    -26.6781         0.001503   
    249. D(N   3,C  19,C   6,H  15)    -86.4689         0.013498   
    250. D(C  20,C  19,N   3,C   2)    114.4328         0.001503   
    251. D(C  18,C  19,N   3,C   7)     -3.7822         0.001503   
    252. D(C  18,C  19,N   3,C   6)     32.4987         0.001503   
    253. D(C  20,C  19,C  18,N  28)    106.4110         0.014453   
    254. D(C  18,C  19,N   3,C   4)    125.2482         0.001503   
    255. D(C  18,C  19,N   3,C   2)    -93.6409         0.001503   
    256. D(C   6,C  19,N   3,C   7)    -36.2809         0.001503   
    257. D(N   3,C  19,C  18,N  28)    -42.8116         0.014453   
    258. D(C   6,C  19,N   3,C   4)     92.7495         0.001503   
    259. D(C   6,C  19,N   3,C   2)   -126.1395         0.001503   
    260. D(C  25,C  20,C  19,N   3)    -65.3519         0.012291   
    261. D(C  25,C  20,C  19,H  30)      7.3738         0.012291   
    262. D(C  25,C  20,C  19,C  18)    127.1110         0.012291   
    263. D(C  25,C  20,C  19,C   6)   -112.3218         0.012291   
    264. D(C  21,C  20,C  19,N   3)    112.7782         0.012291   
    265. D(C  21,C  20,C  19,H  30)   -174.4962         0.012291   
    266. D(C  21,C  20,C  19,C  18)    -54.7590         0.012291   
    267. D(C  21,C  20,C  19,C   6)     65.8082         0.012291   
    268. D(H  31,C  21,C  20,C  25)    179.7823         0.026237   
    269. D(H  31,C  21,C  20,C  19)      1.6329         0.026237   
    270. D(C  22,C  21,C  20,C  25)      0.2490         0.026237   
    271. D(C  22,C  21,C  20,C  19)   -177.9003         0.026237   
    272. D(H  32,C  22,C  21,C  20)    179.8431         0.026041   
    273. D(C  23,C  22,C  21,H  31)   -179.6005         0.026041   
    274. D(C  23,C  22,C  21,C  20)     -0.0715         0.026041   
    275. D(H  32,C  22,C  21,H  31)      0.3140         0.026041   
    276. D(H  33,C  23,C  22,H  32)      0.0113         0.026442   
    277. D(H  33,C  23,C  22,C  21)    179.9255         0.026442   
    278. D(C  24,C  23,C  22,H  32)    179.9936         0.026442   
    279. D(C  24,C  23,C  22,C  21)     -0.0923         0.026442   
    280. D(H  34,C  24,C  23,H  33)      0.0163         0.025994   
    281. D(H  34,C  24,C  23,C  22)   -179.9662         0.025994   
    282. D(C  25,C  24,C  23,H  33)   -179.9433         0.025994   
    283. D(C  25,C  24,C  23,C  22)      0.0742         0.025994   
    284. D(O  26,C  25,C  24,H  34)     -0.4691         0.024961   
    285. D(O  26,C  25,C  24,C  23)    179.4901         0.024961   
    286. D(C  20,C  25,C  24,H  34)   -179.8537         0.024961   
    287. D(C  20,C  25,C  24,C  23)      0.1055         0.024961   
    288. D(O  26,C  25,C  20,C  21)   -179.6910         0.023417   
    289. D(O  26,C  25,C  20,C  19)     -1.5385         0.023417   
    290. D(C  24,C  25,C  20,C  21)     -0.2638         0.023417   
    291. D(C  24,C  25,C  20,C  19)    177.8887         0.023417   
    292. D(C  27,O  26,C  25,C  24)     -3.1065         0.032065   
    293. D(C  27,O  26,C  25,C  20)    176.2953         0.032065   
    294. D(H  37,C  27,O  26,C  25)    -58.9586         0.021742   
    295. D(H  36,C  27,O  26,C  25)     63.3470         0.021742   
    296. D(H  35,C  27,O  26,C  25)   -177.6510         0.021742   
    297. D(O  38,N  28,C  18,N  41)   -178.6150         0.035476   
    298. D(O  38,N  28,C  18,C  19)      3.9021         0.035476   
    299. D(O  29,N  28,C  18,N  41)      1.4950         0.035476   
    300. D(O  29,N  28,C  18,C  19)   -175.9879         0.035476   
    301. D(C   6,O  38,N  28,O  29)   -171.9057         0.042040   
    302. D(C   6,O  38,N  28,C  18)      8.1927         0.042040   
    303. D(N  28,O  38,C   6,N   3)   -174.2051         0.001989   
    304. D(N  28,O  38,C   6,C  19)    -16.4186         0.001989   
    305. D(N  28,O  38,C   6,H  15)   -137.8662         0.001989   
    306. D(N  28,O  38,C   6,C   7)    103.1190         0.001989   
    307. D(O  43,N  41,C  18,N  28)   -178.2606         0.023419   
    308. D(O  43,N  41,C  18,C  19)     -0.8892         0.023419   
    309. D(O  42,N  41,C  18,N  28)      2.1187         0.023419   
    310. D(O  42,N  41,C  18,C  19)    179.4901         0.023419   
    -----------------------------------------------------------------

Number of atoms                         .... 44
Number of degrees of freedom            .... 310

         *************************************************************
         *                GEOMETRY OPTIMIZATION CYCLE   1            *
         *************************************************************
---------------------------------
CARTESIAN COORDINATES (ANGSTROEM)
---------------------------------
  C     -4.018371    1.772403    0.284301
  C     -3.091773    1.976180    1.304641
  C     -1.743677    1.778247    1.028164
  N     -1.326741    1.414918   -0.183603
  C     -2.200052    1.220182   -1.170231
  C     -3.566476    1.387563   -0.976916
  C      0.639069    0.948117   -0.650335
  C      1.071643    2.227233   -0.003083
  O      1.398962    2.302032    1.157305
  O      1.039230    3.235576   -0.851787
  C      1.425937    4.508815   -0.339315
  H     -5.086025    1.910595    0.470617
  H     -0.975093    1.915300    1.794966
  H     -1.795401    0.911272   -2.139005
  H     -4.257954    1.214933   -1.803308
  H      0.298534    0.969075   -1.682121
  H      1.342147    5.210582   -1.175717
  H      2.460526    4.475249    0.030022
  C      2.058964   -0.763449    0.300766
  C      0.635165   -0.335467    0.161188
  C     -0.246212   -1.394009   -0.471934
  C      0.087149   -1.943412   -1.708812
  C     -0.733138   -2.886577   -2.327765
  C     -1.906474   -3.283938   -1.691017
  C     -2.260109   -2.751082   -0.451187
  C     -1.432882   -1.804800    0.166088
  O     -1.706752   -1.236116    1.354801
  C     -2.915663   -1.543968    2.007959
  N      2.938024   -0.201792   -0.549313
  O      4.122713   -0.437788   -0.671400
  H      0.252672   -0.111774    1.165051
  H      1.008357   -1.617495   -2.200839
  H     -0.456945   -3.304210   -3.298211
  H     -2.563749   -4.020863   -2.159561
  H     -3.182480   -3.075717    0.030891
  H     -2.936401   -0.938694    2.922286
  H     -2.968034   -2.611617    2.277792
  H     -3.786445   -1.283204    1.384143
  O      2.396031    0.700993   -1.316167
  H      0.757195    4.809539    0.479714
  H     -3.402683    2.277363    2.306415
  N      2.428391   -1.736402    1.234905
  O      3.590212   -2.095491    1.345483
  O      1.512711   -2.183834    1.923167

----------------------------
CARTESIAN COORDINATES (A.U.)
----------------------------
  NO LB      ZA    FRAG     MASS         X           Y           Z
   0 C     6.0000    0    12.011   -7.593621    3.349356    0.537251
   1 C     6.0000    0    12.011   -5.842604    3.734439    2.465414
   2 C     6.0000    0    12.011   -3.295072    3.360400    1.942948
   3 N     7.0000    0    14.007   -2.507177    2.673808   -0.346959
   4 C     6.0000    0    12.011   -4.157496    2.305810   -2.211416
   5 C     6.0000    0    12.011   -6.739663    2.622114   -1.846104
   6 C     6.0000    0    12.011    1.207665    1.791681   -1.228955
   7 C     6.0000    0    12.011    2.025112    4.208860   -0.005826
   8 O     8.0000    0    15.999    2.643655    4.350210    2.186990
   9 O     8.0000    0    15.999    1.963860    6.114353   -1.609644
  10 C     6.0000    0    12.011    2.694630    8.520426   -0.641212
  11 H     1.0000    0     1.008   -9.611194    3.610501    0.889337
  12 H     1.0000    0     1.008   -1.842659    3.619392    3.391994
  13 H     1.0000    0     1.008   -3.392816    1.722055   -4.042134
  14 H     1.0000    0     1.008   -8.046367    2.295891   -3.407758
  15 H     1.0000    0     1.008    0.564148    1.831286   -3.178748
  16 H     1.0000    0     1.008    2.536290    9.846573   -2.221783
  17 H     1.0000    0     1.008    4.649720    8.456995    0.056733
  18 C     6.0000    0    12.011    3.890878   -1.442710    0.568365
  19 C     6.0000    0    12.011    1.200288   -0.633941    0.304601
  20 C     6.0000    0    12.011   -0.465273   -2.634295   -0.891826
  21 C     6.0000    0    12.011    0.164688   -3.672516   -3.229187
  22 C     6.0000    0    12.011   -1.385430   -5.454840   -4.398838
  23 C     6.0000    0    12.011   -3.602714   -6.205743   -3.195559
  24 C     6.0000    0    12.011   -4.270987   -5.198792   -0.852620
  25 C     6.0000    0    12.011   -2.707755   -3.410578    0.313861
  26 O     8.0000    0    15.999   -3.225294   -2.335921    2.560203
  27 C     6.0000    0    12.011   -5.509805   -2.917677    3.794493
  28 N     7.0000    0    14.007    5.552061   -0.381332   -1.038051
  29 O     8.0000    0    15.999    7.790798   -0.827299   -1.268762
  30 H     1.0000    0     1.008    0.477481   -0.211222    2.201627
  31 H     1.0000    0     1.008    1.905519   -3.056623   -4.158983
  32 H     1.0000    0     1.008   -0.863501   -6.244052   -6.232716
  33 H     1.0000    0     1.008   -4.844783   -7.598330   -4.080979
  34 H     1.0000    0     1.008   -6.014016   -5.812263    0.058376
  35 H     1.0000    0     1.008   -5.548994   -1.773875    5.522320
  36 H     1.0000    0     1.008   -5.608771   -4.935241    4.304403
  37 H     1.0000    0     1.008   -7.155344   -2.424904    2.615651
  38 O     8.0000    0    15.999    4.527842    1.324685   -2.487195
  39 H     1.0000    0     1.008    1.430891    9.088712    0.906528
  40 H     1.0000    0     1.008   -6.430139    4.303592    4.358493
  41 N     7.0000    0    14.007    4.588994   -3.281324    2.333632
  42 O     8.0000    0    15.999    6.784517   -3.959904    2.542594
  43 O     8.0000    0    15.999    2.858610   -4.126848    3.634259

--------------------------------
INTERNAL COORDINATES (ANGSTROEM)
--------------------------------
 C      0   0   0     0.000000000000     0.00000000     0.00000000
 C      1   0   0     1.393270481613     0.00000000     0.00000000
 C      2   1   0     1.390316449314   118.58115643     0.00000000
 N      3   2   1     1.331999569304   121.55062141     0.68249376
 C      4   3   2     1.331926808350   120.56616700   359.50695753
 C      5   4   3     1.390144465932   121.59240961     0.04970014
 C      4   3   2     2.073680517709   124.25609466   185.18892640
 C      7   4   3     1.497395458266    89.09899513   309.61625482
 O      8   7   4     1.207987139297   123.11972844    92.41691973
 O      8   7   4     1.318371983863   111.59118773   272.76192927
 C     10   8   7     1.425940884383   116.41740471   179.67450356
 H      1   2   3     1.092563839982   120.43128324   179.45160218
 H      3   2   1     1.094298952329   121.59075902   180.56855153
 H      5   4   3     1.094390644595   117.03665828   180.70648894
 H      6   5   4     1.091268380852   119.89943201   180.35876976
 H      7   4   3     1.086731647549    84.96849672   190.42242724
 H     11  10   8     1.095018717645   106.07992583   179.73626822
 H     11  10   8     1.099049996518   110.41345324    60.13006465
 C      7   4   3     2.418708972899   128.85106538    58.73630100
 C     19   7   4     1.493269634999    36.93622058    17.65116393
 C     20  19   7     1.515974949917   113.15724186   123.24728340
 C     21  20  19     1.393858098808   120.44928911   305.24099938
 C     22  21  20     1.394823930037   121.30873406   182.09965028
 C     23  22  21     1.392860778657   119.04202931   359.92854387
 C     24  23  22     1.395052564910   120.72101213   359.90774780
 C     25  24  23     1.400279457351   120.00948208     0.07421041
 O     26  25  24     1.345899277481   123.68780681   179.49011683
 C     27  26  25     1.408138499150   119.47166101   356.89348102
 N     19   7   4     1.345674319994    80.77733911   182.40922809
 O     29  19   7     1.214119999961   128.30206707   173.85598928
 H     20  19   7     1.097305962832   107.77459770   243.55269023
 H     22  21  20     1.094045994866   118.88426878     1.63294296
 H     23  22  21     1.092000611197   120.27949142   179.84307499
 H     24  23  22     1.092978664561   120.19582814   179.92546595
 H     25  24  23     1.090208852904   119.58519231   180.03377586
 H     28  27  26     1.096713518951   106.39647070   182.34901884
 H     28  27  26     1.102464038747   111.47099612    63.34704154
 H     28  27  26     1.102454333329   111.34185977   301.04136270
 O     29  19   7     1.302628966970   112.91407573   353.74600229
 H     11  10   8     1.099299454007   110.30707774   299.20665920
 H      2   1   3     1.091296190163   121.54384668   180.46221226
 N     19   7   4     1.398473996848   155.51372415   346.74578776
 O     42  19   7     1.221065289019   121.09346357   200.57470033
 O     42  19   7     1.229784467973   115.48462714    20.19541277

---------------------------
INTERNAL COORDINATES (A.U.)
---------------------------
 C      0   0   0     0.000000000000     0.00000000     0.00000000
 C      1   0   0     2.632899640724     0.00000000     0.00000000
 C      2   1   0     2.627317328690   118.58115643     0.00000000
 N      3   2   1     2.517114396486   121.55062141     0.68249376
 C      4   3   2     2.516976898209   120.56616700   359.50695753
 C      5   4   3     2.626992327198   121.59240961     0.04970014
 C      4   3   2     3.918688267718   124.25609466   185.18892640
 C      7   4   3     2.829667330300    89.09899513   309.61625482
 O      8   7   4     2.282764866570   123.11972844    92.41691973
 O      8   7   4     2.491361992135   111.59118773   272.76192927
 C     10   8   7     2.694637754645   116.41740471   179.67450356
 H      1   2   3     2.064646441391   120.43128324   179.45160218
 H      3   2   1     2.067925328539   121.59075902   180.56855153
 H      5   4   3     2.068098601810   117.03665828   180.70648894
 H      6   5   4     2.062198378419   119.89943201   180.35876976
 H      7   4   3     2.053625194933    84.96849672   190.42242724
 H     11  10   8     2.069285487867   106.07992583   179.73626822
 H     11  10   8     2.076903500906   110.41345324    60.13006465
 C      7   4   3     4.570697556437   128.85106538    58.73630100
 C     19   7   4     2.821870654248    36.93622058    17.65116393
 C     20  19   7     2.864777481229   113.15724186   123.24728340
 C     21  20  19     2.634010076296   120.44928911   305.24099938
 C     22  21  20     2.635835232809   121.30873406   182.09965028
 C     23  22  21     2.632125414342   119.04202931   359.92854387
 C     24  23  22     2.636267290104   120.72101213   359.90774780
 C     25  24  23     2.646144685348   120.00948208     0.07421041
 O     26  25  24     2.543381038282   123.68780681   179.49011683
 C     27  26  25     2.660996122025   119.47166101   356.89348102
 N     19   7   4     2.542955930238    80.77733911   182.40922809
 O     29  19   7     2.294354293643   128.30206707   173.85598928
 H     20  19   7     2.073607754872   107.77459770   243.55269023
 H     22  21  20     2.067447308210   118.88426878     1.63294296
 H     23  22  21     2.063582093236   120.27949142   179.84307499
 H     24  23  22     2.065430346240   120.19582814   179.92546595
 H     25  24  23     2.060196160765   119.58519231   180.03377586
 H     28  27  26     2.072488198186   106.39647070   182.34901884
 H     28  27  26     2.083355105729   111.47099612    63.34704154
 H     28  27  26     2.083336765147   111.34185977   301.04136270
 O     29  19   7     2.461612001687   112.91407573   353.74600229
 H     11  10   8     2.077374907243   110.30707774   299.20665920
 H      2   1   3     2.062250930400   121.54384668   180.46221226
 N     19   7   4     2.642732859452   155.51372415   346.74578776
 O     42  19   7     2.307478987882   121.09346357   200.57470033
 O     42  19   7     2.323955848219   115.48462714    20.19541277

---------------------
BASIS SET INFORMATION
---------------------
There are 4 groups of distinct atoms

 Group   1 Type C   : 11s6p2d1f contracted to 5s3p2d1f pattern {62111/411/11/1}
 Group   2 Type N   : 11s6p2d1f contracted to 5s3p2d1f pattern {62111/411/11/1}
 Group   3 Type O   : 11s6p2d1f contracted to 5s3p2d1f pattern {62111/411/11/1}
 Group   4 Type H   : 5s1p contracted to 3s1p pattern {311/1}

Atom   0C    basis set group =>   1
Atom   1C    basis set group =>   1
Atom   2C    basis set group =>   1
Atom   3N    basis set group =>   2
Atom   4C    basis set group =>   1
Atom   5C    basis set group =>   1
Atom   6C    basis set group =>   1
Atom   7C    basis set group =>   1
Atom   8O    basis set group =>   3
Atom   9O    basis set group =>   3
Atom  10C    basis set group =>   1
Atom  11H    basis set group =>   4
Atom  12H    basis set group =>   4
Atom  13H    basis set group =>   4
Atom  14H    basis set group =>   4
Atom  15H    basis set group =>   4
Atom  16H    basis set group =>   4
Atom  17H    basis set group =>   4
Atom  18C    basis set group =>   1
Atom  19C    basis set group =>   1
Atom  20C    basis set group =>   1
Atom  21C    basis set group =>   1
Atom  22C    basis set group =>   1
Atom  23C    basis set group =>   1
Atom  24C    basis set group =>   1
Atom  25C    basis set group =>   1
Atom  26O    basis set group =>   3
Atom  27C    basis set group =>   1
Atom  28N    basis set group =>   2
Atom  29O    basis set group =>   3
Atom  30H    basis set group =>   4
Atom  31H    basis set group =>   4
Atom  32H    basis set group =>   4
Atom  33H    basis set group =>   4
Atom  34H    basis set group =>   4
Atom  35H    basis set group =>   4
Atom  36H    basis set group =>   4
Atom  37H    basis set group =>   4
Atom  38O    basis set group =>   3
Atom  39H    basis set group =>   4
Atom  40H    basis set group =>   4
Atom  41N    basis set group =>   2
Atom  42O    basis set group =>   3
Atom  43O    basis set group =>   3
---------------------------------
AUXILIARY/J BASIS SET INFORMATION
---------------------------------
There are 4 groups of distinct atoms

 Group   1 Type C   : 12s5p4d2f1g contracted to 6s4p3d1f1g pattern {711111/2111/211/2/1}
 Group   2 Type N   : 12s5p4d2f1g contracted to 6s4p3d1f1g pattern {711111/2111/211/2/1}
 Group   3 Type O   : 12s5p4d2f1g contracted to 6s4p3d1f1g pattern {711111/2111/211/2/1}
 Group   4 Type H   : 5s2p1d contracted to 3s1p1d pattern {311/2/1}

Atom   0C    basis set group =>   1
Atom   1C    basis set group =>   1
Atom   2C    basis set group =>   1
Atom   3N    basis set group =>   2
Atom   4C    basis set group =>   1
Atom   5C    basis set group =>   1
Atom   6C    basis set group =>   1
Atom   7C    basis set group =>   1
Atom   8O    basis set group =>   3
Atom   9O    basis set group =>   3
Atom  10C    basis set group =>   1
Atom  11H    basis set group =>   4
Atom  12H    basis set group =>   4
Atom  13H    basis set group =>   4
Atom  14H    basis set group =>   4
Atom  15H    basis set group =>   4
Atom  16H    basis set group =>   4
Atom  17H    basis set group =>   4
Atom  18C    basis set group =>   1
Atom  19C    basis set group =>   1
Atom  20C    basis set group =>   1
Atom  21C    basis set group =>   1
Atom  22C    basis set group =>   1
Atom  23C    basis set group =>   1
Atom  24C    basis set group =>   1
Atom  25C    basis set group =>   1
Atom  26O    basis set group =>   3
Atom  27C    basis set group =>   1
Atom  28N    basis set group =>   2
Atom  29O    basis set group =>   3
Atom  30H    basis set group =>   4
Atom  31H    basis set group =>   4
Atom  32H    basis set group =>   4
Atom  33H    basis set group =>   4
Atom  34H    basis set group =>   4
Atom  35H    basis set group =>   4
Atom  36H    basis set group =>   4
Atom  37H    basis set group =>   4
Atom  38O    basis set group =>   3
Atom  39H    basis set group =>   4
Atom  40H    basis set group =>   4
Atom  41N    basis set group =>   2
Atom  42O    basis set group =>   3
Atom  43O    basis set group =>   3


           ************************************************************
           *        Program running with 24 parallel MPI-processes    *
           *              working on a common directory               *
           ************************************************************
------------------------------------------------------------------------------
                           ORCA GTO INTEGRAL CALCULATION
                           -- RI-GTO INTEGRALS CHOSEN --
------------------------------------------------------------------------------
------------------------------------------------------------------------------
                   ___                                                        
                  /   \      - P O W E R E D   B Y -                         
                 /     \                                                     
                 |  |  |   _    _      __       _____    __    __             
                 |  |  |  | |  | |    /  \     |  _  \  |  |  /  |          
                  \  \/   | |  | |   /    \    | | | |  |  | /  /          
                 / \  \   | |__| |  /  /\  \   | |_| |  |  |/  /          
                |  |  |   |  __  | /  /__\  \  |    /   |      \           
                |  |  |   | |  | | |   __   |  |    \   |  |\   \          
                \     /   | |  | | |  |  |  |  | |\  \  |  | \   \       
                 \___/    |_|  |_| |__|  |__|  |_| \__\ |__|  \__/        
                                                                              
                      - O R C A' S   B I G   F R I E N D -                    
                                      &                                       
                       - I N T E G R A L  F E E D E R -                       
                                                                              
 v1 FN, 2020, v2 2021                                                         
------------------------------------------------------------------------------


Reading SHARK input file TS2_NO2/TS2_NO2.SHARKINP.tmp ... ok
----------------------
SHARK INTEGRAL PACKAGE
----------------------

Number of atoms                             ...     44
Number of basis functions                   ...    939
Number of shells                            ...    365
Maximum angular momentum                    ...      3
Integral batch strategy                     ... SHARK/LIBINT Hybrid
RI-J (if used) integral strategy            ... SPLIT-RIJ (Revised 2003 algorithm where possible)
Printlevel                                  ...      1
Contraction scheme used                     ... SEGMENTED contraction
Coulomb Range Separation                    ... NOT USED
Exchange Range Separation                   ... NOT USED
Finite Nucleus Model                        ... NOT USED
Auxiliary Coulomb fitting basis             ... AVAILABLE
   # of basis functions in Aux-J            ...   1510
   # of shells in Aux-J                     ...    490
   Maximum angular momentum in Aux-J        ...      4
Auxiliary J/K fitting basis                 ... NOT available
Auxiliary Correlation fitting basis         ... NOT available
Auxiliary 'external' fitting basis          ... NOT available
Integral threshold                          ...     2.500000e-11
Primitive cut-off                           ...     2.500000e-12
Primitive pair pre-selection threshold      ...     2.500000e-12

Calculating pre-screening integrals         ... done (  0.1 sec) Dimension = 365
Organizing shell pair data                  ... done (  0.6 sec)
Shell pair information
Total number of shell pairs                 ...     66795
Shell pairs after pre-screening             ...     47610
Total number of primitive shell pairs       ...    207048
Primitive shell pairs kept                  ...     95424
          la=0 lb=0:  11810 shell pairs
          la=1 lb=0:  13656 shell pairs
          la=1 lb=1:   3926 shell pairs
          la=2 lb=0:   6861 shell pairs
          la=2 lb=1:   4026 shell pairs
          la=2 lb=2:   1035 shell pairs
          la=3 lb=0:   3173 shell pairs
          la=3 lb=1:   1923 shell pairs
          la=3 lb=2:    959 shell pairs
          la=3 lb=3:    241 shell pairs

Calculating one electron integrals          ... done (  0.1 sec)
Calculating RI/J V-Matrix + Cholesky decomp.... done (  0.2 sec)
Calculating Nuclear repulsion               ... done (  0.0 sec) ENN=   2711.787607459295 Eh

SHARK setup successfully completed in   1.8 seconds

Maximum memory used throughout the entire GTOINT-calculation: 72.1 MB


           ************************************************************
           *        Program running with 24 parallel MPI-processes    *
           *              working on a common directory               *
           ************************************************************
-------------------------------------------------------------------------------
                                 ORCA SCF
-------------------------------------------------------------------------------

------------
SCF SETTINGS
------------
Hamiltonian:
 Density Functional     Method          .... DFT(GTOs)
 Exchange Functional    Exchange        .... PBE
   PBE kappa parameter   XKappa         ....  0.804000
   PBE mue parameter    XMuePBE         ....  0.219520
 Correlation Functional Correlation     .... PBE
   PBE beta parameter  CBetaPBE         ....  0.066725
 LDA part of GGA corr.  LDAOpt          .... PW91-LDA
 Gradients option       PostSCFGGA      .... off
 Hybrid DFT is turned on
   Fraction HF Exchange ScalHFX         ....  0.250000
   Scaling of DF-GGA-X  ScalDFX         ....  0.750000
   Scaling of DF-GGA-C  ScalDFC         ....  1.000000
   Scaling of DF-LDA-C  ScalLDAC        ....  1.000000
   Perturbative correction              ....  0.000000
   Density functional embedding theory  .... OFF
   NL short-range parameter             ....  6.900000
 RI-approximation to the Coulomb term is turned on
   Number of AuxJ basis functions       .... 1510
   RIJ-COSX (HFX calculated with COS-X)).... on


General Settings:
 Integral files         IntName         .... TS2_NO2/TS2_NO2
 Hartree-Fock type      HFTyp           .... RHF
 Total Charge           Charge          ....    0
 Multiplicity           Mult            ....    1
 Number of Electrons    NEL             ....  196
 Basis Dimension        Dim             ....  939
 Nuclear Repulsion      ENuc            ....   2711.7876074593 Eh

Convergence Acceleration:
 DIIS                   CNVDIIS         .... on
   Start iteration      DIISMaxIt       ....    12
   Startup error        DIISStart       ....  0.200000
   # of expansion vecs  DIISMaxEq       ....     5
   Bias factor          DIISBfac        ....   1.050
   Max. coefficient     DIISMaxC        ....  10.000
 Trust-Rad. Augm. Hess. CNVTRAH         .... auto
   Auto Start mean grad. ratio tolernc. ....  1.125000
   Auto Start start iteration           ....    20
   Auto Start num. interpolation iter.  ....    10
   Max. Number of Micro iterations      ....    16
   Max. Number of Macro iterations      .... Maxiter - #DIIS iter
   Number of Davidson start vectors     ....     2
   Converg. threshold I  (grad. norm)   ....   1.000e-05
   Converg. threshold II (energy diff.) ....   1.000e-08
   Grad. Scal. Fac. for Micro threshold ....   0.100
   Minimum threshold for Micro iter.    ....   0.010
   NR start threshold (gradient norm)   ....   0.001
   Initial trust radius                 ....   0.400
   Minimum AH scaling param. (alpha)    ....   1.000
   Maximum AH scaling param. (alpha)    .... 1000.000
   Orbital update algorithm             .... Taylor
   White noise on init. David. guess    .... on
   Maximum white noise                  ....   0.010
   Quad. conv. algorithm                .... NR
 SOSCF                  CNVSOSCF        .... on
   Start iteration      SOSCFMaxIt      ....   150
   Startup grad/error   SOSCFStart      ....  0.003300
 Level Shifting         CNVShift        .... on
   Level shift para.    LevelShift      ....    0.2500
   Turn off err/grad.   ShiftErr        ....    0.0010
 Zerner damping         CNVZerner       .... off
 Static damping         CNVDamp         .... on
   Fraction old density DampFac         ....    0.7000
   Max. Damping (<1)    DampMax         ....    0.9800
   Min. Damping (>=0)   DampMin         ....    0.0000
   Turn off err/grad.   DampErr         ....    0.1000
 Fernandez-Rico         CNVRico         .... off

SCF Procedure:
 Maximum # iterations   MaxIter         ....   800
 SCF integral mode      SCFMode         .... Direct
   Integral package                     .... SHARK and LIBINT hybrid scheme
 Reset frequency        DirectResetFreq ....    20
 Integral Threshold     Thresh          ....  2.500e-11 Eh
 Primitive CutOff       TCut            ....  2.500e-12 Eh

Convergence Tolerance:
 Convergence Check Mode ConvCheckMode   .... Total+1el-Energy
 Convergence forced     ConvForced      .... 0
 Energy Change          TolE            ....  1.000e-08 Eh
 1-El. energy change                    ....  1.000e-05 Eh
 Orbital Gradient       TolG            ....  1.000e-05
 Orbital Rotation angle TolX            ....  1.000e-05
 DIIS Error             TolErr          ....  5.000e-07


Diagonalization of the overlap matrix:
Smallest eigenvalue                        ... 5.943e-06
Time for diagonalization                   ...    0.279 sec
Threshold for overlap eigenvalues          ... 1.000e-08
Number of eigenvalues below threshold      ... 0
Time for construction of square roots      ...    0.217 sec
Total time needed                          ...    0.502 sec

Time for model grid setup =    0.422 sec

------------------------------
INITIAL GUESS: MODEL POTENTIAL
------------------------------
Loading Hartree-Fock densities                     ... done
Calculating cut-offs                               ... done
Initializing the effective Hamiltonian             ... done
Setting up the integral package (SHARK)            ... done
Starting the Coulomb interaction                   ... done (   0.5 sec)
Reading the grid                                   ... done
Mapping shells                                     ... done
Starting the XC term evaluation                    ... done (   0.2 sec)
  promolecular density results
     # of electrons  =    195.987365793
     EX              =   -168.684629246
     EC              =     -6.660390630
     EX+EC           =   -175.345019876
Transforming the Hamiltonian                       ... done (   0.2 sec)
Diagonalizing the Hamiltonian                      ... done (   0.3 sec)
Back transforming the eigenvectors                 ... done (   0.1 sec)
Now organizing SCF variables                       ... done
                      ------------------
                      INITIAL GUESS DONE (   2.0 sec)
                      ------------------
-------------------
DFT GRID GENERATION
-------------------

General Integration Accuracy     IntAcc      ... 4.388
Radial Grid Type                 RadialGrid  ... OptM3 with GC (2021)
Angular Grid (max. ang.)         AngularGrid ... 4 (Lebedev-302)
Angular grid pruning method      GridPruning ... 4 (adaptive)
Weight generation scheme         WeightScheme... Becke
Basis function cutoff            BFCut       ... 1.0000e-11
Integration weight cutoff        WCut        ... 1.0000e-14
Angular grids for H and He will be reduced by one unit
Partially contracted basis set               ... off
Rotationally invariant grid construction     ... off

Total number of grid points                  ...   215096
Total number of batches                      ...     3384
Average number of points per batch           ...       63
Average number of grid points per atom       ...     4889
Time for grid setup =    1.523 sec

--------------------
COSX GRID GENERATION
--------------------

GRIDX 1
-------
General Integration Accuracy     IntAcc      ... 3.816
Radial Grid Type                 RadialGrid  ... OptM3 with GC (2021)
Angular Grid (max. ang.)         AngularGrid ... 1 (Lebedev-50)
Angular grid pruning method      GridPruning ... 4 (adaptive)
Weight generation scheme         WeightScheme... Becke
Basis function cutoff            BFCut       ... 1.0000e-11
Integration weight cutoff        WCut        ... 1.0000e-14
Angular grids for H and He will be reduced by one unit
Partially contracted basis set               ... on
Rotationally invariant grid construction     ... off

Total number of grid points                  ...    27234
Total number of batches                      ...      447
Average number of points per batch           ...       60
Average number of grid points per atom       ...      619
UseSFitting                                  ... on

GRIDX 2
-------
General Integration Accuracy     IntAcc      ... 4.020
Radial Grid Type                 RadialGrid  ... OptM3 with GC (2021)
Angular Grid (max. ang.)         AngularGrid ... 2 (Lebedev-110)
Angular grid pruning method      GridPruning ... 4 (adaptive)
Weight generation scheme         WeightScheme... Becke
Basis function cutoff            BFCut       ... 1.0000e-11
Integration weight cutoff        WCut        ... 1.0000e-14
Angular grids for H and He will be reduced by one unit
Partially contracted basis set               ... on
Rotationally invariant grid construction     ... off

Total number of grid points                  ...    59534
Total number of batches                      ...      952
Average number of points per batch           ...       62
Average number of grid points per atom       ...     1353
UseSFitting                                  ... on

GRIDX 3
-------
General Integration Accuracy     IntAcc      ... 4.338
Radial Grid Type                 RadialGrid  ... OptM3 with GC (2021)
Angular Grid (max. ang.)         AngularGrid ... 3 (Lebedev-194)
Angular grid pruning method      GridPruning ... 4 (adaptive)
Weight generation scheme         WeightScheme... Becke
Basis function cutoff            BFCut       ... 1.0000e-11
Integration weight cutoff        WCut        ... 1.0000e-14
Angular grids for H and He will be reduced by one unit
Partially contracted basis set               ... on
Rotationally invariant grid construction     ... off

Total number of grid points                  ...   130094
Total number of batches                      ...     2053
Average number of points per batch           ...       63
Average number of grid points per atom       ...     2957
UseSFitting                                  ... on

Time for X-Grid setup             =    2.769 sec


--------------------
CPCM SOLVATION MODEL
--------------------
CPCM parameters:
  Epsilon                                         ...      47.2000
  Refrac                                          ...       1.4790
  Rsolv                                           ...       1.3000
  Surface type                                    ... GAUSSIAN VDW
  Epsilon function type                           ...         CPCM
Radii:
 Radius for C  used is    3.8550 Bohr (=   2.0400 Ang.)
 Radius for N  used is    3.5149 Bohr (=   1.8600 Ang.)
 Radius for O  used is    3.4469 Bohr (=   1.8240 Ang.)
 Radius for H  used is    2.4944 Bohr (=   1.3200 Ang.)
Calculating surface                               ...        done! (  0.0s)
GEPOL surface points                              ...         2243
GEPOL Volume                                      ...    2760.9964
GEPOL Surface-area                                ...    1348.2102
Calculating surface distance matrix               ...        done! (  0.1s)
Performing Cholesky decomposition & store         ...        done! (  0.3s)
Overall time for CPCM initialization              ...                 0.4s
--------------
SCF ITERATIONS
--------------
ITER       Energy         Delta-E        Max-DP      RMS-DP      [F,P]     Damp
               ***  Starting incremental Fock matrix formation  ***
  0  -1347.0445629362   0.000000000000 0.33724833  0.00079729  0.2702482 0.7000
  1  -1347.3229053063  -0.278342370086 0.26744501  0.00064128  0.1095799 0.7000
                               ***Turning on DIIS***
  2  -1347.4265534201  -0.103648113833 0.29265275  0.00106031  0.0314267 0.0000
  3  -1347.6099060401  -0.183352619948 0.22291237  0.00049740  0.0530286 0.0000
  4  -1347.6382799910  -0.028373950941 0.02293067  0.00017953  0.0228750 0.0000
  5  -1347.6409105198  -0.002630528829 0.02574742  0.00006222  0.0052210 0.0000
                      *** Initiating the SOSCF procedure ***
                           *** Shutting down DIIS ***
                      *** Re-Reading the Fockian *** 
                      *** Removing any level shift *** 
ITER      Energy       Delta-E        Grad      Rot      Max-DP    RMS-DP
  6  -1347.64102360  -0.0001130777  0.000205  0.000205  0.003081  0.000016
               *** Restarting incremental Fock matrix formation ***
  7  -1347.64103138  -0.0000077816  0.000130  0.000768  0.002689  0.000020
  8  -1347.64102983   0.0000015451  0.000252  0.000406  0.000766  0.000006
  9  -1347.64103428  -0.0000044478  0.000046  0.000135  0.001391  0.000005
 10  -1347.64103400   0.0000002835  0.000067  0.000079  0.001179  0.000002
 11  -1347.64103441  -0.0000004101  0.000008  0.000030  0.000400  0.000002
 12  -1347.64103440   0.0000000090  0.000016  0.000021  0.000061  0.000000
                  ***Gradient check signals convergence***
              ***Rediagonalizing the Fockian in SOSCF/NRSCF***

               *****************************************************
               *                     SUCCESS                       *
               *           SCF CONVERGED AFTER  13 CYCLES          *
               *****************************************************

Old exchange energy                            =    -42.848773952 Eh
New exchange energy                            =    -42.848805935 Eh
Exchange energy change after final integration =     -0.000031983 Eh
Total energy after final integration           =  -1347.641066398 Eh
Final COS-X integration done in                =    19.923 sec

----------------
TOTAL SCF ENERGY
----------------

Total Energy       :        -1347.64106640 Eh          -36671.17774 eV

Components:
Nuclear Repulsion  :         2711.78760746 Eh           73791.49229 eV
Electronic Energy  :        -4059.42867386 Eh         -110462.67003 eV
One Electron Energy:        -7234.24626008 Eh         -196853.84859 eV
Two Electron Energy:         3174.81758622 Eh           86391.17856 eV
Max COSX asymmetry :            0.00000197 Eh               0.00005 eV
CPCM Dielectric    :           -0.05119362 Eh              -1.39305 eV

Virial components:
Potential Energy   :        -2689.19520950 Eh          -73176.72188 eV
Kinetic Energy     :         1341.55414310 Eh           36505.54414 eV
Virial Ratio       :            2.00453722


DFT components:
N(Alpha)           :       97.999917356459 electrons
N(Beta)            :       97.999917356459 electrons
N(Total)           :      195.999834712917 electrons
E(X)               :     -128.468558135049 Eh       
E(C)               :       -6.653946251864 Eh       
E(XC)              :     -135.122504386913 Eh       
DFET-embed. en.    :        0.000000000000 Eh       
CPCM Solvation Model Properties:
Surface-charge          :           -0.02777746
Charge-correction       :           -0.00022555 Eh              -0.00614 eV
Free-energy (cav+disp)  :  This term is not implemented in the current solvation scheme

---------------
SCF CONVERGENCE
---------------

  Last Energy change         ...   -1.5773e-08  Tolerance :   1.0000e-08
  Last MAX-Density change    ...    2.8866e-15  Tolerance :   1.0000e-07
  Last RMS-Density change    ...    1.4745e-17  Tolerance :   5.0000e-09
  Last Orbital Gradient      ...    2.1747e-06  Tolerance :   1.0000e-05
  Last Orbital Rotation      ...    6.0884e-06  Tolerance :   1.0000e-05

             **** THE GBW FILE WAS UPDATED (TS2_NO2/TS2_NO2.gbw) ****
             **** DENSITY TS2_NO2/TS2_NO2.scfp WAS UPDATED ****
             **** ENERGY FILE WAS UPDATED (TS2_NO2/TS2_NO2.en.tmp) ****
             **** THE GBW FILE WAS UPDATED (TS2_NO2/TS2_NO2.gbw) ****
             **** DENSITY TS2_NO2/TS2_NO2.scfp WAS UPDATED ****
----------------
ORBITAL ENERGIES
----------------

  NO   OCC          E(Eh)            E(eV) 
   0   2.0000     -19.273111      -524.4480 
   1   2.0000     -19.255489      -523.9685 
   2   2.0000     -19.247566      -523.7529 
   3   2.0000     -19.237691      -523.4842 
   4   2.0000     -19.231250      -523.3089 
   5   2.0000     -19.230422      -523.2864 
   6   2.0000     -19.214408      -522.8506 
   7   2.0000     -14.624631      -397.9564 
   8   2.0000     -14.620414      -397.8417 
   9   2.0000     -14.439674      -392.9235 
  10   2.0000     -10.375514      -282.3321 
  11   2.0000     -10.341135      -281.3966 
  12   2.0000     -10.314583      -280.6741 
  13   2.0000     -10.296415      -280.1797 
  14   2.0000     -10.287213      -279.9293 
  15   2.0000     -10.286115      -279.8994 
  16   2.0000     -10.278044      -279.6798 
  17   2.0000     -10.276709      -279.6435 
  18   2.0000     -10.269747      -279.4540 
  19   2.0000     -10.262405      -279.2542 
  20   2.0000     -10.253213      -279.0041 
  21   2.0000     -10.252711      -278.9904 
  22   2.0000     -10.246157      -278.8121 
  23   2.0000     -10.236423      -278.5472 
  24   2.0000     -10.234633      -278.4985 
  25   2.0000     -10.230595      -278.3886 
  26   2.0000     -10.226719      -278.2832 
  27   2.0000      -1.273210       -34.6458 
  28   2.0000      -1.256606       -34.1940 
  29   2.0000      -1.165427       -31.7129 
  30   2.0000      -1.112761       -30.2798 
  31   2.0000      -1.087085       -29.5811 
  32   2.0000      -1.079996       -29.3882 
  33   2.0000      -1.072062       -29.1723 
  34   2.0000      -1.014063       -27.5941 
  35   2.0000      -0.925744       -25.1908 
  36   2.0000      -0.889380       -24.2013 
  37   2.0000      -0.858500       -23.3610 
  38   2.0000      -0.840021       -22.8581 
  39   2.0000      -0.812022       -22.0962 
  40   2.0000      -0.798467       -21.7274 
  41   2.0000      -0.780562       -21.2402 
  42   2.0000      -0.773590       -21.0505 
  43   2.0000      -0.758306       -20.6346 
  44   2.0000      -0.720230       -19.5985 
  45   2.0000      -0.697745       -18.9866 
  46   2.0000      -0.678732       -18.4692 
  47   2.0000      -0.665996       -18.1227 
  48   2.0000      -0.631446       -17.1825 
  49   2.0000      -0.618329       -16.8256 
  50   2.0000      -0.615864       -16.7585 
  51   2.0000      -0.601562       -16.3693 
  52   2.0000      -0.585346       -15.9281 
  53   2.0000      -0.584340       -15.9007 
  54   2.0000      -0.566711       -15.4210 
  55   2.0000      -0.563152       -15.3241 
  56   2.0000      -0.549416       -14.9504 
  57   2.0000      -0.545440       -14.8422 
  58   2.0000      -0.539166       -14.6714 
  59   2.0000      -0.534518       -14.5450 
  60   2.0000      -0.523043       -14.2327 
  61   2.0000      -0.519883       -14.1467 
  62   2.0000      -0.517145       -14.0722 
  63   2.0000      -0.512409       -13.9433 
  64   2.0000      -0.501633       -13.6501 
  65   2.0000      -0.496484       -13.5100 
  66   2.0000      -0.493693       -13.4341 
  67   2.0000      -0.478555       -13.0221 
  68   2.0000      -0.466971       -12.7069 
  69   2.0000      -0.460256       -12.5242 
  70   2.0000      -0.455350       -12.3907 
  71   2.0000      -0.453411       -12.3379 
  72   2.0000      -0.443066       -12.0564 
  73   2.0000      -0.435536       -11.8515 
  74   2.0000      -0.432672       -11.7736 
  75   2.0000      -0.421022       -11.4566 
  76   2.0000      -0.417712       -11.3665 
  77   2.0000      -0.399078       -10.8595 
  78   2.0000      -0.394898       -10.7457 
  79   2.0000      -0.388537       -10.5726 
  80   2.0000      -0.384632       -10.4664 
  81   2.0000      -0.384450       -10.4614 
  82   2.0000      -0.370587       -10.0842 
  83   2.0000      -0.346616        -9.4319 
  84   2.0000      -0.346067        -9.4170 
  85   2.0000      -0.345969        -9.4143 
  86   2.0000      -0.342740        -9.3264 
  87   2.0000      -0.337151        -9.1743 
  88   2.0000      -0.330670        -8.9980 
  89   2.0000      -0.326602        -8.8873 
  90   2.0000      -0.324618        -8.8333 
  91   2.0000      -0.323507        -8.8031 
  92   2.0000      -0.310776        -8.4566 
  93   2.0000      -0.298180        -8.1139 
  94   2.0000      -0.294453        -8.0125 
  95   2.0000      -0.276617        -7.5271 
  96   2.0000      -0.260036        -7.0759 
  97   2.0000      -0.241279        -6.5655 
  98   0.0000      -0.090257        -2.4560 
  99   0.0000      -0.055821        -1.5190 
 100   0.0000      -0.049977        -1.3600 
 101   0.0000      -0.034636        -0.9425 
 102   0.0000      -0.020345        -0.5536 
 103   0.0000      -0.002172        -0.0591 
 104   0.0000       0.017735         0.4826 
 105   0.0000       0.043568         1.1855 
 106   0.0000       0.050863         1.3840 
 107   0.0000       0.062313         1.6956 
 108   0.0000       0.066214         1.8018 
 109   0.0000       0.070442         1.9168 
 110   0.0000       0.079988         2.1766 
 111   0.0000       0.081629         2.2212 
 112   0.0000       0.088031         2.3954 
 113   0.0000       0.094955         2.5839 
 114   0.0000       0.098100         2.6694 
 115   0.0000       0.101104         2.7512 
 116   0.0000       0.112288         3.0555 
 117   0.0000       0.117623         3.2007 
 118   0.0000       0.121684         3.3112 
 119   0.0000       0.125832         3.4241 
 120   0.0000       0.127892         3.4801 
 121   0.0000       0.129026         3.5110 
 122   0.0000       0.132190         3.5971 
 123   0.0000       0.136824         3.7232 
 124   0.0000       0.142641         3.8814 
 125   0.0000       0.146065         3.9746 
 126   0.0000       0.150651         4.0994 
 127   0.0000       0.155713         4.2372 
 128   0.0000       0.158044         4.3006 
 129   0.0000       0.165023         4.4905 
 130   0.0000       0.169861         4.6222 
 131   0.0000       0.173420         4.7190 
 132   0.0000       0.186359         5.0711 
 133   0.0000       0.196980         5.3601 
 134   0.0000       0.200320         5.4510 
 135   0.0000       0.208091         5.6625 
 136   0.0000       0.209284         5.6949 
 137   0.0000       0.214500         5.8368 
 138   0.0000       0.214744         5.8435 
 139   0.0000       0.219174         5.9640 
 140   0.0000       0.220308         5.9949 
 141   0.0000       0.222890         6.0652 
 142   0.0000       0.229627         6.2485 
 143   0.0000       0.234140         6.3713 
 144   0.0000       0.236184         6.4269 
 145   0.0000       0.241811         6.5800 
 146   0.0000       0.246333         6.7031 
 147   0.0000       0.248206         6.7540 
 148   0.0000       0.249891         6.7999 
 149   0.0000       0.258143         7.0244 
 150   0.0000       0.263262         7.1637 
 151   0.0000       0.264677         7.2022 
 152   0.0000       0.275548         7.4981 
 153   0.0000       0.276798         7.5321 
 154   0.0000       0.280773         7.6402 
 155   0.0000       0.285181         7.7602 
 156   0.0000       0.291581         7.9343 
 157   0.0000       0.296280         8.0622 
 158   0.0000       0.300580         8.1792 
 159   0.0000       0.305282         8.3072 
 160   0.0000       0.311045         8.4640 
 161   0.0000       0.314710         8.5637 
 162   0.0000       0.321636         8.7522 
 163   0.0000       0.325920         8.8687 
 164   0.0000       0.327521         8.9123 
 165   0.0000       0.333959         9.0875 
 166   0.0000       0.339952         9.2506 
 167   0.0000       0.341138         9.2828 
 168   0.0000       0.343445         9.3456 
 169   0.0000       0.346649         9.4328 
 170   0.0000       0.350879         9.5479 
 171   0.0000       0.355498         9.6736 
 172   0.0000       0.359241         9.7754 
 173   0.0000       0.363466         9.8904 
 174   0.0000       0.369091        10.0435 
 175   0.0000       0.371680        10.1139 
 176   0.0000       0.379482        10.3262 
 177   0.0000       0.385871        10.5001 
 178   0.0000       0.389596        10.6015 
 179   0.0000       0.393590        10.7101 
 180   0.0000       0.397481        10.8160 
[...]
 23:    184.09   0.000987    4.99  0.001672  (-0.014766 -0.012468 -0.036041)
 24:    197.50   0.000346    1.75  0.000547  ( 0.021728 -0.004086  0.007603)
 25:    218.39   0.000155    0.78  0.000221  ( 0.011018 -0.005506 -0.008328)
 26:    238.40   0.001212    6.13  0.001587  ( 0.026355 -0.027353 -0.012011)
 27:    249.82   0.000168    0.85  0.000210  (-0.010406  0.003802  0.009360)
 28:    262.60   0.001857    9.38  0.002207  ( 0.023889  0.037846 -0.014274)
 29:    285.13   0.000127    0.64  0.000139  (-0.001339  0.009410 -0.006981)
 30:    300.52   0.003055   15.44  0.003173  ( 0.003476  0.043961 -0.035042)
 31:    321.14   0.001680    8.49  0.001632  (-0.025002 -0.031313 -0.005155)
 32:    344.58   0.000919    4.64  0.000832  ( 0.010898  0.009941  0.024787)
 33:    360.62   0.006329   31.99  0.005477  ( 0.037874 -0.062586  0.011209)
 34:    393.79   0.000002    0.01  0.000001  ( 0.000977 -0.000593  0.000130)
 35:    441.85   0.002544   12.86  0.001797  (-0.031140 -0.028599  0.003047)
 36:    451.84   0.000965    4.88  0.000666  ( 0.022544 -0.012238 -0.002872)
 37:    476.32   0.000821    4.15  0.000538  (-0.021716 -0.007254 -0.003741)
 38:    489.62   0.001679    8.48  0.001070  ( 0.027836  0.010607  0.013519)
 39:    518.06   0.001102    5.57  0.000664  (-0.011776  0.016892 -0.015480)
 40:    558.44   0.001576    7.97  0.000881  (-0.019556  0.021915 -0.004260)
 41:    583.27   0.002901   14.66  0.001552  (-0.000476  0.027411  0.028293)
 42:    612.93   0.003991   20.17  0.002032  ( 0.042823  0.009301  0.010571)
 43:    631.59   0.010101   51.05  0.004991  (-0.044421  0.052746 -0.015343)
 44:    636.17   0.002821   14.26  0.001384  (-0.033619  0.015569 -0.003344)
 45:    660.11   0.000092    0.46  0.000043  (-0.006522  0.000671 -0.000590)
 46:    710.83   0.018284   92.40  0.008027  ( 0.013341  0.086286 -0.020092)
 47:    723.50   0.007768   39.25  0.003350  ( 0.020372 -0.053218  0.010159)
 48:    739.91   0.005247   26.52  0.002213  ( 0.041013  0.015244  0.017276)
 49:    756.82   0.001544    7.80  0.000637  (-0.001239 -0.024817 -0.004398)
 50:    767.66   0.013540   68.43  0.005504  (-0.048500  0.044679 -0.033997)
 51:    773.92   0.012494   63.14  0.005038  (-0.008132  0.063022 -0.031620)
 52:    776.72   0.001089    5.51  0.000438  (-0.001296  0.017582 -0.011265)
 53:    781.18   0.005927   29.95  0.002368  ( 0.045898  0.002888  0.015903)
 54:    788.03   0.009616   48.59  0.003808  ( 0.017669 -0.044886 -0.038483)
 55:    804.72   0.004425   22.36  0.001716  ( 0.006465 -0.036103 -0.019256)
 56:    818.56   0.003152   15.93  0.001202  (-0.014993  0.019997 -0.024018)
 57:    853.30   0.005233   26.45  0.001914  (-0.017363  0.015007 -0.037243)
 58:    874.29   0.002928   14.80  0.001045  ( 0.013976 -0.026745  0.011601)
 59:    893.75   0.000007    0.03  0.000002  (-0.000332  0.001462  0.000278)
 60:    901.66   0.020884  105.54  0.007228  (-0.018034  0.072400 -0.040756)
 61:    962.68   0.000826    4.17  0.000268  ( 0.010042  0.003959  0.012297)
 62:    969.45   0.002831   14.31  0.000911  ( 0.000500 -0.029594 -0.005944)
 63:    978.14   0.000262    1.32  0.000084  (-0.002987 -0.008594  0.000878)
 64:    994.65   0.000032    0.16  0.000010  ( 0.000960 -0.002914 -0.000817)
 65:   1015.36   0.000047    0.24  0.000015  (-0.002301 -0.002886 -0.000946)
 66:   1030.36   0.006992   35.34  0.002118  (-0.031045 -0.007401 -0.033154)
 67:   1041.08   0.001327    6.71  0.000398  ( 0.009943 -0.017177 -0.001982)
 68:   1041.66   0.011896   60.12  0.003564  ( 0.032658 -0.049689 -0.005318)
 69:   1059.91   0.000273    1.38  0.000080  ( 0.001922  0.002013 -0.008517)
 70:   1073.07   0.011086   56.02  0.003224  (-0.044970 -0.026760  0.022033)
 71:   1085.84   0.007908   39.96  0.002273  ( 0.014861  0.004943 -0.045027)
 72:   1093.62   0.019124   96.65  0.005457  (-0.044998  0.052047 -0.026897)
 73:   1107.21   0.004307   21.77  0.001214  (-0.021310 -0.017460  0.021332)
 74:   1113.58   0.003416   17.26  0.000957  ( 0.010657 -0.008403  0.027804)
 75:   1130.47   0.096923  489.81  0.026755  ( 0.025647 -0.132364  0.092614)
 76:   1141.58   0.068109  344.19  0.018618  ( 0.046631  0.078396 -0.101479)
 77:   1168.47   0.000928    4.69  0.000248  (-0.002533 -0.001695 -0.015448)
 78:   1170.78   0.000191    0.96  0.000051  ( 0.004043 -0.004460  0.003814)
 79:   1171.25   0.000464    2.35  0.000124  ( 0.010044  0.002486 -0.004080)
 80:   1176.03   0.001332    6.73  0.000354  ( 0.014564  0.007110 -0.009532)
 81:   1192.53   0.008779   44.37  0.002297  (-0.011772 -0.043814  0.015460)
 82:   1196.53   0.012382   62.58  0.003229  (-0.008215 -0.056063  0.004344)
 83:   1213.33   0.001784    9.01  0.000459  ( 0.016378  0.007972 -0.011266)
 84:   1217.34   0.001742    8.80  0.000447  (-0.010829 -0.017185 -0.005836)
 85:   1231.00   0.009547   48.25  0.002420  ( 0.024134  0.023581 -0.035802)
 86:   1239.84   0.003665   18.52  0.000923  ( 0.021796 -0.012699  0.016919)
 87:   1247.18   0.125020  631.80  0.031282  ( 0.019737  0.152782 -0.086890)
 88:   1288.76   0.069155  349.48  0.016745  ( 0.015030 -0.121010  0.043312)
 89:   1305.94   0.059504  300.71  0.014219  (-0.061828  0.025976  0.098598)
 90:   1324.84   0.006054   30.60  0.001426  (-0.004024  0.037304  0.004280)
 91:   1338.03   0.057912  292.67  0.013507  ( 0.008548 -0.070747  0.091806)
 92:   1340.14   0.031499  159.18  0.007335  ( 0.011561 -0.064894  0.054681)
 93:   1364.75   0.124248  627.90  0.028411  ( 0.057789  0.089204 -0.130820)
 94:   1381.48   0.001910    9.65  0.000431  ( 0.010210 -0.001608  0.018016)
 95:   1382.84   0.060744  306.97  0.013708  (-0.076572 -0.050163  0.072996)
 96:   1398.19   0.042177  213.14  0.009413  ( 0.081143 -0.049021  0.020645)
 97:   1424.40   0.013741   69.44  0.003010  ( 0.010637  0.051830 -0.014524)
 98:   1465.86   0.003797   19.19  0.000808  ( 0.027338 -0.005967 -0.005038)
 99:   1466.00   0.005635   28.48  0.001199  (-0.002484  0.017335  0.029880)
100:   1471.42   0.004806   24.29  0.001019  (-0.001959 -0.022977  0.022080)
101:   1473.91   0.003154   15.94  0.000668  (-0.011458  0.022481 -0.005574)
102:   1480.43   0.016363   82.69  0.003449  ( 0.022364  0.053495  0.009342)
103:   1483.52   0.004659   23.54  0.000980  (-0.002896  0.010994  0.029167)
104:   1491.15   0.015591   78.79  0.003263  (-0.007099 -0.000677 -0.056675)
105:   1498.45   0.011408   57.65  0.002376  (-0.018721  0.012621  0.043197)
106:   1526.10   0.000458    2.32  0.000094  (-0.009559  0.000835  0.001273)
107:   1529.86   0.025677  129.76  0.005238  ( 0.070476 -0.014097  0.008491)
108:   1541.68   0.040087  202.58  0.008114  (-0.039754  0.031741  0.074340)
109:   1615.87   0.219000  1106.74  0.042294  (-0.198171 -0.022461  0.050177)
110:   1648.26   0.001741    8.80  0.000330  ( 0.001874  0.003393  0.017735)
111:   1650.94   0.001312    6.63  0.000248  ( 0.007494  0.000181 -0.013849)
112:   1664.21   0.012395   62.64  0.002324  (-0.045241  0.011754  0.011805)
113:   1664.74   0.011820   59.73  0.002216  (-0.002290  0.020592  0.042266)
114:   1789.56   0.088988  449.71  0.015518  ( 0.038118 -0.019707  0.116946)
115:   3038.07   0.011935   60.31  0.001226  ( 0.028471  0.007396 -0.018991)
116:   3074.53   0.005036   25.45  0.000511  ( 0.005879  0.021234  0.005071)
117:   3110.32   0.007521   38.01  0.000755  (-0.011894  0.020752 -0.013510)
118:   3130.49   0.001303    6.59  0.000130  ( 0.006739  0.006082 -0.006894)
119:   3159.58   0.003305   16.70  0.000326  ( 0.017326 -0.002427 -0.004509)
120:   3166.44   0.003598   18.18  0.000355  (-0.000863 -0.010487 -0.015615)
121:   3182.83   0.000778    3.93  0.000076  (-0.007521 -0.004140  0.001605)
122:   3195.78   0.001788    9.03  0.000175  ( 0.001286 -0.007610  0.010723)
123:   3196.11   0.001399    7.07  0.000137  ( 0.008639  0.007511  0.002357)
124:   3196.92   0.000688    3.48  0.000067  ( 0.006077 -0.000605  0.005463)
125:   3202.36   0.000837    4.23  0.000082  (-0.008970  0.000706  0.000766)
126:   3212.46   0.000073    0.37  0.000007  ( 0.002107 -0.000827 -0.001405)
127:   3215.34   0.002605   13.17  0.000253  (-0.001325  0.007663  0.013871)
128:   3229.90   0.000228    1.15  0.000022  (-0.000402 -0.000698 -0.004620)
129:   3232.92   0.000381    1.93  0.000037  (-0.004919 -0.002158  0.002816)
130:   3234.19   0.000324    1.64  0.000031  (-0.005422  0.001321  0.000366)
131:   3273.91   0.000514    2.60  0.000049  (-0.002795  0.000616  0.006384)

* The epsilon (eps) is given for a Dirac delta lineshape.
** The dipole moment derivative (T) already includes vibrational overlap.

The first frequency considered to be a vibration is 7
The total number of vibrations considered is 125


--------------------------
THERMOCHEMISTRY AT 298.15K
--------------------------

Temperature         ... 298.15 K
Pressure            ... 1.00 atm
Total Mass          ... 375.34 AMU

Throughout the following assumptions are being made:
  (1) The electronic state is orbitally nondegenerate
  (2) There are no thermally accessible electronically excited states
  (3) Hindered rotations indicated by low frequency modes are not
      treated as such but are treated as vibrations and this may
      cause some error
  (4) All equations used are the standard statistical mechanics
      equations for an ideal gas
  (5) All vibrations are strictly harmonic

freq.      17.09  E(vib)   ...       0.57 
freq.      32.63  E(vib)   ...       0.55 
freq.      39.97  E(vib)   ...       0.54 
freq.      51.66  E(vib)   ...       0.52 
freq.      53.57  E(vib)   ...       0.52 
freq.      61.10  E(vib)   ...       0.51 
freq.      70.54  E(vib)   ...       0.50 
freq.      74.32  E(vib)   ...       0.49 
freq.      87.79  E(vib)   ...       0.48 
freq.      99.56  E(vib)   ...       0.46 
freq.     103.94  E(vib)   ...       0.46 
freq.     130.44  E(vib)   ...       0.43 
freq.     149.13  E(vib)   ...       0.40 
freq.     152.02  E(vib)   ...       0.40 
freq.     160.98  E(vib)   ...       0.39 
freq.     176.61  E(vib)   ...       0.38 
freq.     184.09  E(vib)   ...       0.37 
freq.     197.50  E(vib)   ...       0.35 
freq.     218.39  E(vib)   ...       0.33 
freq.     238.40  E(vib)   ...       0.32 
freq.     249.82  E(vib)   ...       0.31 
freq.     262.60  E(vib)   ...       0.29 
freq.     285.13  E(vib)   ...       0.28 
freq.     300.52  E(vib)   ...       0.26 
freq.     321.14  E(vib)   ...       0.25 
freq.     344.58  E(vib)   ...       0.23 
freq.     360.62  E(vib)   ...       0.22 
freq.     393.79  E(vib)   ...       0.20 
freq.     441.85  E(vib)   ...       0.17 
freq.     451.84  E(vib)   ...       0.16 
freq.     476.32  E(vib)   ...       0.15 
freq.     489.62  E(vib)   ...       0.15 
freq.     518.06  E(vib)   ...       0.13 
freq.     558.44  E(vib)   ...       0.12 
freq.     583.27  E(vib)   ...       0.11 
freq.     612.93  E(vib)   ...       0.10 
freq.     631.59  E(vib)   ...       0.09 
freq.     636.17  E(vib)   ...       0.09 
freq.     660.11  E(vib)   ...       0.08 
freq.     710.83  E(vib)   ...       0.07 
freq.     723.50  E(vib)   ...       0.06 
freq.     739.91  E(vib)   ...       0.06 
freq.     756.82  E(vib)   ...       0.06 
freq.     767.66  E(vib)   ...       0.06 
freq.     773.92  E(vib)   ...       0.05 
freq.     776.72  E(vib)   ...       0.05 
freq.     781.18  E(vib)   ...       0.05 
freq.     788.03  E(vib)   ...       0.05 
freq.     804.72  E(vib)   ...       0.05 
freq.     818.56  E(vib)   ...       0.05 
freq.     853.30  E(vib)   ...       0.04 
freq.     874.29  E(vib)   ...       0.04 
freq.     893.75  E(vib)   ...       0.03 
freq.     901.66  E(vib)   ...       0.03 
freq.     962.68  E(vib)   ...       0.03 
freq.     969.45  E(vib)   ...       0.03 
freq.     978.14  E(vib)   ...       0.03 
freq.     994.65  E(vib)   ...       0.02 
freq.    1015.36  E(vib)   ...       0.02 
freq.    1030.36  E(vib)   ...       0.02 
freq.    1041.08  E(vib)   ...       0.02 
freq.    1041.66  E(vib)   ...       0.02 
freq.    1059.91  E(vib)   ...       0.02 
freq.    1073.07  E(vib)   ...       0.02 
freq.    1085.84  E(vib)   ...       0.02 
freq.    1093.62  E(vib)   ...       0.02 
freq.    1107.21  E(vib)   ...       0.02 
freq.    1113.58  E(vib)   ...       0.01 
freq.    1130.47  E(vib)   ...       0.01 
freq.    1141.58  E(vib)   ...       0.01 
freq.    1168.47  E(vib)   ...       0.01 
freq.    1170.78  E(vib)   ...       0.01 
freq.    1171.25  E(vib)   ...       0.01 
freq.    1176.03  E(vib)   ...       0.01 
freq.    1192.53  E(vib)   ...       0.01 
freq.    1196.53  E(vib)   ...       0.01 
freq.    1213.33  E(vib)   ...       0.01 
freq.    1217.34  E(vib)   ...       0.01 
freq.    1231.00  E(vib)   ...       0.01 
freq.    1239.84  E(vib)   ...       0.01 
freq.    1247.18  E(vib)   ...       0.01 
freq.    1288.76  E(vib)   ...       0.01 
freq.    1305.94  E(vib)   ...       0.01 
freq.    1324.84  E(vib)   ...       0.01 
freq.    1338.03  E(vib)   ...       0.01 
freq.    1340.14  E(vib)   ...       0.01 
freq.    1364.75  E(vib)   ...       0.01 
freq.    1381.48  E(vib)   ...       0.01 
freq.    1382.84  E(vib)   ...       0.01 
freq.    1398.19  E(vib)   ...       0.00 
freq.    1424.40  E(vib)   ...       0.00 
freq.    1465.86  E(vib)   ...       0.00 
freq.    1466.00  E(vib)   ...       0.00 
freq.    1471.42  E(vib)   ...       0.00 
freq.    1473.91  E(vib)   ...       0.00 
freq.    1480.43  E(vib)   ...       0.00 
freq.    1483.52  E(vib)   ...       0.00 
freq.    1491.15  E(vib)   ...       0.00 
freq.    1498.45  E(vib)   ...       0.00 
freq.    1526.10  E(vib)   ...       0.00 
freq.    1529.86  E(vib)   ...       0.00 
freq.    1541.68  E(vib)   ...       0.00 
freq.    1615.87  E(vib)   ...       0.00 
freq.    1648.26  E(vib)   ...       0.00 
freq.    1650.94  E(vib)   ...       0.00 
freq.    1664.21  E(vib)   ...       0.00 
freq.    1664.74  E(vib)   ...       0.00 
freq.    1789.56  E(vib)   ...       0.00 
freq.    3038.07  E(vib)   ...       0.00 
freq.    3074.53  E(vib)   ...       0.00 
freq.    3110.32  E(vib)   ...       0.00 
freq.    3130.49  E(vib)   ...       0.00 
freq.    3159.58  E(vib)   ...       0.00 
freq.    3166.44  E(vib)   ...       0.00 
freq.    3182.83  E(vib)   ...       0.00 
freq.    3195.78  E(vib)   ...       0.00 
freq.    3196.11  E(vib)   ...       0.00 
freq.    3196.92  E(vib)   ...       0.00 
freq.    3202.36  E(vib)   ...       0.00 
freq.    3212.46  E(vib)   ...       0.00 
freq.    3215.34  E(vib)   ...       0.00 
freq.    3229.90  E(vib)   ...       0.00 
freq.    3232.92  E(vib)   ...       0.00 
freq.    3234.19  E(vib)   ...       0.00 
freq.    3273.91  E(vib)   ...       0.00 

------------
INNER ENERGY
------------

The inner energy is: U= E(el) + E(ZPE) + E(vib) + E(rot) + E(trans)
    E(el)   - is the total energy from the electronic structure calculation
              = E(kin-el) + E(nuc-el) + E(el-el) + E(nuc-nuc)
    E(ZPE)  - the the zero temperature vibrational energy from the frequency calculation
    E(vib)  - the the finite temperature correction to E(ZPE) due to population
              of excited vibrational states
    E(rot)  - is the rotational thermal energy
    E(trans)- is the translational thermal energy

Summary of contributions to the inner energy U:
Electronic energy                ...  -1347.70078912 Eh
Zero point energy                ...      0.33482090 Eh     210.10 kcal/mol
Thermal vibrational correction   ...      0.02170283 Eh      13.62 kcal/mol
Thermal rotational correction    ...      0.00141627 Eh       0.89 kcal/mol
Thermal translational correction ...      0.00141627 Eh       0.89 kcal/mol
-----------------------------------------------------------------------
Total thermal energy                  -1347.34143284 Eh


Summary of corrections to the electronic energy:
(perhaps to be used in another calculation)
Total thermal correction                  0.02453537 Eh      15.40 kcal/mol
Non-thermal (ZPE) correction              0.33482090 Eh     210.10 kcal/mol
-----------------------------------------------------------------------
Total correction                          0.35935628 Eh     225.50 kcal/mol


--------
ENTHALPY
--------

The enthalpy is H = U + kB*T
                kB is Boltzmann's constant
Total free energy                 ...  -1347.34143284 Eh 
Thermal Enthalpy correction       ...      0.00094421 Eh       0.59 kcal/mol
-----------------------------------------------------------------------
Total Enthalpy                    ...  -1347.34048863 Eh


Note: Only C1 symmetry has been detected, increase convergence thresholds 
      if your molecule has a higher symmetry. Symmetry factor of 1.0 is   
      used for the rotational entropy correction. 
 

Note: Rotational entropy computed according to Herzberg 
Infrared and Raman Spectra, Chapter V,1, Van Nostrand Reinhold, 1945 
Point Group:  C1, Symmetry Number:   1  
Rotational constants in cm-1:     0.007959     0.006837     0.004776 

Vibrational entropy computed according to the QRRHO of S. Grimme
Chem.Eur.J. 2012 18 9955


-------
ENTROPY
-------

The entropy contributions are T*S = T*(S(el)+S(vib)+S(rot)+S(trans))
     S(el)   - electronic entropy
     S(vib)  - vibrational entropy
     S(rot)  - rotational entropy
     S(trans)- translational entropy
The entropies will be listed as multiplied by the temperature to get
units of energy

Electronic entropy                ...      0.00000000 Eh      0.00 kcal/mol
Vibrational entropy               ...      0.03942972 Eh     24.74 kcal/mol
Rotational entropy                ...      0.01666917 Eh     10.46 kcal/mol
Translational entropy             ...      0.02074448 Eh     13.02 kcal/mol
-----------------------------------------------------------------------
Final entropy term                ...      0.07684337 Eh     48.22 kcal/mol

In case the symmetry of your molecule has not been determined correctly
or in case you have a reason to use a different symmetry number we print 
out the resulting rotational entropy values for sn=1,12 :
 --------------------------------------------------------
|  sn= 1 | S(rot)=       0.01666917 Eh     10.46 kcal/mol|
|  sn= 2 | S(rot)=       0.01601472 Eh     10.05 kcal/mol|
|  sn= 3 | S(rot)=       0.01563188 Eh      9.81 kcal/mol|
|  sn= 4 | S(rot)=       0.01536026 Eh      9.64 kcal/mol|
|  sn= 5 | S(rot)=       0.01514957 Eh      9.51 kcal/mol|
|  sn= 6 | S(rot)=       0.01497743 Eh      9.40 kcal/mol|
|  sn= 7 | S(rot)=       0.01483188 Eh      9.31 kcal/mol|
|  sn= 8 | S(rot)=       0.01470580 Eh      9.23 kcal/mol|
|  sn= 9 | S(rot)=       0.01459459 Eh      9.16 kcal/mol|
|  sn=10 | S(rot)=       0.01449512 Eh      9.10 kcal/mol|
|  sn=11 | S(rot)=       0.01440513 Eh      9.04 kcal/mol|
|  sn=12 | S(rot)=       0.01432297 Eh      8.99 kcal/mol|
 --------------------------------------------------------


-------------------
GIBBS FREE ENERGY
-------------------

The Gibbs free energy is G = H - T*S

Total enthalpy                    ...  -1347.34048863 Eh 
Total entropy correction          ...     -0.07684337 Eh    -48.22 kcal/mol
-----------------------------------------------------------------------
Final Gibbs free energy         ...  -1347.41733200 Eh

For completeness - the Gibbs free energy minus the electronic energy
G-E(el)                           ...      0.28345712 Eh    177.87 kcal/mol


Timings for individual modules:

Sum of individual times         ...    11430.567 sec (= 190.509 min)
GTO integral calculation        ...      122.371 sec (=   2.040 min)   1.1 %
SCF iterations                  ...     5952.103 sec (=  99.202 min)  52.1 %
SCF Gradient evaluation         ...     1653.346 sec (=  27.556 min)  14.5 %
Geometry relaxation             ...        8.753 sec (=   0.146 min)   0.1 %
Analytical frequency calculation...     3693.994 sec (=  61.567 min)  32.3 %
                             ****ORCA TERMINATED NORMALLY****
TOTAL RUN TIME: 0 days 3 hours 12 minutes 31 seconds 860 msec
