
                                 *****************
                                 * O   R   C   A *
                                 *****************

                                            #,                                       
                                            ###                                      
                                            ####                                     
                                            #####                                    
                                            ######                                   
                                           ########,                                 
                                     ,,################,,,,,                         
                               ,,#################################,,                 
                          ,,##########################################,,             
                       ,#########################################, ''#####,          
                    ,#############################################,,   '####,        
                  ,##################################################,,,,####,       
                ,###########''''           ''''###############################       
              ,#####''   ,,,,##########,,,,          '''####'''          '####       
            ,##' ,,,,###########################,,,                        '##       
           ' ,,###''''                  '''############,,,                           
         ,,##''                                '''############,,,,        ,,,,,,###''
      ,#''                                            '''#######################'''  
     '                                                          ''''####''''         
             ,#######,   #######,   ,#######,      ##                                
            ,#'     '#,  ##    ##  ,#'     '#,    #''#        ######   ,####,        
            ##       ##  ##   ,#'  ##            #'  '#       #        #'  '#        
            ##       ##  #######   ##           ,######,      #####,   #    #        
            '#,     ,#'  ##    ##  '#,     ,#' ,#      #,         ##   #,  ,#        
             '#######'   ##     ##  '#######'  #'      '#     #####' # '####'        



                  #######################################################
                  #                        -***-                        #
                  #          Department of theory and spectroscopy      #
                  #    Directorship and core code : Frank Neese         #
                  #        Max Planck Institute fuer Kohlenforschung    #
                  #                Kaiser Wilhelm Platz 1               #
                  #                 D-45470 Muelheim/Ruhr               #
                  #                      Germany                        #
                  #                                                     #
                  #                  All rights reserved                #
                  #                        -***-                        #
                  #######################################################


                         Program Version 5.0.4 -  RELEASE  -


 With contributions from (in alphabetic order):
   Daniel Aravena         : Magnetic Suceptibility
   Michael Atanasov       : Ab Initio Ligand Field Theory (pilot matlab implementation)
   Alexander A. Auer      : GIAO ZORA, VPT2 properties, NMR spectrum
   Ute Becker             : Parallelization
   Giovanni Bistoni       : ED, misc. LED, open-shell LED, HFLD
   Martin Brehm           : Molecular dynamics
   Dmytro Bykov           : SCF Hessian
   Vijay G. Chilkuri      : MRCI spin determinant printing, contributions to CSF-ICE
   Dipayan Datta          : RHF DLPNO-CCSD density
   Achintya Kumar Dutta   : EOM-CC, STEOM-CC
   Dmitry Ganyushin       : Spin-Orbit,Spin-Spin,Magnetic field MRCI
   Miquel Garcia          : C-PCM and meta-GGA Hessian, CC/C-PCM, Gaussian charge scheme
   Yang Guo               : DLPNO-NEVPT2, F12-NEVPT2, CIM, IAO-localization
   Andreas Hansen         : Spin unrestricted coupled pair/coupled cluster methods
   Benjamin Helmich-Paris : MC-RPA, TRAH-SCF, COSX integrals
   Lee Huntington         : MR-EOM, pCC
   Robert Izsak           : Overlap fitted RIJCOSX, COSX-SCS-MP3, EOM
   Marcus Kettner         : VPT2
   Christian Kollmar      : KDIIS, OOCD, Brueckner-CCSD(T), CCSD density, CASPT2, CASPT2-K
   Simone Kossmann        : Meta GGA functionals, TD-DFT gradient, OOMP2, MP2 Hessian
   Martin Krupicka        : Initial AUTO-CI
   Lucas Lang             : DCDCAS
   Marvin Lechner         : AUTO-CI (C++ implementation), FIC-MRCC
   Dagmar Lenk            : GEPOL surface, SMD
   Dimitrios Liakos       : Extrapolation schemes; Compound Job, initial MDCI parallelization
   Dimitrios Manganas     : Further ROCIS development; embedding schemes
   Dimitrios Pantazis     : SARC Basis sets
   Anastasios Papadopoulos: AUTO-CI, single reference methods and gradients
   Taras Petrenko         : DFT Hessian,TD-DFT gradient, ASA, ECA, R-Raman, ABS, FL, XAS/XES, NRVS
   Peter Pinski           : DLPNO-MP2, DLPNO-MP2 Gradient
   Christoph Reimann      : Effective Core Potentials
   Marius Retegan         : Local ZFS, SOC
   Christoph Riplinger    : Optimizer, TS searches, QM/MM, DLPNO-CCSD(T), (RO)-DLPNO pert. Triples
   Tobias Risthaus        : Range-separated hybrids, TD-DFT gradient, RPA, STAB
   Michael Roemelt        : Original ROCIS implementation
   Masaaki Saitow         : Open-shell DLPNO-CCSD energy and density
   Barbara Sandhoefer     : DKH picture change effects
   Avijit Sen             : IP-ROCIS
   Kantharuban Sivalingam : CASSCF convergence, NEVPT2, FIC-MRCI
   Bernardo de Souza      : ESD, SOC TD-DFT
   Georgi Stoychev        : AutoAux, RI-MP2 NMR, DLPNO-MP2 response
   Willem Van den Heuvel  : Paramagnetic NMR
   Boris Wezisla          : Elementary symmetry handling
   Frank Wennmohs         : Technical directorship


 We gratefully acknowledge several colleagues who have allowed us to
 interface, adapt or use parts of their codes:
   Stefan Grimme, W. Hujo, H. Kruse, P. Pracht,  : VdW corrections, initial TS optimization,
                  C. Bannwarth, S. Ehlert          DFT functionals, gCP, sTDA/sTD-DF
   Ed Valeev, F. Pavosevic, A. Kumar             : LibInt (2-el integral package), F12 methods
   Garnet Chan, S. Sharma, J. Yang, R. Olivares  : DMRG
   Ulf Ekstrom                                   : XCFun DFT Library
   Mihaly Kallay                                 : mrcc  (arbitrary order and MRCC methods)
   Jiri Pittner, Ondrej Demel                    : Mk-CCSD
   Frank Weinhold                                : gennbo (NPA and NBO analysis)
   Christopher J. Cramer and Donald G. Truhlar   : smd solvation model
   Lars Goerigk                                  : TD-DFT with DH, B97 family of functionals
   V. Asgeirsson, H. Jonsson                     : NEB implementation
   FAccTs GmbH                                   : IRC, NEB, NEB-TS, DLPNO-Multilevel, CI-OPT
                                                   MM, QMMM, 2- and 3-layer-ONIOM, Crystal-QMMM,
                                                   LR-CPCM, SF, NACMEs, symmetry and pop. for TD-DFT,
                                                   nearIR, NL-DFT gradient (VV10), updates on ESD,
                                                   ML-optimized integration grids
   S Lehtola, MJT Oliveira, MAL Marques          : LibXC Library
   Liviu Ungur et al                             : ANISO software


 Your calculation uses the libint2 library for the computation of 2-el integrals
 For citations please refer to: http://libint.valeyev.net

 Your ORCA version has been built with support for libXC version: 5.1.0
 For citations please refer to: https://tddft.org/programs/libxc/

 This ORCA versions uses:
   CBLAS   interface :  Fast vector & matrix operations
   LAPACKE interface :  Fast linear algebra routines
   SCALAPACK package :  Parallel linear algebra routines
   Shared memory     :  Shared parallel matrices
   BLAS/LAPACK       :  OpenBLAS 0.3.15  USE64BITINT DYNAMIC_ARCH NO_AFFINITY Haswell SINGLE_THREADED
        Core in use  :  Haswell
   Copyright (c) 2011-2014, The OpenBLAS Project


Your calculation utilizes the atom-pairwise dispersion correction
with the Becke-Johnson damping scheme (D3BJ)
Cite in your paper:
S.Grimme, S.Ehrlich, L.Goerigk, J Comput Chem, (2011), 32, 1456–1465 
S.Grimme, J.Antony, S.Ehrlich and H.Krieg, J.Chem.Phys., 132, (2010), 154104 
   

================================================================================

----- Orbital basis set information -----
Your calculation utilizes the basis: def2-TZVP
   F. Weigend and R. Ahlrichs, Phys. Chem. Chem. Phys. 7, 3297 (2005).

----- AuxJ basis set information -----
Your calculation utilizes the auxiliary basis: def2/J
   F. Weigend, Phys. Chem. Chem. Phys. 8, 1057 (2006).

================================================================================
                                        WARNINGS
                       Please study these warnings very carefully!
================================================================================


WARNING: Geometry Optimization
  ===> : Switching off AutoStart
         For restart on a previous wavefunction, please use MOREAD

INFO   : the flag for use of the SHARK integral package has been found!

================================================================================
                                       INPUT FILE
================================================================================
NAME = TS2_CHCH2/TS2_CHCH2.inp
|  1> %pal nprocs 24 end
|  2> %maxcore 3500
|  3> ! PBE0 D3BJ def2-TZVP TightSCF OPTTS FREQ TightOpt
|  4> ! CPCM(dmso)
|  5> %scf
|  6> MaxIter 800
|  7> end
|  8> 
|  9> %geom
| 10> MaxIter 800
| 11> MaxStep 0.2
| 12> end
| 13> 
| 14> *xyz 0 1
| 15> C      -3.11334600      2.89873800     -0.12849500
| 16> C      -2.16489600      2.90934400      0.88174000
| 17> C      -0.97610900      2.23343700      0.68201200
| 18> N      -0.72172700      1.59005200     -0.45268900
| 19> C      -1.62110800      1.57740100     -1.43010400
| 20> C      -2.83804700      2.22019600     -1.30547800
| 21> C       0.93977200      0.53208500     -0.78925700
| 22> C       1.81184900      1.70330400     -0.47048200
| 23> O       2.08185900      2.57013100     -1.26329900
| 24> O       2.22543800      1.67193000      0.78768600
| 25> C       3.08652400      2.74073300      1.19388000
| 26> H      -4.05851900      3.41236300      0.00068400
| 27> H      -0.20918700      2.20012900      1.44741900
| 28> H      -1.36049500      1.02898000     -2.32875200
| 29> H      -3.55124600      2.18339500     -2.11849400
| 30> H       0.61470600      0.46017200     -1.81316100
| 31> H       3.31886900      2.54855500      2.23769800
| 32> H       2.57500200      3.69704900      1.08508500
| 33> C       1.81648000     -1.41140700      0.43397900
| 34> C       0.60591600     -0.56354500      0.20571100
| 35> C      -0.58095800     -1.37438100     -0.27158700
| 36> C      -0.48552500     -2.13583400     -1.42641000
| 37> C      -1.56657900     -2.85874800     -1.90920600
| 38> C      -2.76585500     -2.82150500     -1.21590300
| 39> C      -2.88524800     -2.07667300     -0.05123400
| 40> C      -1.79514800     -1.35398500      0.42571500
| 41> O      -1.83018400     -0.61193000      1.55384900
| 42> C      -3.05696600     -0.50069500      2.24807300
| 43> N       2.78552100     -1.24034300     -0.43966200
| 44> O       3.87984900     -1.84571100     -0.46961700
| 45> H       0.34562600     -0.09242600      1.15437300
| 46> H       0.45924100     -2.15700800     -1.96066200
| 47> H      -1.47133800     -3.44342300     -2.81617300
| 48> H      -3.62318500     -3.37855800     -1.57655500
| 49> H      -3.82709600     -2.06317900      0.48022900
| 50> H      -2.86716100      0.16552700      3.08707300
| 51> H      -3.39010900     -1.47290300      2.62184100
| 52> H      -3.83258500     -0.06960000      1.60902700
| 53> O       2.57192200     -0.32933500     -1.36995200
| 54> H       3.99540000      2.73807700      0.59239400
| 55> H      -2.33876000      3.42519000      1.81699300
| 56> C       1.95335600     -2.34535900      1.50763900
| 57> H       2.88273500     -2.90535200      1.51604100
| 58> C       1.03729700     -2.55442400      2.46179800
| 59> H       0.09578300     -2.01691000      2.48899800
| 60> H       1.21772100     -3.27813300      3.24691300
| 61> *
| 62> 
| 63>                          ****END OF INPUT****
================================================================================

                       *****************************
                       * Geometry Optimization Run *
                       *****************************

Geometry optimization settings:
Update method            Update   .... Bofill
Choice of coordinates    CoordSys .... Z-matrix Internals
Initial Hessian          InHess   .... Almoef's Model

Convergence Tolerances:
Energy Change            TolE     ....  1.0000e-06 Eh
Max. Gradient            TolMAXG  ....  1.0000e-04 Eh/bohr
RMS Gradient             TolRMSG  ....  3.0000e-05 Eh/bohr
Max. Displacement        TolMAXD  ....  1.0000e-03 bohr
RMS Displacement         TolRMSD  ....  6.0000e-04 bohr
Strict Convergence                ....  False
------------------------------------------------------------------------------
                        ORCA OPTIMIZATION COORDINATE SETUP
------------------------------------------------------------------------------

The optimization will be done in new redundant internal coordinates
Making redundant internal coordinates   ...  (new redundants) done
Following TS mode number                ...     0
Evaluating the initial hessian          ...  (Almloef) done
Evaluating the coordinates              ...  done
Calculating the B-matrix                .... done
Calculating the G-matrix                .... done
Diagonalizing the G-matrix              .... done
Small eigenvalue found = 4.599e-03
Small eigenvalue found = 1.073e-02
Small eigenvalue found = 1.213e-02
Small eigenvalue found = 1.945e-02
Small eigenvalue found = 2.200e-02
The first mode is                       ....  147
The number of degrees of freedom        ....  132

    -----------------------------------------------------------------
                    Redundant Internal Coordinates


    -----------------------------------------------------------------
         Definition                    Initial Value    Approx d2E/dq
    -----------------------------------------------------------------
      1. B(C   1,C   0)                  1.3857         0.634677   
      2. B(C   2,C   1)                  1.3820         0.643404   
      3. B(N   3,C   2)                  1.3290         0.700199   
      4. B(C   4,N   3)                  1.3283         0.701957   
      5. B(C   5,C   4)                  1.3819         0.643659   
      6. B(C   5,C   0)                  1.3862         0.633624   
      7. B(C   6,N   3)                  1.9983         0.059895   
      8. B(C   7,N   3)                  2.5362         0.008303   
      9. B(C   7,C   6)                  1.4946         0.425426   
     10. B(O   8,C   7)                  1.2053         1.102765   
     11. B(O   9,C   7)                  1.3248         0.711114   
     12. B(C  10,O   9)                  1.4314         0.480709   
     13. B(H  11,C   0)                  1.0834         0.368879   
     14. B(H  12,C   2)                  1.0840         0.368081   
     15. B(H  12,O   9)                  2.5771         0.001367   
     16. B(H  13,C   4)                  1.0846         0.367380   
     17. B(H  14,C   5)                  1.0821         0.370665   
     18. B(H  15,C   6)                  1.0767         0.378172   
     19. B(H  15,N   3)                  2.2167         0.005141   
     20. B(H  15,C   4)                  2.5286         0.001825   
     21. B(H  15,H  13)                  2.1191         0.001572   
     22. B(H  16,C  10)                  1.0865         0.364766   
     23. B(H  17,C  10)                  1.0900         0.360142   
     24. B(C  19,C  18)                  1.4955         0.424094   
     25. B(C  19,C   6)                  1.5172         0.391594   
     26. B(C  20,C  19)                  1.5146         0.395354   
     27. B(C  21,C  20)                  1.3866         0.632754   
     28. B(C  22,C  21)                  1.3872         0.631214   
     29. B(C  23,C  22)                  1.3858         0.634614   
     30. B(C  24,C  23)                  1.3876         0.630288   
     31. B(C  25,C  24)                  1.3921         0.619885   
     32. B(C  25,C  20)                  1.4003         0.601547   
     33. B(O  26,C  25)                  1.3508         0.646363   
     34. B(C  27,O  26)                  1.4140         0.512426   
     35. B(N  28,C  18)                  1.3159         0.734720   
     36. B(O  29,N  28)                  1.2510         0.835274   
     37. B(H  30,C  19)                  1.0907         0.359153   
     38. B(H  30,H  12)                  2.3769         0.000610   
     39. B(H  30,N   3)                  2.5598         0.001457   
     40. B(H  31,C  21)                  1.0856         0.366012   
     41. B(H  32,C  22)                  1.0833         0.369095   
     42. B(H  33,C  23)                  1.0842         0.367915   
     43. B(H  34,C  24)                  1.0815         0.371477   
     44. B(H  35,C  27)                  1.0880         0.362722   
     45. B(H  36,C  27)                  1.0936         0.355420   
     46. B(H  37,H  11)                  3.8421         0.000003   
     47. B(H  37,C  27)                  1.0935         0.355461   
     48. B(O  38,N  28)                  1.3195         0.649441   
     49. B(O  38,C   6)                  1.9347         0.075648   
     50. B(H  39,C  10)                  1.0899         0.360253   
     51. B(H  40,C   1)                  1.0821         0.370651   
     52. B(C  41,C  18)                  1.4296         0.540212   
     53. B(H  42,C  41)                  1.0851         0.366662   
     54. B(C  43,C  41)                  1.3391         0.753156   
     55. B(H  44,C  43)                  1.0845         0.367469   
     56. B(H  45,C  43)                  1.0829         0.369590   
     57. A(C   1,C   0,C   5)          119.1318         0.437609   
     58. A(C   1,C   0,H  11)          120.4337         0.355760   
     59. A(C   5,C   0,H  11)          120.4344         0.355660   
     60. A(C   2,C   1,H  40)          119.7518         0.356877   
     61. A(C   0,C   1,C   2)          118.6622         0.438820   
     62. A(C   0,C   1,H  40)          121.5844         0.356050   
     63. A(C   1,C   2,H  12)          121.4358         0.356455   
     64. A(C   1,C   2,N   3)          121.6555         0.443743   
     65. A(N   3,C   2,H  12)          116.9081         0.359382   
     66. A(C   2,N   3,C   6)          124.0051         0.294566   
     67. A(C   2,N   3,C   7)          100.1128         0.220437   
     68. A(C   2,N   3,C   4)          120.2169         0.447828   
     69. A(C   6,N   3,C   7)           36.0843         0.164340   
     70. A(C   4,N   3,C   6)          115.7215         0.294682   
     71. A(C   4,N   3,C   7)          132.1954         0.220512   
     72. A(N   3,C   4,H  13)          116.8606         0.359419   
     73. A(C   5,C   4,H  13)          121.4361         0.356364   
     74. A(N   3,C   4,C   5)          121.7000         0.443976   
     75. A(C   0,C   5,C   4)          118.6307         0.438720   
     76. A(C   0,C   5,H  14)          121.5794         0.355952   
     77. A(C   4,C   5,H  14)          119.7897         0.356903   
     78. A(C   7,C   6,O  38)           85.4511         0.284215   
     79. A(N   3,C   6,C  19)           95.1011         0.270725   
     80. A(N   3,C   6,C   7)           91.9678         0.274165   
     81. A(H  15,C   6,C  19)          120.5966         0.329492   
     82. A(C   7,C   6,C  19)          123.6706         0.374571   
     83. A(C  19,C   6,O  38)           93.4938         0.280587   
     84. A(N   3,C   6,H  15)           86.8186         0.244936   
     85. A(C   7,C   6,H  15)          115.5521         0.334045   
     86. A(H  15,C   6,O  38)           86.5331         0.253399   
     87. A(N   3,C   6,O  38)          171.0070         0.213226   
     88. A(C   6,C   7,O   8)          123.6394         0.447012   
     89. A(C   6,C   7,O   9)          111.4789         0.413168   
     90. A(O   8,C   7,O   9)          124.8743         0.487849   
     91. A(N   3,C   7,O   8)          105.1003         0.234668   
     92. A(N   3,C   7,C   6)           51.9480         0.207393   
     93. A(N   3,C   7,O   9)          107.7074         0.220898   
     94. A(C   7,O   9,C  10)          116.0810         0.419515   
     95. A(H  16,C  10,H  17)          110.5756         0.291434   
     96. A(O   9,C  10,H  17)          110.1508         0.336095   
     97. A(O   9,C  10,H  16)          105.6170         0.336810   
     98. A(H  17,C  10,H  39)          109.7801         0.290864   
     99. A(H  16,C  10,H  39)          110.5754         0.291448   
    100. A(O   9,C  10,H  39)          110.0744         0.336113   
    101. A(C  19,C  18,N  28)          114.9025         0.415341   
    102. A(N  28,C  18,C  41)          120.8665         0.433715   
    103. A(C  19,C  18,C  41)          124.2308         0.395924   
    104. A(C  18,C  19,C  20)          112.2669         0.374986   
    105. A(C   6,C  19,C  20)          110.6329         0.369872   
    106. A(C   6,C  19,C  18)          109.3536         0.374368   
    107. A(C  20,C  19,H  30)          108.5616         0.327214   
    108. A(C  18,C  19,H  30)          107.7764         0.331028   
    109. A(C   6,C  19,H  30)          108.1184         0.326699   
    110. A(C  19,C  20,C  21)          120.1678         0.402095   
    111. A(C  21,C  20,C  25)          118.8431         0.433297   
    112. A(C  19,C  20,C  25)          120.9808         0.398531   
    113. A(C  20,C  21,C  22)          121.4944         0.437069   
    114. A(C  22,C  21,H  31)          119.7868         0.354960   
    115. A(C  20,C  21,H  31)          118.7182         0.355107   
    116. A(C  21,C  22,C  23)          119.0976         0.437301   
    117. A(C  23,C  22,H  32)          120.6285         0.355790   
    118. A(C  21,C  22,H  32)          120.2739         0.355466   
    119. A(C  22,C  23,C  24)          120.5847         0.437185   
    120. A(C  24,C  23,H  33)          119.1415         0.355184   
    121. A(C  22,C  23,H  33)          120.2734         0.355597   
    122. A(C  25,C  24,H  34)          120.4690         0.354762   
    123. A(C  23,C  24,H  34)          119.6085         0.355765   
    124. A(C  23,C  24,C  25)          119.9224         0.435339   
    125. A(C  24,C  25,O  26)          123.4360         0.434453   
    126. A(C  20,C  25,O  26)          116.5115         0.432113   
    127. A(C  20,C  25,C  24)          120.0524         0.431700   
    128. A(C  25,O  26,C  27)          118.4098         0.417161   
    129. A(H  36,C  27,H  37)          109.5202         0.289653   
    130. A(H  35,C  27,H  37)          109.4495         0.290579   
    131. A(O  26,C  27,H  37)          111.0680         0.338954   
    132. A(H  35,C  27,H  36)          109.5090         0.290573   
    133. A(O  26,C  27,H  36)          111.2343         0.338947   
    134. A(O  26,C  27,H  35)          105.9869         0.340100   
    135. A(O  29,N  28,O  38)          117.3126         0.449796   
    136. A(C  18,N  28,O  38)          116.0170         0.442438   
    137. A(C  18,N  28,O  29)          126.6693         0.463153   
    138. A(C   6,O  38,N  28)          103.4361         0.300274   
    139. A(H  42,C  41,C  43)          119.9879         0.365919   
    140. A(C  18,C  41,C  43)          124.8628         0.438530   
    141. A(C  18,C  41,H  42)          115.1492         0.345855   
    142. A(H  44,C  43,H  45)          117.2384         0.292964   
    143. A(C  41,C  43,H  45)          120.4600         0.366418   
    144. A(C  41,C  43,H  44)          122.3015         0.366057   
    145. D(C   2,C   1,C   0,H  11)    179.5004         0.027956   
    146. D(C   2,C   1,C   0,C   5)     -0.3752         0.027956   
    147. D(H  40,C   1,C   0,C   5)   -179.9138         0.027956   
    148. D(H  40,C   1,C   0,H  11)     -0.0383         0.027956   
    149. D(N   3,C   2,C   1,H  40)   -179.8400         0.028783   
    150. D(N   3,C   2,C   1,C   0)      0.6127         0.028783   
    151. D(H  12,C   2,C   1,C   0)   -179.0936         0.028783   
    152. D(H  12,C   2,C   1,H  40)      0.4537         0.028783   
    153. D(C   7,N   3,C   2,C   1)    152.9508         0.050733   
    154. D(C   7,N   3,C   2,H  12)    -27.3303         0.050733   
    155. D(C   6,N   3,C   2,C   1)   -177.4989         0.050733   
    156. D(C   4,N   3,C   2,H  12)    179.3641         0.050733   
    157. D(C   6,N   3,C   2,H  12)      2.2201         0.050733   
    158. D(C   4,N   3,C   2,C   1)     -0.3549         0.050733   
    159. D(C   5,C   4,N   3,C   2)     -0.1441         0.054081   
    160. D(C   5,C   4,N   3,C   7)   -143.4926         0.054081   
    161. D(H  13,C   4,N   3,C   6)     -2.1232         0.054081   
    162. D(H  13,C   4,N   3,C   7)     37.1560         0.054081   
    163. D(C   5,C   4,N   3,C   6)    177.2281         0.054081   
    164. D(H  13,C   4,N   3,C   2)   -179.4954         0.054081   
    165. D(H  14,C   5,C   0,C   1)    179.7888         0.027857   
    166. D(C   0,C   5,C   4,N   3)      0.3638         0.031315   
    167. D(H  14,C   5,C   0,H  11)     -0.0867         0.027857   
    168. D(H  14,C   5,C   4,H  13)     -0.1968         0.031315   
    169. D(H  14,C   5,C   4,N   3)   -179.5185         0.031315   
    170. D(C   4,C   5,C   0,H  11)   -179.9668         0.027857   
    171. D(C   4,C   5,C   0,C   1)     -0.0913         0.027857   
    172. D(C   0,C   5,C   4,H  13)    179.6856         0.031315   
    173. D(H  15,C   6,N   3,C   2)   -171.0127         0.001794   
    174. D(C   7,C   6,N   3,C   4)    127.2158         0.001794   
    175. D(C   7,C   6,N   3,C   2)    -55.5234         0.001794   
    176. D(O  38,C   6,N   3,C   2)   -128.6310         0.001794   
    177. D(O  38,C   6,N   3,C   4)     54.1082         0.001794   
    178. D(C  19,C   6,N   3,C   7)    124.0570         0.001794   
    179. D(C  19,C   6,N   3,C   4)   -108.7271         0.001794   
    180. D(C  19,C   6,N   3,C   2)     68.5336         0.001794   
    181. D(H  15,C   6,N   3,C   7)   -115.4893         0.001794   
    182. D(H  15,C   6,N   3,C   4)     11.7266         0.001794   
    183. D(O  38,C   6,N   3,C   7)    -73.1076         0.001794   
    184. D(N   3,C   7,C   6,O  38)    171.3706         0.015202   
    185. D(N   3,C   7,C   6,C  19)    -97.4573         0.015202   
    186. D(N   3,C   7,C   6,H  15)     87.4137         0.015202   
    187. D(O   9,C   7,C   6,O  38)    -92.4824         0.015202   
    188. D(O   9,C   7,C   6,C  19)     -1.3104         0.015202   
    189. D(O   9,C   7,C   6,H  15)   -176.4393         0.015202   
    190. D(O   8,C   7,C   6,N   3)    -82.9080         0.015202   
    191. D(O   8,C   7,C   6,O  38)     88.4626         0.015202   
    192. D(O   8,C   7,C   6,C  19)    179.6347         0.015202   
    193. D(O   8,C   7,C   6,H  15)      4.5057         0.015202   
    194. D(O   9,C   7,N   3,C   6)   -103.7803         0.001506   
    195. D(O   9,C   7,N   3,C   4)   -179.3407         0.001506   
    196. D(O   9,C   7,N   3,C   2)     32.2587         0.001506   
    197. D(O   8,C   7,N   3,C   6)    121.1609         0.001506   
    198. D(O   9,C   7,C   6,N   3)     96.1470         0.015202   
    199. D(O   8,C   7,N   3,C   4)     45.6005         0.001506   
    200. D(O   8,C   7,N   3,C   2)   -102.8001         0.001506   
    201. D(C   6,C   7,N   3,C   4)    -75.5603         0.001506   
    202. D(C   6,C   7,N   3,C   2)    136.0391         0.001506   
    203. D(C  10,O   9,C   7,N   3)   -125.6434         0.045699   
    204. D(C  10,O   9,C   7,O   8)     -1.8740         0.045699   
    205. D(C  10,O   9,C   7,C   6)    179.0850         0.045699   
    206. D(H  17,C  10,O   9,C   7)     60.6301         0.019767   
    207. D(H  16,C  10,O   9,C   7)   -179.9451         0.019767   
    208. D(H  39,C  10,O   9,C   7)    -60.5609         0.019767   
    209. D(H  30,C  19,C  18,C  41)     48.6711         0.013292   
    210. D(H  30,C  19,C  18,N  28)   -131.1612         0.013292   
    211. D(C  20,C  19,C  18,C  41)    -70.8338         0.013292   
    212. D(C   6,C  19,C  18,C  41)    165.9773         0.013292   
    213. D(C   6,C  19,C  18,N  28)    -13.8549         0.013292   
    214. D(H  30,C  19,C   6,N   3)    -50.5704         0.012929   
    215. D(H  30,C  19,C   6,O  38)    132.0786         0.012929   
    216. D(H  30,C  19,C   6,H  15)   -139.8860         0.012929   
    217. D(H  30,C  19,C   6,C   7)     45.2200         0.012929   
    218. D(C  20,C  19,C   6,N   3)     68.1862         0.012929   
    219. D(C  20,C  19,C   6,O  38)   -109.1648         0.012929   
    220. D(C  20,C  19,C   6,H  15)    -21.1294         0.012929   
    221. D(C  20,C  19,C   6,C   7)    163.9767         0.012929   
    222. D(C  20,C  19,C  18,N  28)    109.3339         0.013292   
    223. D(C  18,C  19,C   6,N   3)   -167.6612         0.012929   
    224. D(C  18,C  19,C   6,O  38)     14.9878         0.012929   
    225. D(C  18,C  19,C   6,H  15)    103.0232         0.012929   
    226. D(C  18,C  19,C   6,C   7)    -71.8707         0.012929   
    227. D(C  25,C  20,C  19,H  30)      4.5567         0.011613   
    228. D(C  25,C  20,C  19,C  18)    123.6019         0.011613   
    229. D(C  25,C  20,C  19,C   6)   -113.9307         0.011613   
    230. D(C  21,C  20,C  19,H  30)   -176.5050         0.011613   
    231. D(C  21,C  20,C  19,C  18)    -57.4598         0.011613   
    232. D(C  21,C  20,C  19,C   6)     65.0076         0.011613   
    233. D(H  31,C  21,C  20,C  25)   -179.4777         0.027776   
    234. D(H  31,C  21,C  20,C  19)      1.5615         0.027776   
    235. D(C  22,C  21,C  20,C  25)      0.8094         0.027776   
    236. D(C  22,C  21,C  20,C  19)   -178.1514         0.027776   
    237. D(H  32,C  22,C  21,H  31)     -0.0012         0.027632   
    238. D(H  32,C  22,C  21,C  20)    179.7087         0.027632   
    239. D(C  23,C  22,C  21,H  31)   -179.9987         0.027632   
    240. D(C  23,C  22,C  21,C  20)     -0.2889         0.027632   
    241. D(H  33,C  23,C  22,H  32)     -0.0495         0.027950   
    242. D(H  33,C  23,C  22,C  21)    179.9480         0.027950   
    243. D(C  24,C  23,C  22,H  32)    179.7334         0.027950   
    244. D(C  24,C  23,C  22,C  21)     -0.2691         0.027950   
    245. D(H  34,C  24,C  23,H  33)      0.1213         0.027546   
    246. D(H  34,C  24,C  23,C  22)   -179.6640         0.027546   
    247. D(C  25,C  24,C  23,H  33)   -179.9266         0.027546   
    248. D(C  25,C  24,C  23,C  22)      0.2881         0.027546   
    249. D(O  26,C  25,C  24,H  34)      0.3131         0.026589   
    250. D(O  26,C  25,C  24,C  23)   -179.6387         0.026589   
    251. D(C  20,C  25,C  24,H  34)   -179.8043         0.026589   
    252. D(C  20,C  25,C  24,C  23)      0.2440         0.026589   
    253. D(O  26,C  25,C  20,C  21)    179.1100         0.024953   
    254. D(O  26,C  25,C  20,C  19)     -1.9379         0.024953   
    255. D(C  24,C  25,C  20,C  21)     -0.7805         0.024953   
    256. D(C  24,C  25,C  20,C  19)    178.1716         0.024953   
    257. D(C  27,O  26,C  25,C  24)     -3.6870         0.030848   
    258. D(C  27,O  26,C  25,C  20)    176.4265         0.030848   
    259. D(H  37,C  27,O  26,C  25)    -58.8856         0.020794   
    260. D(H  36,C  27,O  26,C  25)     63.3797         0.020794   
    261. D(H  35,C  27,O  26,C  25)   -177.6723         0.020794   
    262. D(O  38,N  28,C  18,C  41)   -178.2645         0.045125   
    263. D(O  38,N  28,C  18,C  19)      1.5739         0.045125   
    264. D(O  29,N  28,C  18,C  41)      1.3483         0.045125   
    265. D(O  29,N  28,C  18,C  19)   -178.8133         0.045125   
    266. D(C   6,O  38,N  28,O  29)   -171.1920         0.036671   
    267. D(C   6,O  38,N  28,C  18)      8.4585         0.036671   
    268. D(N  28,O  38,C   6,N   3)   -177.4646         0.001864   
    269. D(N  28,O  38,C   6,C  19)    -14.5919         0.001864   
    270. D(N  28,O  38,C   6,H  15)   -135.0678         0.001864   
    271. D(N  28,O  38,C   6,C   7)    108.9363         0.001864   
    272. D(C  43,C  41,C  18,N  28)    177.9272         0.019941   
    273. D(C  43,C  41,C  18,C  19)     -1.8956         0.019941   
    274. D(H  42,C  41,C  18,N  28)     -1.9572         0.019941   
    275. D(H  42,C  41,C  18,C  19)    178.2200         0.019941   
    276. D(H  45,C  43,C  41,H  42)      0.1976         0.040486   
    277. D(H  45,C  43,C  41,C  18)   -179.6816         0.040486   
    278. D(H  44,C  43,C  41,H  42)   -179.9310         0.040486   
    279. D(H  44,C  43,C  41,C  18)      0.1898         0.040486   
    -----------------------------------------------------------------

Number of atoms                         .... 46
Number of degrees of freedom            .... 279

         *************************************************************
         *                GEOMETRY OPTIMIZATION CYCLE   1            *
         *************************************************************
---------------------------------
CARTESIAN COORDINATES (ANGSTROEM)
---------------------------------
  C     -3.113346    2.898738   -0.128495
  C     -2.164896    2.909344    0.881740
  C     -0.976109    2.233437    0.682012
  N     -0.721727    1.590052   -0.452689
  C     -1.621108    1.577401   -1.430104
  C     -2.838047    2.220196   -1.305478
  C      0.939772    0.532085   -0.789257
  C      1.811849    1.703304   -0.470482
  O      2.081859    2.570131   -1.263299
  O      2.225438    1.671930    0.787686
  C      3.086524    2.740733    1.193880
  H     -4.058519    3.412363    0.000684
  H     -0.209187    2.200129    1.447419
  H     -1.360495    1.028980   -2.328752
  H     -3.551246    2.183395   -2.118494
  H      0.614706    0.460172   -1.813161
  H      3.318869    2.548555    2.237698
  H      2.575002    3.697049    1.085085
  C      1.816480   -1.411407    0.433979
  C      0.605916   -0.563545    0.205711
  C     -0.580958   -1.374381   -0.271587
  C     -0.485525   -2.135834   -1.426410
  C     -1.566579   -2.858748   -1.909206
  C     -2.765855   -2.821505   -1.215903
  C     -2.885248   -2.076673   -0.051234
  C     -1.795148   -1.353985    0.425715
  O     -1.830184   -0.611930    1.553849
  C     -3.056966   -0.500695    2.248073
  N      2.785521   -1.240343   -0.439662
  O      3.879849   -1.845711   -0.469617
  H      0.345626   -0.092426    1.154373
  H      0.459241   -2.157008   -1.960662
  H     -1.471338   -3.443423   -2.816173
  H     -3.623185   -3.378558   -1.576555
  H     -3.827096   -2.063179    0.480229
  H     -2.867161    0.165527    3.087073
  H     -3.390109   -1.472903    2.621841
  H     -3.832585   -0.069600    1.609027
  O      2.571922   -0.329335   -1.369952
  H      3.995400    2.738077    0.592394
  H     -2.338760    3.425190    1.816993
  C      1.953356   -2.345359    1.507639
  H      2.882735   -2.905352    1.516041
  C      1.037297   -2.554424    2.461798
  H      0.095783   -2.016910    2.488998
  H      1.217721   -3.278133    3.246913

----------------------------
CARTESIAN COORDINATES (A.U.)
----------------------------
  NO LB      ZA    FRAG     MASS         X           Y           Z
   0 C     6.0000    0    12.011   -5.883371    5.477821   -0.242820
   1 C     6.0000    0    12.011   -4.091061    5.497863    1.666247
   2 C     6.0000    0    12.011   -1.844579    4.220584    1.288816
   3 N     7.0000    0    14.007   -1.363866    3.004763   -0.855458
   4 C     6.0000    0    12.011   -3.063450    2.980856   -2.702505
   5 C     6.0000    0    12.011   -5.363132    4.195562   -2.466996
   6 C     6.0000    0    12.011    1.775912    1.005495   -1.491480
   7 C     6.0000    0    12.011    3.423898    3.218778   -0.889082
   8 O     8.0000    0    15.999    3.934143    4.856844   -2.387289
   9 O     8.0000    0    15.999    4.205468    3.159490    1.488511
  10 C     6.0000    0    12.011    5.832685    5.179235    2.256106
  11 H     1.0000    0     1.008   -7.669489    6.448432    0.001293
  12 H     1.0000    0     1.008   -0.395306    4.157641    2.735226
  13 H     1.0000    0     1.008   -2.570963    1.944490   -4.400704
  14 H     1.0000    0     1.008   -6.710882    4.126019   -4.003373
  15 H     1.0000    0     1.008    1.161626    0.869599   -3.426378
  16 H     1.0000    0     1.008    6.271753    4.816071    4.228636
  17 H     1.0000    0     1.008    4.866049    6.986410    2.050513
  18 C     6.0000    0    12.011    3.432650   -2.667173    0.820101
  19 C     6.0000    0    12.011    1.145015   -1.064946    0.388737
  20 C     6.0000    0    12.011   -1.097852   -2.597204   -0.513225
  21 C     6.0000    0    12.011   -0.917509   -4.036141   -2.695524
  22 C     6.0000    0    12.011   -2.960405   -5.402251   -3.607876
  23 C     6.0000    0    12.011   -5.226708   -5.331872   -2.297724
  24 C     6.0000    0    12.011   -5.452329   -3.924343   -0.096818
  25 C     6.0000    0    12.011   -3.392338   -2.558661    0.804485
  26 O     8.0000    0    15.999   -3.458547   -1.156380    2.936349
  27 C     6.0000    0    12.011   -5.776829   -0.946176    4.248242
  28 N     7.0000    0    14.007    5.263872   -2.343909   -0.830841
  29 O     8.0000    0    15.999    7.331852   -3.487888   -0.887448
  30 H     1.0000    0     1.008    0.653138   -0.174660    2.181449
  31 H     1.0000    0     1.008    0.867840   -4.076154   -3.705114
  32 H     1.0000    0     1.008   -2.780426   -6.507126   -5.321796
  33 H     1.0000    0     1.008   -6.846827   -6.384549   -2.979257
  34 H     1.0000    0     1.008   -7.232163   -3.898843    0.907501
  35 H     1.0000    0     1.008   -5.418149    0.312801    5.833723
  36 H     1.0000    0     1.008   -6.406378   -2.783383    4.954561
  37 H     1.0000    0     1.008   -7.242536   -0.131525    3.040620
  38 O     8.0000    0    15.999    4.860228   -0.622353   -2.588834
  39 H     1.0000    0     1.008    7.550212    5.174216    1.119462
  40 H     1.0000    0     1.008   -4.419616    6.472671    3.433619
  41 C     6.0000    0    12.011    3.691308   -4.432086    2.849025
  42 H     1.0000    0     1.008    5.447580   -5.490320    2.864902
  43 C     6.0000    0    12.011    1.960207   -4.827162    4.652124
  44 H     1.0000    0     1.008    0.181004   -3.811408    4.703525
  45 H     1.0000    0     1.008    2.301159   -6.194774    6.135776

--------------------------------
INTERNAL COORDINATES (ANGSTROEM)
--------------------------------
 C      0   0   0     0.000000000000     0.00000000     0.00000000
 C      1   0   0     1.385728921889     0.00000000     0.00000000
 C      2   1   0     1.382011605596   118.66218984     0.00000000
 N      3   2   1     1.328984883116   121.65552268     0.61270946
 C      4   3   2     1.328302041400   120.21686858   359.64514003
 C      5   4   3     1.381903607934   121.70001509   359.85590927
 C      4   3   2     1.998287046126   124.00506826   182.50111753
 C      7   4   3     1.494620266327    91.96776936   304.47655013
 O      8   7   4     1.205343620516   123.63939504   277.09202576
 O      8   7   4     1.324774284556   111.47894821    96.14698353
 C     10   8   7     1.431363866332   116.08101594   179.08502625
 H      1   2   3     1.083443517030   120.43373544   179.50035495
 H      3   2   1     1.084032588346   121.43578502   180.90642017
 H      5   4   3     1.084551961371   116.86060923   180.50456963
 H      6   5   4     1.082128524464   119.78974465   180.48147377
 H      7   4   3     1.076670230452    86.81861234   188.98728753
 H     11  10   8     1.086495559049   105.61702420   180.05489429
 H     11  10   8     1.089968531823   110.15082035    60.63011042
 C      7   4   3     2.458065170622   129.14914989    59.43282089
 C     19   7   4     1.495473653718    35.61567655    15.92990170
 C     20  19   7     1.514575284222   112.26694170   123.18883381
 C     21  20  19     1.386554827631   120.16775625   302.54020480
 C     22  21  20     1.387218216406   121.49436561   181.84861546
 C     23  22  21     1.385755755909   119.09761306   359.71114645
 C     24  23  22     1.387617842287   120.58470072   359.73090983
 C     25  24  23     1.392148089804   119.92241687     0.28814525
 O     26  25  24     1.350762549924   123.43599455   180.36134597
 C     27  26  25     1.413971096920   118.40983568   356.31295402
 N     19   7   4     1.315884473903    80.18171880   183.19568849
 O     29  19   7     1.250968220633   126.66933429   173.05069459
 H     20  19   7     1.090717005692   107.77642843   242.69371952
 H     22  21  20     1.085567286047   118.71821256     1.56151666
 H     23  22  21     1.083284285308   120.27392177   179.70869261
 H     24  23  22     1.084155265086   120.27343353   179.94804199
 H     25  24  23     1.081532553143   119.60852450   180.33601634
 H     28  27  26     1.088025133583   105.98687894   182.32769398
 H     28  27  26     1.093560776334   111.23427064    63.37966098
 H     28  27  26     1.093529845181   111.06795436   301.11439030
 O     29  19   7     1.319469436162   116.01702187   353.43788484
 H     11  10   8     1.089884418600   110.07439525   299.43914784
 H      2   1   3     1.082138604903   121.58437209   180.46138433
 C     19   7   4     1.429596856908   157.58179143   344.24100507
 H     42  19   7     1.085084365058   115.14915549   199.93576766
 C     42  19   7     1.339138403223   124.86280281    19.82018621
 H     44  42  19     1.084485939232   122.30152302     0.18976338
 H     44  42  19     1.082918787205   120.45996358   180.31841312

---------------------------
INTERNAL COORDINATES (A.U.)
---------------------------
 C      0   0   0     0.000000000000     0.00000000     0.00000000
 C      1   0   0     2.618648158225     0.00000000     0.00000000
 C      2   1   0     2.611623448477   118.66218984     0.00000000
 N      3   2   1     2.511417465210   121.65552268     0.61270946
 C      4   3   2     2.510127081374   120.21686858   359.64514003
 C      5   4   3     2.611419362474   121.70001509   359.85590927
 C      4   3   2     3.776215254140   124.00506826   182.50111753
 C      7   4   3     2.824422977566    91.96776936   304.47655013
 O      8   7   4     2.277769340044   123.63939504   277.09202576
 O      8   7   4     2.503460587072   111.47894821    96.14698353
 C     10   8   7     2.704885705358   116.08101594   179.08502625
 H      1   2   3     2.047411528760   120.43373544   179.50035495
 H      3   2   1     2.048524712220   121.43578502   180.90642017
 H      5   4   3     2.049506184999   116.86060923   180.50456963
 H      6   5   4     2.044926552941   119.78974465   180.48147377
 H      7   4   3     2.034611872100    86.81861234   188.98728753
 H     11  10   8     2.053179052324   105.61702420   180.05489429
 H     11  10   8     2.059742019738   110.15082035    60.63011042
 C      7   4   3     4.645069991806   129.14914989    59.43282089
 C     19   7   4     2.826035646021    35.61567655    15.92990170
 C     20  19   7     2.862132496385   112.26694170   123.18883381
 C     21  20  19     2.620208893889   120.16775625   302.54020480
 C     22  21  20     2.621462516994   121.49436561   181.84861546
 C     23  22  21     2.618698867172   119.09761306   359.71114645
 C     24  23  22     2.622217700466   120.58470072   359.73090983
 C     25  24  23     2.630778627591   119.92241687     0.28814525
 O     26  25  24     2.552571291313   123.43599455   180.36134597
 C     27  26  25     2.672018134459   118.40983568   356.31295402
 N     19   7   4     2.486661279555    80.18171880   183.19568849
 O     29  19   7     2.363987339235   126.66933429   173.05069459
 H     20  19   7     2.061156430368   107.77642843   242.69371952
 H     22  21  20     2.051424870573   118.71821256     1.56151666
 H     23  22  21     2.047110624413   120.27392177   179.70869261
 H     24  23  22     2.048756537661   120.27343353   179.94804199
 H     25  24  23     2.043800330362   119.60852450   180.33601634
 H     28  27  26     2.056069529296   105.98687894   182.32769398
 H     28  27  26     2.066530378070   111.23427064    63.37966098
 H     28  27  26     2.066471926662   111.06795436   301.11439030
 O     29  19   7     2.493435876425   116.01702187   353.43788484
 H     11  10   8     2.059583068783   110.07439525   299.43914784
 H      2   1   3     2.044945602210   121.58437209   180.46138433
 C     19   7   4     2.701546541470   157.58179143   344.24100507
 H     42  19   7     2.050512282160   115.14915549   199.93576766
 C     42  19   7     2.530604837508   124.86280281    19.82018621
 H     44  42  19     2.049381421237   122.30152302     0.18976338
 H     44  42  19     2.046419933096   120.45996358   180.31841312

---------------------
BASIS SET INFORMATION
---------------------
There are 4 groups of distinct atoms

 Group   1 Type C   : 11s6p2d1f contracted to 5s3p2d1f pattern {62111/411/11/1}
 Group   2 Type N   : 11s6p2d1f contracted to 5s3p2d1f pattern {62111/411/11/1}
 Group   3 Type O   : 11s6p2d1f contracted to 5s3p2d1f pattern {62111/411/11/1}
 Group   4 Type H   : 5s1p contracted to 3s1p pattern {311/1}

Atom   0C    basis set group =>   1
Atom   1C    basis set group =>   1
Atom   2C    basis set group =>   1
Atom   3N    basis set group =>   2
Atom   4C    basis set group =>   1
Atom   5C    basis set group =>   1
Atom   6C    basis set group =>   1
Atom   7C    basis set group =>   1
Atom   8O    basis set group =>   3
Atom   9O    basis set group =>   3
Atom  10C    basis set group =>   1
Atom  11H    basis set group =>   4
Atom  12H    basis set group =>   4
Atom  13H    basis set group =>   4
Atom  14H    basis set group =>   4
Atom  15H    basis set group =>   4
Atom  16H    basis set group =>   4
Atom  17H    basis set group =>   4
Atom  18C    basis set group =>   1
Atom  19C    basis set group =>   1
Atom  20C    basis set group =>   1
Atom  21C    basis set group =>   1
Atom  22C    basis set group =>   1
Atom  23C    basis set group =>   1
Atom  24C    basis set group =>   1
Atom  25C    basis set group =>   1
Atom  26O    basis set group =>   3
Atom  27C    basis set group =>   1
Atom  28N    basis set group =>   2
Atom  29O    basis set group =>   3
Atom  30H    basis set group =>   4
Atom  31H    basis set group =>   4
Atom  32H    basis set group =>   4
Atom  33H    basis set group =>   4
Atom  34H    basis set group =>   4
Atom  35H    basis set group =>   4
Atom  36H    basis set group =>   4
Atom  37H    basis set group =>   4
Atom  38O    basis set group =>   3
Atom  39H    basis set group =>   4
Atom  40H    basis set group =>   4
Atom  41C    basis set group =>   1
Atom  42H    basis set group =>   4
Atom  43C    basis set group =>   1
Atom  44H    basis set group =>   4
Atom  45H    basis set group =>   4
---------------------------------
AUXILIARY/J BASIS SET INFORMATION
---------------------------------
There are 4 groups of distinct atoms

 Group   1 Type C   : 12s5p4d2f1g contracted to 6s4p3d1f1g pattern {711111/2111/211/2/1}
 Group   2 Type N   : 12s5p4d2f1g contracted to 6s4p3d1f1g pattern {711111/2111/211/2/1}
 Group   3 Type O   : 12s5p4d2f1g contracted to 6s4p3d1f1g pattern {711111/2111/211/2/1}
 Group   4 Type H   : 5s2p1d contracted to 3s1p1d pattern {311/2/1}

Atom   0C    basis set group =>   1
Atom   1C    basis set group =>   1
Atom   2C    basis set group =>   1
Atom   3N    basis set group =>   2
Atom   4C    basis set group =>   1
Atom   5C    basis set group =>   1
Atom   6C    basis set group =>   1
Atom   7C    basis set group =>   1
Atom   8O    basis set group =>   3
Atom   9O    basis set group =>   3
Atom  10C    basis set group =>   1
Atom  11H    basis set group =>   4
Atom  12H    basis set group =>   4
Atom  13H    basis set group =>   4
Atom  14H    basis set group =>   4
Atom  15H    basis set group =>   4
Atom  16H    basis set group =>   4
Atom  17H    basis set group =>   4
Atom  18C    basis set group =>   1
Atom  19C    basis set group =>   1
Atom  20C    basis set group =>   1
Atom  21C    basis set group =>   1
Atom  22C    basis set group =>   1
Atom  23C    basis set group =>   1
Atom  24C    basis set group =>   1
Atom  25C    basis set group =>   1
Atom  26O    basis set group =>   3
Atom  27C    basis set group =>   1
Atom  28N    basis set group =>   2
Atom  29O    basis set group =>   3
Atom  30H    basis set group =>   4
Atom  31H    basis set group =>   4
Atom  32H    basis set group =>   4
Atom  33H    basis set group =>   4
Atom  34H    basis set group =>   4
Atom  35H    basis set group =>   4
Atom  36H    basis set group =>   4
Atom  37H    basis set group =>   4
Atom  38O    basis set group =>   3
Atom  39H    basis set group =>   4
Atom  40H    basis set group =>   4
Atom  41C    basis set group =>   1
Atom  42H    basis set group =>   4
Atom  43C    basis set group =>   1
Atom  44H    basis set group =>   4
Atom  45H    basis set group =>   4


           ************************************************************
           *        Program running with 24 parallel MPI-processes    *
           *              working on a common directory               *
           ************************************************************
------------------------------------------------------------------------------
                           ORCA GTO INTEGRAL CALCULATION
                           -- RI-GTO INTEGRALS CHOSEN --
------------------------------------------------------------------------------
------------------------------------------------------------------------------
                   ___                                                        
                  /   \      - P O W E R E D   B Y -                         
                 /     \                                                     
                 |  |  |   _    _      __       _____    __    __             
                 |  |  |  | |  | |    /  \     |  _  \  |  |  /  |          
                  \  \/   | |  | |   /    \    | | | |  |  | /  /          
                 / \  \   | |__| |  /  /\  \   | |_| |  |  |/  /          
                |  |  |   |  __  | /  /__\  \  |    /   |      \           
                |  |  |   | |  | | |   __   |  |    \   |  |\   \          
                \     /   | |  | | |  |  |  |  | |\  \  |  | \   \       
                 \___/    |_|  |_| |__|  |__|  |_| \__\ |__|  \__/        
                                                                              
                      - O R C A' S   B I G   F R I E N D -                    
                                      &                                       
                       - I N T E G R A L  F E E D E R -                       
                                                                              
 v1 FN, 2020, v2 2021                                                         
------------------------------------------------------------------------------


Reading SHARK input file TS2_CHCH2/TS2_CHCH2.SHARKINP.tmp ... ok
----------------------
SHARK INTEGRAL PACKAGE
----------------------

Number of atoms                             ...     46
Number of basis functions                   ...    926
Number of shells                            ...    366
Maximum angular momentum                    ...      3
Integral batch strategy                     ... SHARK/LIBINT Hybrid
RI-J (if used) integral strategy            ... SPLIT-RIJ (Revised 2003 algorithm where possible)
Printlevel                                  ...      1
Contraction scheme used                     ... SEGMENTED contraction
Coulomb Range Separation                    ... NOT USED
Exchange Range Separation                   ... NOT USED
Finite Nucleus Model                        ... NOT USED
Auxiliary Coulomb fitting basis             ... AVAILABLE
   # of basis functions in Aux-J            ...   1494
   # of shells in Aux-J                     ...    490
   Maximum angular momentum in Aux-J        ...      4
Auxiliary J/K fitting basis                 ... NOT available
Auxiliary Correlation fitting basis         ... NOT available
Auxiliary 'external' fitting basis          ... NOT available
Integral threshold                          ...     2.500000e-11
Primitive cut-off                           ...     2.500000e-12
Primitive pair pre-selection threshold      ...     2.500000e-12

Calculating pre-screening integrals         ... done (  0.1 sec) Dimension = 366
Organizing shell pair data                  ... done (  0.6 sec)
Shell pair information
Total number of shell pairs                 ...     67161
Shell pairs after pre-screening             ...     49237
Total number of primitive shell pairs       ...    205752
Primitive shell pairs kept                  ...     98209
          la=0 lb=0:  12725 shell pairs
          la=1 lb=0:  14181 shell pairs
          la=1 lb=1:   3953 shell pairs
          la=2 lb=0:   7057 shell pairs
          la=2 lb=1:   3975 shell pairs
          la=2 lb=2:   1017 shell pairs
          la=3 lb=0:   3242 shell pairs
          la=3 lb=1:   1904 shell pairs
          la=3 lb=2:    944 shell pairs
          la=3 lb=3:    239 shell pairs

Calculating one electron integrals          ... done (  0.1 sec)
Calculating RI/J V-Matrix + Cholesky decomp.... done (  0.2 sec)
Calculating Nuclear repulsion               ... done (  0.0 sec) ENN=   2523.023456068434 Eh

SHARK setup successfully completed in   1.9 seconds

Maximum memory used throughout the entire GTOINT-calculation: 73.2 MB


           ************************************************************
           *        Program running with 24 parallel MPI-processes    *
           *              working on a common directory               *
           ************************************************************
-------------------------------------------------------------------------------
                                 ORCA SCF
-------------------------------------------------------------------------------

------------
SCF SETTINGS
------------
Hamiltonian:
 Density Functional     Method          .... DFT(GTOs)
 Exchange Functional    Exchange        .... PBE
   PBE kappa parameter   XKappa         ....  0.804000
   PBE mue parameter    XMuePBE         ....  0.219520
 Correlation Functional Correlation     .... PBE
   PBE beta parameter  CBetaPBE         ....  0.066725
 LDA part of GGA corr.  LDAOpt          .... PW91-LDA
 Gradients option       PostSCFGGA      .... off
 Hybrid DFT is turned on
   Fraction HF Exchange ScalHFX         ....  0.250000
   Scaling of DF-GGA-X  ScalDFX         ....  0.750000
   Scaling of DF-GGA-C  ScalDFC         ....  1.000000
   Scaling of DF-LDA-C  ScalLDAC        ....  1.000000
   Perturbative correction              ....  0.000000
   Density functional embedding theory  .... OFF
   NL short-range parameter             ....  6.900000
 RI-approximation to the Coulomb term is turned on
   Number of AuxJ basis functions       .... 1494
   RIJ-COSX (HFX calculated with COS-X)).... on


General Settings:
 Integral files         IntName         .... TS2_CHCH2/TS2_CHCH2
 Hartree-Fock type      HFTyp           .... RHF
 Total Charge           Charge          ....    0
 Multiplicity           Mult            ....    1
 Number of Electrons    NEL             ....  188
 Basis Dimension        Dim             ....  926
 Nuclear Repulsion      ENuc            ....   2523.0234560684 Eh

Convergence Acceleration:
 DIIS                   CNVDIIS         .... on
   Start iteration      DIISMaxIt       ....    12
   Startup error        DIISStart       ....  0.200000
   # of expansion vecs  DIISMaxEq       ....     5
   Bias factor          DIISBfac        ....   1.050
   Max. coefficient     DIISMaxC        ....  10.000
 Trust-Rad. Augm. Hess. CNVTRAH         .... auto
   Auto Start mean grad. ratio tolernc. ....  1.125000
   Auto Start start iteration           ....    20
   Auto Start num. interpolation iter.  ....    10
   Max. Number of Micro iterations      ....    16
   Max. Number of Macro iterations      .... Maxiter - #DIIS iter
   Number of Davidson start vectors     ....     2
   Converg. threshold I  (grad. norm)   ....   1.000e-05
   Converg. threshold II (energy diff.) ....   1.000e-08
   Grad. Scal. Fac. for Micro threshold ....   0.100
   Minimum threshold for Micro iter.    ....   0.010
   NR start threshold (gradient norm)   ....   0.001
   Initial trust radius                 ....   0.400
   Minimum AH scaling param. (alpha)    ....   1.000
   Maximum AH scaling param. (alpha)    .... 1000.000
   Orbital update algorithm             .... Taylor
   White noise on init. David. guess    .... on
   Maximum white noise                  ....   0.010
   Quad. conv. algorithm                .... NR
 SOSCF                  CNVSOSCF        .... on
   Start iteration      SOSCFMaxIt      ....   150
   Startup grad/error   SOSCFStart      ....  0.003300
 Level Shifting         CNVShift        .... on
   Level shift para.    LevelShift      ....    0.2500
   Turn off err/grad.   ShiftErr        ....    0.0010
 Zerner damping         CNVZerner       .... off
 Static damping         CNVDamp         .... on
   Fraction old density DampFac         ....    0.7000
   Max. Damping (<1)    DampMax         ....    0.9800
   Min. Damping (>=0)   DampMin         ....    0.0000
   Turn off err/grad.   DampErr         ....    0.1000
 Fernandez-Rico         CNVRico         .... off

SCF Procedure:
 Maximum # iterations   MaxIter         ....   800
 SCF integral mode      SCFMode         .... Direct
   Integral package                     .... SHARK and LIBINT hybrid scheme
 Reset frequency        DirectResetFreq ....    20
 Integral Threshold     Thresh          ....  2.500e-11 Eh
 Primitive CutOff       TCut            ....  2.500e-12 Eh

Convergence Tolerance:
 Convergence Check Mode ConvCheckMode   .... Total+1el-Energy
 Convergence forced     ConvForced      .... 0
 Energy Change          TolE            ....  1.000e-08 Eh
 1-El. energy change                    ....  1.000e-05 Eh
 Orbital Gradient       TolG            ....  1.000e-05
 Orbital Rotation angle TolX            ....  1.000e-05
 DIIS Error             TolErr          ....  5.000e-07


Diagonalization of the overlap matrix:
Smallest eigenvalue                        ... 5.303e-06
Time for diagonalization                   ...    0.273 sec
Threshold for overlap eigenvalues          ... 1.000e-08
Number of eigenvalues below threshold      ... 0
Time for construction of square roots      ...    0.150 sec
Total time needed                          ...    0.429 sec

Time for model grid setup =    0.378 sec

------------------------------
INITIAL GUESS: MODEL POTENTIAL
------------------------------
Loading Hartree-Fock densities                     ... done
Calculating cut-offs                               ... done
Initializing the effective Hamiltonian             ... done
Setting up the integral package (SHARK)            ... done
Starting the Coulomb interaction                   ... done (   0.5 sec)
Reading the grid                                   ... done
Mapping shells                                     ... done
Starting the XC term evaluation                    ... done (   0.3 sec)
  promolecular density results
     # of electrons  =    187.993768791
     EX              =   -156.971655346
     EC              =     -6.345588415
     EX+EC           =   -163.317243761
Transforming the Hamiltonian                       ... done (   0.2 sec)
Diagonalizing the Hamiltonian                      ... done (   0.3 sec)
Back transforming the eigenvectors                 ... done (   0.1 sec)
Now organizing SCF variables                       ... done
                      ------------------
                      INITIAL GUESS DONE (   1.8 sec)
                      ------------------
-------------------
DFT GRID GENERATION
-------------------

General Integration Accuracy     IntAcc      ... 4.388
Radial Grid Type                 RadialGrid  ... OptM3 with GC (2021)
Angular Grid (max. ang.)         AngularGrid ... 4 (Lebedev-302)
Angular grid pruning method      GridPruning ... 4 (adaptive)
Weight generation scheme         WeightScheme... Becke
Basis function cutoff            BFCut       ... 1.0000e-11
Integration weight cutoff        WCut        ... 1.0000e-14
Angular grids for H and He will be reduced by one unit
Partially contracted basis set               ... off
Rotationally invariant grid construction     ... off

Total number of grid points                  ...   218330
Total number of batches                      ...     3435
Average number of points per batch           ...       63
Average number of grid points per atom       ...     4746
Time for grid setup =    1.505 sec

--------------------
COSX GRID GENERATION
--------------------

GRIDX 1
-------
General Integration Accuracy     IntAcc      ... 3.816
Radial Grid Type                 RadialGrid  ... OptM3 with GC (2021)
Angular Grid (max. ang.)         AngularGrid ... 1 (Lebedev-50)
Angular grid pruning method      GridPruning ... 4 (adaptive)
Weight generation scheme         WeightScheme... Becke
Basis function cutoff            BFCut       ... 1.0000e-11
Integration weight cutoff        WCut        ... 1.0000e-14
Angular grids for H and He will be reduced by one unit
Partially contracted basis set               ... on
Rotationally invariant grid construction     ... off

Total number of grid points                  ...    27688
Total number of batches                      ...      454
Average number of points per batch           ...       60
Average number of grid points per atom       ...      602
UseSFitting                                  ... on

GRIDX 2
-------
General Integration Accuracy     IntAcc      ... 4.020
Radial Grid Type                 RadialGrid  ... OptM3 with GC (2021)
Angular Grid (max. ang.)         AngularGrid ... 2 (Lebedev-110)
Angular grid pruning method      GridPruning ... 4 (adaptive)
Weight generation scheme         WeightScheme... Becke
Basis function cutoff            BFCut       ... 1.0000e-11
Integration weight cutoff        WCut        ... 1.0000e-14
Angular grids for H and He will be reduced by one unit
Partially contracted basis set               ... on
Rotationally invariant grid construction     ... off

Total number of grid points                  ...    59734
Total number of batches                      ...      957
Average number of points per batch           ...       62
Average number of grid points per atom       ...     1299
UseSFitting                                  ... on

GRIDX 3
-------
General Integration Accuracy     IntAcc      ... 4.338
Radial Grid Type                 RadialGrid  ... OptM3 with GC (2021)
Angular Grid (max. ang.)         AngularGrid ... 3 (Lebedev-194)
Angular grid pruning method      GridPruning ... 4 (adaptive)
Weight generation scheme         WeightScheme... Becke
Basis function cutoff            BFCut       ... 1.0000e-11
Integration weight cutoff        WCut        ... 1.0000e-14
Angular grids for H and He will be reduced by one unit
Partially contracted basis set               ... on
Rotationally invariant grid construction     ... off

Total number of grid points                  ...   130359
Total number of batches                      ...     2059
Average number of points per batch           ...       63
Average number of grid points per atom       ...     2834
UseSFitting                                  ... on

Time for X-Grid setup             =    2.766 sec


--------------------
CPCM SOLVATION MODEL
--------------------
CPCM parameters:
  Epsilon                                         ...      47.2000
  Refrac                                          ...       1.4790
  Rsolv                                           ...       1.3000
  Surface type                                    ... GAUSSIAN VDW
  Epsilon function type                           ...         CPCM
Radii:
 Radius for C  used is    3.8550 Bohr (=   2.0400 Ang.)
 Radius for N  used is    3.5149 Bohr (=   1.8600 Ang.)
 Radius for O  used is    3.4469 Bohr (=   1.8240 Ang.)
 Radius for H  used is    2.4944 Bohr (=   1.3200 Ang.)
Calculating surface                               ...        done! (  0.0s)
GEPOL surface points                              ...         2339
GEPOL Volume                                      ...    2787.8914
GEPOL Surface-area                                ...    1365.8237
Calculating surface distance matrix               ...        done! (  0.1s)
Performing Cholesky decomposition & store         ...        done! (  0.4s)
Overall time for CPCM initialization              ...                 0.5s
--------------
SCF ITERATIONS
--------------
ITER       Energy         Delta-E        Max-DP      RMS-DP      [F,P]     Damp
               ***  Starting incremental Fock matrix formation  ***
  0  -1220.0254504573   0.000000000000 0.41910439  0.00104092  0.2728100 0.7000
  1  -1220.2823747885  -0.256924331127 0.31139912  0.00089423  0.1094345 0.7000
                               ***Turning on DIIS***
  2  -1220.3872496418  -0.104874853327 0.25834783  0.00146358  0.0366030 0.0000
  3  -1220.5587216368  -0.171471995015 0.30482390  0.00076759  0.0502563 0.0000
  4  -1220.5901863725  -0.031464735741 0.04030034  0.00025689  0.0153186 0.0000
  5  -1220.5922481009  -0.002061728330 0.03858487  0.00011061  0.0069885 0.0000
                      *** Initiating the SOSCF procedure ***
                           *** Shutting down DIIS ***
                      *** Re-Reading the Fockian *** 
                      *** Removing any level shift *** 
ITER      Energy       Delta-E        Grad      Rot      Max-DP    RMS-DP
  6  -1220.59242569  -0.0001775902  0.000314  0.000314  0.006800  0.000028
               *** Restarting incremental Fock matrix formation ***
  7  -1220.59244949  -0.0000238005  0.000275  0.001641  0.003176  0.000023
  8  -1220.59244831   0.0000011778  0.000363  0.000640  0.001312  0.000008
  9  -1220.59245341  -0.0000050927  0.000066  0.000188  0.001166  0.000005
 10  -1220.59245310   0.0000003085  0.000072  0.000106  0.000613  0.000002
 11  -1220.59245360  -0.0000004985  0.000009  0.000029  0.000616  0.000002
 12  -1220.59245362  -0.0000000227  0.000018  0.000024  0.000489  0.000001
 13  -1220.59245363  -0.0000000110  0.000004  0.000010  0.000331  0.000001
 14  -1220.59245360   0.0000000302  0.000004  0.000006  0.000071  0.000001
                  ***Gradient check signals convergence***
              ***Rediagonalizing the Fockian in SOSCF/NRSCF***

               *****************************************************
               *                     SUCCESS                       *
               *           SCF CONVERGED AFTER  15 CYCLES          *
               *****************************************************

Old exchange energy                            =    -39.993820899 Eh
New exchange energy                            =    -39.993783628 Eh
Exchange energy change after final integration =      0.000037272 Eh
Total energy after final integration           =  -1220.592416415 Eh
Final COS-X integration done in                =    22.272 sec

----------------
TOTAL SCF ENERGY
----------------

Total Energy       :        -1220.59241641 Eh          -33214.00822 eV

Components:
Nuclear Repulsion  :         2523.02345607 Eh           68654.95859 eV
Electronic Energy  :        -3743.61587248 Eh         -101868.96681 eV
One Electron Energy:        -6681.59083337 Eh         -181815.32989 eV
Two Electron Energy:         2937.97496088 Eh           79946.36308 eV
Max COSX asymmetry :            0.00000235 Eh               0.00006 eV
CPCM Dielectric    :           -0.05204151 Eh              -1.41612 eV

Virial components:
Potential Energy   :        -2435.84858200 Eh          -66282.80967 eV
Kinetic Energy     :         1215.25616558 Eh           33068.80145 eV
Virial Ratio       :            2.00439105


DFT components:
N(Alpha)           :       94.000213064545 electrons
N(Beta)            :       94.000213064545 electrons
N(Total)           :      188.000426129091 electrons
E(X)               :     -119.791398514879 Eh       
E(C)               :       -6.338522585171 Eh       
E(XC)              :     -126.129921100049 Eh       
DFET-embed. en.    :        0.000000000000 Eh       
CPCM Solvation Model Properties:
Surface-charge          :           -0.03072934
Charge-correction       :           -0.00038188 Eh              -0.01039 eV
Free-energy (cav+disp)  :  This term is not implemented in the current solvation scheme

---------------
SCF CONVERGENCE
---------------

  Last Energy change         ...   -8.6609e-08  Tolerance :   1.0000e-08
  Last MAX-Density change    ...    2.3315e-15  Tolerance :   1.0000e-07
  Last RMS-Density change    ...    1.4353e-17  Tolerance :   5.0000e-09
  Last Orbital Gradient      ...    6.7318e-07  Tolerance :   1.0000e-05
  Last Orbital Rotation      ...    2.5652e-06  Tolerance :   1.0000e-05

             **** THE GBW FILE WAS UPDATED (TS2_CHCH2/TS2_CHCH2.gbw) ****
             **** DENSITY TS2_CHCH2/TS2_CHCH2.scfp WAS UPDATED ****
             **** ENERGY FILE WAS UPDATED (TS2_CHCH2/TS2_CHCH2.en.tmp) ****
             **** THE GBW FILE WAS UPDATED (TS2_CHCH2/TS2_CHCH2.gbw) ****
             **** DENSITY TS2_CHCH2/TS2_CHCH2.scfp WAS UPDATED ****
----------------
ORBITAL ENERGIES
----------------

  NO   OCC          E(Eh)            E(eV) 
   0   2.0000     -19.269222      -524.3422 
   1   2.0000     -19.246178      -523.7151 
   2   2.0000     -19.219297      -522.9837 
   3   2.0000     -19.203401      -522.5511 
   4   2.0000     -19.189448      -522.1714 
   5   2.0000     -14.565266      -396.3410 
   6   2.0000     -14.442045      -392.9880 
   7   2.0000     -10.367638      -282.1178 
   8   2.0000     -10.326628      -281.0018 
   9   2.0000     -10.291266      -280.0396 
  10   2.0000     -10.285233      -279.8754 
  11   2.0000     -10.285191      -279.8743 
  12   2.0000     -10.272400      -279.5262 
  13   2.0000     -10.266932      -279.3774 
  14   2.0000     -10.261156      -279.2202 
  15   2.0000     -10.260117      -279.1920 
  16   2.0000     -10.259005      -279.1617 
  17   2.0000     -10.250732      -278.9366 
  18   2.0000     -10.250499      -278.9303 
  19   2.0000     -10.239617      -278.6341 
  20   2.0000     -10.231945      -278.4254 
  21   2.0000     -10.229872      -278.3690 
  22   2.0000     -10.229651      -278.3630 
  23   2.0000     -10.226184      -278.2686 
  24   2.0000     -10.221920      -278.1526 
  25   2.0000     -10.215204      -277.9698 
  26   2.0000      -1.203156       -32.7395 
  27   2.0000      -1.158052       -31.5122 
  28   2.0000      -1.109438       -30.1893 
  29   2.0000      -1.063979       -28.9523 
  30   2.0000      -1.029275       -28.0080 
  31   2.0000      -1.019101       -27.7312 
  32   2.0000      -0.905851       -24.6494 
  33   2.0000      -0.879327       -23.9277 
  34   2.0000      -0.858023       -23.3480 
  35   2.0000      -0.831391       -22.6233 
  36   2.0000      -0.815705       -22.1965 
  37   2.0000      -0.793753       -21.5991 
  38   2.0000      -0.785160       -21.3653 
  39   2.0000      -0.778628       -21.1875 
  40   2.0000      -0.749475       -20.3942 
  41   2.0000      -0.720011       -19.5925 
  42   2.0000      -0.697819       -18.9886 
  43   2.0000      -0.681210       -18.5367 
  44   2.0000      -0.668704       -18.1964 
  45   2.0000      -0.636294       -17.3144 
  46   2.0000      -0.625555       -17.0222 
  47   2.0000      -0.614484       -16.7210 
  48   2.0000      -0.598902       -16.2970 
  49   2.0000      -0.584693       -15.9103 
  50   2.0000      -0.563016       -15.3204 
  51   2.0000      -0.558461       -15.1965 
  52   2.0000      -0.549416       -14.9504 
  53   2.0000      -0.534330       -14.5398 
  54   2.0000      -0.527429       -14.3521 
  55   2.0000      -0.522302       -14.2126 
  56   2.0000      -0.516513       -14.0550 
  57   2.0000      -0.507037       -13.7972 
  58   2.0000      -0.504024       -13.7152 
  59   2.0000      -0.501684       -13.6515 
  60   2.0000      -0.498104       -13.5541 
  61   2.0000      -0.491799       -13.3825 
  62   2.0000      -0.488340       -13.2884 
  63   2.0000      -0.465470       -12.6661 
  64   2.0000      -0.464658       -12.6440 
  65   2.0000      -0.459272       -12.4974 
  66   2.0000      -0.454319       -12.3626 
  67   2.0000      -0.447000       -12.1635 
  68   2.0000      -0.438498       -11.9321 
  69   2.0000      -0.434329       -11.8187 
  70   2.0000      -0.431472       -11.7410 
  71   2.0000      -0.428303       -11.6547 
  72   2.0000      -0.415628       -11.3098 
  73   2.0000      -0.414852       -11.2887 
  74   2.0000      -0.401897       -10.9362 
  75   2.0000      -0.396919       -10.8007 
  76   2.0000      -0.387060       -10.5324 
  77   2.0000      -0.383474       -10.4348 
  78   2.0000      -0.378371       -10.2960 
  79   2.0000      -0.368415       -10.0251 
  80   2.0000      -0.352266        -9.5856 
  81   2.0000      -0.344973        -9.3872 
  82   2.0000      -0.344307        -9.3691 
  83   2.0000      -0.335331        -9.1248 
  84   2.0000      -0.327885        -8.9222 
  85   2.0000      -0.326419        -8.8823 
  86   2.0000      -0.313128        -8.5206 
  87   2.0000      -0.308983        -8.4079 
  88   2.0000      -0.300903        -8.1880 
  89   2.0000      -0.299838        -8.1590 
  90   2.0000      -0.276297        -7.5184 
  91   2.0000      -0.269959        -7.3460 
  92   2.0000      -0.240783        -6.5520 
  93   2.0000      -0.211817        -5.7638 
  94   0.0000      -0.055900        -1.5211 
  95   0.0000      -0.044177        -1.2021 
  96   0.0000      -0.034857        -0.9485 
  97   0.0000      -0.026700        -0.7265 
  98   0.0000      -0.015483        -0.4213 
  99   0.0000       0.003914         0.1065 
 100   0.0000       0.046151         1.2558 
 101   0.0000       0.056928         1.5491 
 102   0.0000       0.060645         1.6502 
 103   0.0000       0.064959         1.7676 
 104   0.0000       0.069619         1.8944 
 105   0.0000       0.074055         2.0152 
 106   0.0000       0.078698         2.1415 
 107   0.0000       0.082474         2.2442 
 108   0.0000       0.088922         2.4197 
 109   0.0000       0.092609         2.5200 
 110   0.0000       0.098077         2.6688 
 111   0.0000       0.101072         2.7503 
 112   0.0000       0.108722         2.9585 
 113   0.0000       0.116316         3.1651 
 114   0.0000       0.117323         3.1925 
 115   0.0000       0.125179         3.4063 
 116   0.0000       0.126086         3.4310 
 117   0.0000       0.127712         3.4752 
 118   0.0000       0.132870         3.6156 
 119   0.0000       0.137588         3.7439 
 120   0.0000       0.139508         3.7962 
 121   0.0000       0.140497         3.8231 
 122   0.0000       0.145918         3.9706 
 123   0.0000       0.150154         4.0859 
 124   0.0000       0.152022         4.1367 
 125   0.0000       0.157817         4.2944 
 126   0.0000       0.163557         4.4506 
 127   0.0000       0.170374         4.6361 
 128   0.0000       0.175776         4.7831 
 129   0.0000       0.179127         4.8743 
 130   0.0000       0.193339         5.2610 
 131   0.0000       0.196467         5.3461 
 132   0.0000       0.202730         5.5166 
 133   0.0000       0.202966         5.5230 
 134   0.0000       0.209962         5.7133 
 135   0.0000       0.216191         5.8828 
 136   0.0000       0.220460         5.9990 
 137   0.0000       0.221901         6.0382 
 138   0.0000       0.223549         6.0831 
 139   0.0000       0.227028         6.1777 
 140   0.0000       0.231258         6.2929 
 141   0.0000       0.234271         6.3748 
 142   0.0000       0.241218         6.5639 
 143   0.0000       0.244690         6.6584 
 144   0.0000       0.245429         6.6785 
 145   0.0000       0.250021         6.8034 
 146   0.0000       0.256044         6.9673 
 147   0.0000       0.259822         7.0701 
 148   0.0000       0.262693         7.1482 
 149   0.0000       0.266305         7.2465 
 150   0.0000       0.272904         7.4261 
 151   0.0000       0.276603         7.5268 
 152   0.0000       0.281411         7.6576 
 153   0.0000       0.285977         7.7818 
 154   0.0000       0.294508         8.0140 
 155   0.0000       0.298212         8.1148 
 156   0.0000       0.300386         8.1739 
 157   0.0000       0.303048         8.2464 
 158   0.0000       0.306300         8.3348 
 159   0.0000       0.315652         8.5893 
 160   0.0000       0.317239         8.6325 
 161   0.0000       0.320588         8.7236 
 162   0.0000       0.325504         8.8574 
 163   0.0000       0.330427         8.9914 
 164   0.0000       0.332608         9.0507 
 165   0.0000       0.334689         9.1073 
 166   0.0000       0.343042         9.3346 
 167   0.0000       0.349167         9.5013 
 168   0.0000       0.350615         9.5407 
 169   0.0000       0.357296         9.7225 
 170   0.0000       0.357955         9.7405 
 171   0.0000       0.360348         9.8056 
 172   0.0000       0.364399         9.9158 
 173   0.0000       0.371377        10.1057 
 174   0.0000       0.374577        10.1928 
 175   0.0000       0.378709        10.3052 
 176   0.0000       0.382775        10.4158 
 177   0.0000       0.393194        10.6993 
 178   0.0000       0.395892        10.7728 
 179   0.0000       0.397555        10.8180 
 180   0.0000       0.402313        10.9475 
 181   0.0000       0.404850        11.0165 
 182   0.0000       0.407576        11.0907 
 183   0.0000       0.410764        11.1775 
 184   0.0000       0.416535        11.3345 
 185   0.0000       0.418778        11.3955 
 186   0.0000       0.421302        11.4642 
 187   0.0000       0.428887        11.6706 
 188   0.0000       0.430734        11.7209 
 189   0.0000       0.433543        11.7973 
 190   0.0000       0.438825        11.9410 
 191   0.0000       0.441330        12.0092 
 192   0.0000       0.446947        12.1621 
 193   0.0000       0.448843        12.2136 
 194   0.0000       0.453220        12.3328 
 195   0.0000       0.455348        12.3906 
 196   0.0000       0.459807        12.5120 
 197   0.0000       0.461271        12.5518 
 198   0.0000       0.468289        12.7428 
 199   0.0000       0.472104        12.8466 
 200   0.0000       0.474485        12.9114 
 201   0.0000       0.476378        12.9629 
 202   0.0000       0.480550        13.0764 
 203   0.0000       0.482058        13.1175 
 204   0.0000       0.485076        13.1996 
 205   0.0000       0.488146        13.2831 
 206   0.0000       0.490631        13.3508 
[...]
 33:    383.78   0.004840   24.46  0.003936  ( 0.062603 -0.003976 -0.000723)
 34:    394.73   0.000026    0.13  0.000020  (-0.004310  0.001135  0.000720)
 35:    443.06   0.000167    0.84  0.000117  (-0.005769 -0.000464  0.009161)
 36:    451.90   0.001584    8.01  0.001094  (-0.021585 -0.023253  0.009345)
 37:    488.01   0.002457   12.42  0.001571  (-0.038669 -0.002537 -0.008351)
 38:    498.21   0.001095    5.53  0.000686  (-0.001575 -0.017325  0.019571)
 39:    560.46   0.001245    6.29  0.000693  (-0.007322  0.024296 -0.007013)
 40:    581.63   0.003887   19.64  0.002085  ( 0.019519  0.029117  0.029266)
 41:    606.22   0.003597   18.18  0.001852  (-0.027095  0.026846 -0.019919)
 42:    619.06   0.005126   25.91  0.002584  ( 0.032551  0.034817 -0.017675)
 43:    635.56   0.004397   22.22  0.002159  ( 0.023063 -0.039169  0.009627)
 44:    652.57   0.005006   25.30  0.002394  ( 0.018640 -0.044580 -0.007683)
 45:    660.15   0.000567    2.87  0.000268  ( 0.010048 -0.012875 -0.001179)
 46:    674.51   0.002482   12.54  0.001148  ( 0.005976  0.028673  0.017046)
 47:    696.77   0.003503   17.70  0.001569  ( 0.025259 -0.021957  0.021181)
 48:    711.00   0.021285  107.57  0.009342  (-0.034592 -0.081307  0.039178)
 49:    723.97   0.004906   24.79  0.002115  (-0.022171 -0.039844 -0.005980)
 50:    747.97   0.002865   14.48  0.001195  (-0.011421 -0.031327  0.009139)
 51:    764.66   0.006174   31.20  0.002520  ( 0.035427 -0.035340 -0.003976)
 52:    768.53   0.011775   59.50  0.004781  (-0.031988  0.043613 -0.043079)
 53:    777.13   0.016880   85.30  0.006778  (-0.000090 -0.074870  0.034244)
 54:    779.91   0.000760    3.84  0.000304  ( 0.002052 -0.012207  0.012290)
 55:    810.90   0.005229   26.43  0.002012  (-0.008972 -0.015619 -0.041085)
 56:    846.20   0.003734   18.87  0.001377  (-0.017081 -0.020781  0.025565)
 57:    872.29   0.002630   13.29  0.000941  ( 0.001604 -0.025330  0.017221)
 58:    887.43   0.007170   36.24  0.002521  ( 0.029648  0.036520 -0.017570)
 59:    892.73   0.000004    0.02  0.000001  (-0.000391 -0.001050 -0.000028)
 60:    903.51   0.007167   36.22  0.002476  ( 0.013009  0.029926 -0.037560)
 61:    912.25   0.019087   96.46  0.006529  ( 0.033103  0.056409  0.047449)
 62:    966.21   0.001134    5.73  0.000366  ( 0.002334 -0.014992  0.011665)
 63:    977.21   0.000140    0.71  0.000045  (-0.003762 -0.003681  0.004127)
 64:    994.96   0.000047    0.24  0.000015  ( 0.001318 -0.002877  0.002156)
 65:   1014.01   0.000021    0.11  0.000007  ( 0.001082  0.000136  0.002308)
 66:   1020.66   0.001442    7.29  0.000441  (-0.008195 -0.012668  0.014604)
 67:   1027.34   0.006703   33.87  0.002036  (-0.017119 -0.033279 -0.025211)
 68:   1037.44   0.012824   64.81  0.003857  (-0.040350  0.043711 -0.017849)
 69:   1040.66   0.000037    0.19  0.000011  (-0.000206  0.003313 -0.000466)
 70:   1060.69   0.000091    0.46  0.000027  ( 0.003544  0.001649 -0.003377)
 71:   1071.06   0.009650   48.77  0.002812  (-0.043893 -0.007241  0.028857)
 72:   1083.63   0.024875  125.71  0.007164  ( 0.029588  0.025706  0.075015)
 73:   1083.86   0.010591   53.52  0.003049  ( 0.053237  0.011860 -0.008639)
 74:   1094.41   0.017839   90.15  0.005087  ( 0.017258 -0.067694  0.014365)
 75:   1109.87   0.030103  152.13  0.008464  ( 0.042745  0.058098 -0.057111)
 76:   1114.01   0.030872  156.01  0.008648  ( 0.017703  0.066654 -0.062385)
 77:   1120.97   0.001718    8.68  0.000478  ( 0.009447  0.011201  0.016239)
 78:   1138.51   0.029415  148.65  0.008063  (-0.055100 -0.013707  0.069560)
 79:   1167.28   0.000689    3.48  0.000184  (-0.004365 -0.003618 -0.012329)
 80:   1170.42   0.000204    1.03  0.000054  (-0.002761  0.005504 -0.004043)
 81:   1171.57   0.000469    2.37  0.000125  ( 0.009116 -0.005964 -0.002505)
 82:   1174.90   0.002070   10.46  0.000550  ( 0.018669  0.001199 -0.014140)
 83:   1194.00   0.001293    6.53  0.000338  ( 0.007908  0.004367 -0.016007)
 84:   1207.88   0.000401    2.03  0.000104  (-0.005838 -0.000273 -0.008330)
 85:   1213.05   0.001558    7.87  0.000401  ( 0.018488 -0.006939 -0.003299)
 86:   1228.83   0.003954   19.98  0.001004  ( 0.011602  0.014608 -0.025613)
 87:   1238.58   0.007079   35.78  0.001784  (-0.031947  0.027459  0.002999)
 88:   1245.72   0.004387   22.17  0.001099  (-0.019396  0.019153 -0.018865)
 89:   1273.43   0.023713  119.84  0.005811  (-0.047219 -0.019097  0.056717)
 90:   1283.75   0.043258  218.61  0.010516  ( 0.047689 -0.089228 -0.016726)
 91:   1300.63   0.064486  325.89  0.015472  ( 0.036712 -0.066022 -0.098822)
 92:   1304.98   0.041331  208.87  0.009884  ( 0.071295  0.048806  0.049180)
 93:   1321.78   0.022060  111.48  0.005208  (-0.031820  0.043066  0.048384)
 94:   1330.42   0.083911  424.05  0.019682  ( 0.136578 -0.029347  0.012943)
 95:   1342.25   0.004118   20.81  0.000957  ( 0.021916  0.009153  0.019834)
 96:   1372.19   0.025764  130.20  0.005859  (-0.059644  0.014021 -0.045884)
 97:   1387.63   0.002630   13.29  0.000591  ( 0.010954  0.001035 -0.021690)
 98:   1394.73   0.028709  145.08  0.006423  ( 0.002097 -0.015796  0.078546)
 99:   1407.32   0.003106   15.70  0.000689  (-0.001076  0.013746  0.022330)
100:   1465.25   0.003987   20.15  0.000849  ( 0.018943 -0.017932 -0.012987)
101:   1465.39   0.004036   20.39  0.000859  (-0.012034 -0.011495 -0.024134)
102:   1470.12   0.014175   71.64  0.003009  (-0.038912 -0.014736 -0.035746)
103:   1471.67   0.012900   65.19  0.002735  ( 0.039773 -0.020155 -0.027338)
104:   1472.35   0.003260   16.48  0.000691  (-0.004843  0.024114 -0.009275)
105:   1473.01   0.002878   14.54  0.000610  ( 0.000285 -0.024338 -0.004157)
106:   1481.93   0.004416   22.32  0.000930  (-0.000176 -0.012134 -0.027977)
107:   1494.19   0.013133   66.37  0.002743  ( 0.008294  0.013488  0.049922)
108:   1497.94   0.010254   51.82  0.002136  (-0.012552  0.024686  0.037003)
109:   1529.09   0.001298    6.56  0.000265  ( 0.015984  0.002637 -0.001573)
110:   1537.80   0.035802  180.93  0.007265  (-0.016326  0.041817  0.072457)
111:   1599.61   0.229389  1159.24  0.044751  (-0.158432 -0.047572  0.131859)
112:   1648.91   0.001340    6.77  0.000254  ( 0.004473  0.005964  0.014074)
113:   1649.94   0.001852    9.36  0.000350  ( 0.008511 -0.011492 -0.012071)
114:   1663.76   0.011870   59.99  0.002226  (-0.001721  0.029388  0.036877)
115:   1666.78   0.012358   62.45  0.002314  ( 0.039507 -0.027436  0.000501)
116:   1669.92   0.018128   91.61  0.003388  (-0.015926 -0.021732  0.051591)
117:   1793.60   0.113275  572.44  0.019708  (-0.023463 -0.086657  0.107928)
118:   3037.91   0.012612   63.73  0.001296  (-0.029584  0.003790  0.020148)
119:   3074.61   0.005769   29.16  0.000586  ( 0.014739  0.017284  0.008342)
120:   3107.34   0.000503    2.54  0.000051  (-0.003202 -0.006298 -0.000764)
121:   3109.80   0.007761   39.22  0.000779  ( 0.005804 -0.022151  0.015951)
122:   3159.24   0.003510   17.74  0.000347  (-0.014993  0.010036  0.004604)
123:   3160.01   0.000073    0.37  0.000007  (-0.001130 -0.000219 -0.002421)
124:   3165.73   0.003701   18.71  0.000365  ( 0.004653  0.011739  0.014333)
125:   3182.69   0.000483    2.44  0.000047  ( 0.006594  0.001277 -0.001500)
126:   3192.56   0.000575    2.91  0.000056  (-0.000359 -0.004196  0.006206)
127:   3193.27   0.001888    9.54  0.000185  (-0.002296  0.003439 -0.012940)
128:   3195.39   0.001349    6.82  0.000132  (-0.010535 -0.004451 -0.000956)
129:   3200.06   0.000722    3.65  0.000070  (-0.006788  0.002685 -0.004136)
130:   3205.76   0.000813    4.11  0.000079  (-0.007598  0.004352  0.001564)
131:   3212.40   0.000010    0.05  0.000001  (-0.000275 -0.000187 -0.000936)
132:   3213.58   0.003023   15.28  0.000294  (-0.001798 -0.010264 -0.013599)
133:   3229.81   0.000201    1.02  0.000019  (-0.000307 -0.001538 -0.004122)
134:   3230.93   0.000420    2.12  0.000041  ( 0.005756  0.000662 -0.002644)
135:   3233.97   0.000331    1.67  0.000032  ( 0.004686 -0.003116  0.000512)
136:   3252.14   0.000856    4.32  0.000082  ( 0.002442 -0.006471  0.005855)
137:   3280.02   0.000314    1.59  0.000030  ( 0.003046 -0.004122 -0.001889)

* The epsilon (eps) is given for a Dirac delta lineshape.
** The dipole moment derivative (T) already includes vibrational overlap.

The first frequency considered to be a vibration is 7
The total number of vibrations considered is 131


--------------------------
THERMOCHEMISTRY AT 298.15K
--------------------------

Temperature         ... 298.15 K
Pressure            ... 1.00 atm
Total Mass          ... 356.38 AMU

Throughout the following assumptions are being made:
  (1) The electronic state is orbitally nondegenerate
  (2) There are no thermally accessible electronically excited states
  (3) Hindered rotations indicated by low frequency modes are not
      treated as such but are treated as vibrations and this may
      cause some error
  (4) All equations used are the standard statistical mechanics
      equations for an ideal gas
  (5) All vibrations are strictly harmonic

freq.      21.50  E(vib)   ...       0.56 
freq.      35.23  E(vib)   ...       0.54 
freq.      43.39  E(vib)   ...       0.53 
freq.      55.43  E(vib)   ...       0.52 
freq.      59.89  E(vib)   ...       0.51 
freq.      67.05  E(vib)   ...       0.50 
freq.      68.88  E(vib)   ...       0.50 
freq.      79.57  E(vib)   ...       0.49 
freq.     102.96  E(vib)   ...       0.46 
freq.     108.80  E(vib)   ...       0.45 
freq.     136.03  E(vib)   ...       0.42 
freq.     147.76  E(vib)   ...       0.41 
freq.     152.89  E(vib)   ...       0.40 
freq.     163.98  E(vib)   ...       0.39 
freq.     173.64  E(vib)   ...       0.38 
freq.     180.90  E(vib)   ...       0.37 
freq.     187.53  E(vib)   ...       0.36 
freq.     201.21  E(vib)   ...       0.35 
freq.     219.43  E(vib)   ...       0.33 
freq.     239.74  E(vib)   ...       0.31 
freq.     247.74  E(vib)   ...       0.31 
freq.     260.83  E(vib)   ...       0.30 
freq.     291.68  E(vib)   ...       0.27 
freq.     311.32  E(vib)   ...       0.25 
freq.     327.80  E(vib)   ...       0.24 
freq.     357.20  E(vib)   ...       0.22 
freq.     383.78  E(vib)   ...       0.20 
freq.     394.73  E(vib)   ...       0.20 
freq.     443.06  E(vib)   ...       0.17 
freq.     451.90  E(vib)   ...       0.16 
freq.     488.01  E(vib)   ...       0.15 
freq.     498.21  E(vib)   ...       0.14 
freq.     560.46  E(vib)   ...       0.11 
freq.     581.63  E(vib)   ...       0.11 
freq.     606.22  E(vib)   ...       0.10 
freq.     619.06  E(vib)   ...       0.09 
freq.     635.56  E(vib)   ...       0.09 
freq.     652.57  E(vib)   ...       0.08 
freq.     660.15  E(vib)   ...       0.08 
freq.     674.51  E(vib)   ...       0.08 
freq.     696.77  E(vib)   ...       0.07 
freq.     711.00  E(vib)   ...       0.07 
freq.     723.97  E(vib)   ...       0.06 
freq.     747.97  E(vib)   ...       0.06 
freq.     764.66  E(vib)   ...       0.06 
freq.     768.53  E(vib)   ...       0.06 
freq.     777.13  E(vib)   ...       0.05 
freq.     779.91  E(vib)   ...       0.05 
freq.     810.90  E(vib)   ...       0.05 
freq.     846.20  E(vib)   ...       0.04 
freq.     872.29  E(vib)   ...       0.04 
freq.     887.43  E(vib)   ...       0.04 
freq.     892.73  E(vib)   ...       0.03 
freq.     903.51  E(vib)   ...       0.03 
freq.     912.25  E(vib)   ...       0.03 
freq.     966.21  E(vib)   ...       0.03 
freq.     977.21  E(vib)   ...       0.03 
freq.     994.96  E(vib)   ...       0.02 
freq.    1014.01  E(vib)   ...       0.02 
freq.    1020.66  E(vib)   ...       0.02 
freq.    1027.34  E(vib)   ...       0.02 
freq.    1037.44  E(vib)   ...       0.02 
freq.    1040.66  E(vib)   ...       0.02 
freq.    1060.69  E(vib)   ...       0.02 
freq.    1071.06  E(vib)   ...       0.02 
freq.    1083.63  E(vib)   ...       0.02 
freq.    1083.86  E(vib)   ...       0.02 
freq.    1094.41  E(vib)   ...       0.02 
freq.    1109.87  E(vib)   ...       0.02 
freq.    1114.01  E(vib)   ...       0.01 
freq.    1120.97  E(vib)   ...       0.01 
freq.    1138.51  E(vib)   ...       0.01 
freq.    1167.28  E(vib)   ...       0.01 
freq.    1170.42  E(vib)   ...       0.01 
freq.    1171.57  E(vib)   ...       0.01 
freq.    1174.90  E(vib)   ...       0.01 
freq.    1194.00  E(vib)   ...       0.01 
freq.    1207.88  E(vib)   ...       0.01 
freq.    1213.05  E(vib)   ...       0.01 
freq.    1228.83  E(vib)   ...       0.01 
freq.    1238.58  E(vib)   ...       0.01 
freq.    1245.72  E(vib)   ...       0.01 
freq.    1273.43  E(vib)   ...       0.01 
freq.    1283.75  E(vib)   ...       0.01 
freq.    1300.63  E(vib)   ...       0.01 
freq.    1304.98  E(vib)   ...       0.01 
freq.    1321.78  E(vib)   ...       0.01 
freq.    1330.42  E(vib)   ...       0.01 
freq.    1342.25  E(vib)   ...       0.01 
freq.    1372.19  E(vib)   ...       0.01 
freq.    1387.63  E(vib)   ...       0.00 
freq.    1394.73  E(vib)   ...       0.00 
freq.    1407.32  E(vib)   ...       0.00 
freq.    1465.25  E(vib)   ...       0.00 
freq.    1465.39  E(vib)   ...       0.00 
freq.    1470.12  E(vib)   ...       0.00 
freq.    1471.67  E(vib)   ...       0.00 
freq.    1472.35  E(vib)   ...       0.00 
freq.    1473.01  E(vib)   ...       0.00 
freq.    1481.93  E(vib)   ...       0.00 
freq.    1494.19  E(vib)   ...       0.00 
freq.    1497.94  E(vib)   ...       0.00 
freq.    1529.09  E(vib)   ...       0.00 
freq.    1537.80  E(vib)   ...       0.00 
freq.    1599.61  E(vib)   ...       0.00 
freq.    1648.91  E(vib)   ...       0.00 
freq.    1649.94  E(vib)   ...       0.00 
freq.    1663.76  E(vib)   ...       0.00 
freq.    1666.78  E(vib)   ...       0.00 
freq.    1669.92  E(vib)   ...       0.00 
freq.    1793.60  E(vib)   ...       0.00 
freq.    3037.91  E(vib)   ...       0.00 
freq.    3074.61  E(vib)   ...       0.00 
freq.    3107.34  E(vib)   ...       0.00 
freq.    3109.80  E(vib)   ...       0.00 
freq.    3159.24  E(vib)   ...       0.00 
freq.    3160.01  E(vib)   ...       0.00 
freq.    3165.73  E(vib)   ...       0.00 
freq.    3182.69  E(vib)   ...       0.00 
freq.    3192.56  E(vib)   ...       0.00 
freq.    3193.27  E(vib)   ...       0.00 
freq.    3195.39  E(vib)   ...       0.00 
freq.    3200.06  E(vib)   ...       0.00 
freq.    3205.76  E(vib)   ...       0.00 
freq.    3212.40  E(vib)   ...       0.00 
freq.    3213.58  E(vib)   ...       0.00 
freq.    3229.81  E(vib)   ...       0.00 
freq.    3230.93  E(vib)   ...       0.00 
freq.    3233.97  E(vib)   ...       0.00 
freq.    3252.14  E(vib)   ...       0.00 
freq.    3280.02  E(vib)   ...       0.00 

------------
INNER ENERGY
------------

The inner energy is: U= E(el) + E(ZPE) + E(vib) + E(rot) + E(trans)
    E(el)   - is the total energy from the electronic structure calculation
              = E(kin-el) + E(nuc-el) + E(el-el) + E(nuc-nuc)
    E(ZPE)  - the the zero temperature vibrational energy from the frequency calculation
    E(vib)  - the the finite temperature correction to E(ZPE) due to population
              of excited vibrational states
    E(rot)  - is the rotational thermal energy
    E(trans)- is the translational thermal energy

Summary of contributions to the inner energy U:
Electronic energy                ...  -1220.65293254 Eh
Zero point energy                ...      0.36533341 Eh     229.25 kcal/mol
Thermal vibrational correction   ...      0.02140922 Eh      13.43 kcal/mol
Thermal rotational correction    ...      0.00141627 Eh       0.89 kcal/mol
Thermal translational correction ...      0.00141627 Eh       0.89 kcal/mol
-----------------------------------------------------------------------
Total thermal energy                  -1220.26335737 Eh


Summary of corrections to the electronic energy:
(perhaps to be used in another calculation)
Total thermal correction                  0.02424176 Eh      15.21 kcal/mol
Non-thermal (ZPE) correction              0.36533341 Eh     229.25 kcal/mol
-----------------------------------------------------------------------
Total correction                          0.38957518 Eh     244.46 kcal/mol


--------
ENTHALPY
--------

The enthalpy is H = U + kB*T
                kB is Boltzmann's constant
Total free energy                 ...  -1220.26335737 Eh 
Thermal Enthalpy correction       ...      0.00094421 Eh       0.59 kcal/mol
-----------------------------------------------------------------------
Total Enthalpy                    ...  -1220.26241316 Eh


Note: Only C1 symmetry has been detected, increase convergence thresholds 
      if your molecule has a higher symmetry. Symmetry factor of 1.0 is   
      used for the rotational entropy correction. 
 

Note: Rotational entropy computed according to Herzberg 
Infrared and Raman Spectra, Chapter V,1, Van Nostrand Reinhold, 1945 
Point Group:  C1, Symmetry Number:   1  
Rotational constants in cm-1:     0.008792     0.007292     0.005329 

Vibrational entropy computed according to the QRRHO of S. Grimme
Chem.Eur.J. 2012 18 9955


-------
ENTROPY
-------

The entropy contributions are T*S = T*(S(el)+S(vib)+S(rot)+S(trans))
     S(el)   - electronic entropy
     S(vib)  - vibrational entropy
     S(rot)  - rotational entropy
     S(trans)- translational entropy
The entropies will be listed as multiplied by the temperature to get
units of energy

Electronic entropy                ...      0.00000000 Eh      0.00 kcal/mol
Vibrational entropy               ...      0.03850883 Eh     24.16 kcal/mol
Rotational entropy                ...      0.01653998 Eh     10.38 kcal/mol
Translational entropy             ...      0.02067107 Eh     12.97 kcal/mol
-----------------------------------------------------------------------
Final entropy term                ...      0.07571988 Eh     47.51 kcal/mol

In case the symmetry of your molecule has not been determined correctly
or in case you have a reason to use a different symmetry number we print 
out the resulting rotational entropy values for sn=1,12 :
 --------------------------------------------------------
|  sn= 1 | S(rot)=       0.01653998 Eh     10.38 kcal/mol|
|  sn= 2 | S(rot)=       0.01588552 Eh      9.97 kcal/mol|
|  sn= 3 | S(rot)=       0.01550269 Eh      9.73 kcal/mol|
|  sn= 4 | S(rot)=       0.01523107 Eh      9.56 kcal/mol|
|  sn= 5 | S(rot)=       0.01502038 Eh      9.43 kcal/mol|
|  sn= 6 | S(rot)=       0.01484824 Eh      9.32 kcal/mol|
|  sn= 7 | S(rot)=       0.01470269 Eh      9.23 kcal/mol|
|  sn= 8 | S(rot)=       0.01457661 Eh      9.15 kcal/mol|
|  sn= 9 | S(rot)=       0.01446540 Eh      9.08 kcal/mol|
|  sn=10 | S(rot)=       0.01436592 Eh      9.01 kcal/mol|
|  sn=11 | S(rot)=       0.01427593 Eh      8.96 kcal/mol|
|  sn=12 | S(rot)=       0.01419378 Eh      8.91 kcal/mol|
 --------------------------------------------------------


-------------------
GIBBS FREE ENERGY
-------------------

The Gibbs free energy is G = H - T*S

Total enthalpy                    ...  -1220.26241316 Eh 
Total entropy correction          ...     -0.07571988 Eh    -47.51 kcal/mol
-----------------------------------------------------------------------
Final Gibbs free energy         ...  -1220.33813304 Eh

For completeness - the Gibbs free energy minus the electronic energy
G-E(el)                           ...      0.31479950 Eh    197.54 kcal/mol


Timings for individual modules:

Sum of individual times         ...    10049.800 sec (= 167.497 min)
GTO integral calculation        ...      114.076 sec (=   1.901 min)   1.1 %
SCF iterations                  ...     5056.338 sec (=  84.272 min)  50.3 %
SCF Gradient evaluation         ...     1638.499 sec (=  27.308 min)  16.3 %
Geometry relaxation             ...        7.981 sec (=   0.133 min)   0.1 %
Analytical frequency calculation...     3232.906 sec (=  53.882 min)  32.2 %
                             ****ORCA TERMINATED NORMALLY****
TOTAL RUN TIME: 0 days 2 hours 49 minutes 31 seconds 671 msec
