
                                 *****************
                                 * O   R   C   A *
                                 *****************

                                            #,                                       
                                            ###                                      
                                            ####                                     
                                            #####                                    
                                            ######                                   
                                           ########,                                 
                                     ,,################,,,,,                         
                               ,,#################################,,                 
                          ,,##########################################,,             
                       ,#########################################, ''#####,          
                    ,#############################################,,   '####,        
                  ,##################################################,,,,####,       
                ,###########''''           ''''###############################       
              ,#####''   ,,,,##########,,,,          '''####'''          '####       
            ,##' ,,,,###########################,,,                        '##       
           ' ,,###''''                  '''############,,,                           
         ,,##''                                '''############,,,,        ,,,,,,###''
      ,#''                                            '''#######################'''  
     '                                                          ''''####''''         
             ,#######,   #######,   ,#######,      ##                                
            ,#'     '#,  ##    ##  ,#'     '#,    #''#        ######   ,####,        
            ##       ##  ##   ,#'  ##            #'  '#       #        #'  '#        
            ##       ##  #######   ##           ,######,      #####,   #    #        
            '#,     ,#'  ##    ##  '#,     ,#' ,#      #,         ##   #,  ,#        
             '#######'   ##     ##  '#######'  #'      '#     #####' # '####'        



                  #######################################################
                  #                        -***-                        #
                  #          Department of theory and spectroscopy      #
                  #    Directorship and core code : Frank Neese         #
                  #        Max Planck Institute fuer Kohlenforschung    #
                  #                Kaiser Wilhelm Platz 1               #
                  #                 D-45470 Muelheim/Ruhr               #
                  #                      Germany                        #
                  #                                                     #
                  #                  All rights reserved                #
                  #                        -***-                        #
                  #######################################################


                         Program Version 5.0.4 -  RELEASE  -


 With contributions from (in alphabetic order):
   Daniel Aravena         : Magnetic Suceptibility
   Michael Atanasov       : Ab Initio Ligand Field Theory (pilot matlab implementation)
   Alexander A. Auer      : GIAO ZORA, VPT2 properties, NMR spectrum
   Ute Becker             : Parallelization
   Giovanni Bistoni       : ED, misc. LED, open-shell LED, HFLD
   Martin Brehm           : Molecular dynamics
   Dmytro Bykov           : SCF Hessian
   Vijay G. Chilkuri      : MRCI spin determinant printing, contributions to CSF-ICE
   Dipayan Datta          : RHF DLPNO-CCSD density
   Achintya Kumar Dutta   : EOM-CC, STEOM-CC
   Dmitry Ganyushin       : Spin-Orbit,Spin-Spin,Magnetic field MRCI
   Miquel Garcia          : C-PCM and meta-GGA Hessian, CC/C-PCM, Gaussian charge scheme
   Yang Guo               : DLPNO-NEVPT2, F12-NEVPT2, CIM, IAO-localization
   Andreas Hansen         : Spin unrestricted coupled pair/coupled cluster methods
   Benjamin Helmich-Paris : MC-RPA, TRAH-SCF, COSX integrals
   Lee Huntington         : MR-EOM, pCC
   Robert Izsak           : Overlap fitted RIJCOSX, COSX-SCS-MP3, EOM
   Marcus Kettner         : VPT2
   Christian Kollmar      : KDIIS, OOCD, Brueckner-CCSD(T), CCSD density, CASPT2, CASPT2-K
   Simone Kossmann        : Meta GGA functionals, TD-DFT gradient, OOMP2, MP2 Hessian
   Martin Krupicka        : Initial AUTO-CI
   Lucas Lang             : DCDCAS
   Marvin Lechner         : AUTO-CI (C++ implementation), FIC-MRCC
   Dagmar Lenk            : GEPOL surface, SMD
   Dimitrios Liakos       : Extrapolation schemes; Compound Job, initial MDCI parallelization
   Dimitrios Manganas     : Further ROCIS development; embedding schemes
   Dimitrios Pantazis     : SARC Basis sets
   Anastasios Papadopoulos: AUTO-CI, single reference methods and gradients
   Taras Petrenko         : DFT Hessian,TD-DFT gradient, ASA, ECA, R-Raman, ABS, FL, XAS/XES, NRVS
   Peter Pinski           : DLPNO-MP2, DLPNO-MP2 Gradient
   Christoph Reimann      : Effective Core Potentials
   Marius Retegan         : Local ZFS, SOC
   Christoph Riplinger    : Optimizer, TS searches, QM/MM, DLPNO-CCSD(T), (RO)-DLPNO pert. Triples
   Tobias Risthaus        : Range-separated hybrids, TD-DFT gradient, RPA, STAB
   Michael Roemelt        : Original ROCIS implementation
   Masaaki Saitow         : Open-shell DLPNO-CCSD energy and density
   Barbara Sandhoefer     : DKH picture change effects
   Avijit Sen             : IP-ROCIS
   Kantharuban Sivalingam : CASSCF convergence, NEVPT2, FIC-MRCI
   Bernardo de Souza      : ESD, SOC TD-DFT
   Georgi Stoychev        : AutoAux, RI-MP2 NMR, DLPNO-MP2 response
   Willem Van den Heuvel  : Paramagnetic NMR
   Boris Wezisla          : Elementary symmetry handling
   Frank Wennmohs         : Technical directorship


 We gratefully acknowledge several colleagues who have allowed us to
 interface, adapt or use parts of their codes:
   Stefan Grimme, W. Hujo, H. Kruse, P. Pracht,  : VdW corrections, initial TS optimization,
                  C. Bannwarth, S. Ehlert          DFT functionals, gCP, sTDA/sTD-DF
   Ed Valeev, F. Pavosevic, A. Kumar             : LibInt (2-el integral package), F12 methods
   Garnet Chan, S. Sharma, J. Yang, R. Olivares  : DMRG
   Ulf Ekstrom                                   : XCFun DFT Library
   Mihaly Kallay                                 : mrcc  (arbitrary order and MRCC methods)
   Jiri Pittner, Ondrej Demel                    : Mk-CCSD
   Frank Weinhold                                : gennbo (NPA and NBO analysis)
   Christopher J. Cramer and Donald G. Truhlar   : smd solvation model
   Lars Goerigk                                  : TD-DFT with DH, B97 family of functionals
   V. Asgeirsson, H. Jonsson                     : NEB implementation
   FAccTs GmbH                                   : IRC, NEB, NEB-TS, DLPNO-Multilevel, CI-OPT
                                                   MM, QMMM, 2- and 3-layer-ONIOM, Crystal-QMMM,
                                                   LR-CPCM, SF, NACMEs, symmetry and pop. for TD-DFT,
                                                   nearIR, NL-DFT gradient (VV10), updates on ESD,
                                                   ML-optimized integration grids
   S Lehtola, MJT Oliveira, MAL Marques          : LibXC Library
   Liviu Ungur et al                             : ANISO software


 Your calculation uses the libint2 library for the computation of 2-el integrals
 For citations please refer to: http://libint.valeyev.net

 Your ORCA version has been built with support for libXC version: 5.1.0
 For citations please refer to: https://tddft.org/programs/libxc/

 This ORCA versions uses:
   CBLAS   interface :  Fast vector & matrix operations
   LAPACKE interface :  Fast linear algebra routines
   SCALAPACK package :  Parallel linear algebra routines
   Shared memory     :  Shared parallel matrices
   BLAS/LAPACK       :  OpenBLAS 0.3.15  USE64BITINT DYNAMIC_ARCH NO_AFFINITY Haswell SINGLE_THREADED
        Core in use  :  Haswell
   Copyright (c) 2011-2014, The OpenBLAS Project


Your calculation utilizes the atom-pairwise dispersion correction
with the Becke-Johnson damping scheme (D3BJ)
Cite in your paper:
S.Grimme, S.Ehrlich, L.Goerigk, J Comput Chem, (2011), 32, 1456–1465 
S.Grimme, J.Antony, S.Ehrlich and H.Krieg, J.Chem.Phys., 132, (2010), 154104 
   

================================================================================

----- Orbital basis set information -----
Your calculation utilizes the basis: def2-TZVP
   F. Weigend and R. Ahlrichs, Phys. Chem. Chem. Phys. 7, 3297 (2005).

----- AuxJ basis set information -----
Your calculation utilizes the auxiliary basis: def2/J
   F. Weigend, Phys. Chem. Chem. Phys. 8, 1057 (2006).

================================================================================
                                        WARNINGS
                       Please study these warnings very carefully!
================================================================================


WARNING: Geometry Optimization
  ===> : Switching off AutoStart
         For restart on a previous wavefunction, please use MOREAD

INFO   : the flag for use of the SHARK integral package has been found!

================================================================================
                                       INPUT FILE
================================================================================
NAME = TS2_NMe2/TS2_NMe2.inp
|  1> %pal nprocs 24 end
|  2> ! PBE0 D3BJ def2-TZVP TightSCF OPTTS FREQ TightOpt
|  3> ! CPCM(dmso)
|  4> %scf
|  5> MaxIter 800
|  6> end
|  7> 
|  8> %geom
|  9> MaxIter 800
| 10> MaxStep 0.15
| 11> end
| 12> 
| 13> *xyz 0 1
| 14> C      -4.04376900      1.70920000      0.08942900
| 15> C      -3.60744600      1.18186500     -1.12469900
| 16> C      -2.24088000      1.04243800     -1.33568600
| 17> N      -1.35457500      1.39439800     -0.40618700
| 18> C      -1.75482500      1.89501300      0.76254000
| 19> C      -3.10213700      2.07829600      1.04813200
| 20> C       0.52783200      0.99442700     -0.81165800
| 21> C       1.00794900      2.36407700     -0.45120400
| 22> O       0.94338600      3.32098200     -1.18302600
| 23> O       1.46763100      2.40289100      0.79639900
| 24> C       1.98586200      3.65022100      1.24385600
| 25> H      -5.11138300      1.83020000      0.28735000
| 26> H      -1.84236800      0.62886000     -2.26704000
| 27> H      -0.97496400      2.14891800      1.48645700
| 28> H      -3.40160800      2.49422900      2.01148800
| 29> H       0.24096500      0.85818600     -1.85026600
| 30> H       1.21533600      4.43177600      1.18316500
| 31> H       2.85100100      3.94639000      0.63356900
| 32> C       2.07486700     -0.58245700      0.29292000
| 33> C       0.63191100     -0.19950700      0.12511700
| 34> C      -0.20364500     -1.36172900     -0.37808900
| 35> C       0.15771400     -2.03002600     -1.54762500
| 36> C      -0.60849600     -3.08090400     -2.05131700
| 37> C      -1.75687800     -3.47104600     -1.36525200
| 38> C      -2.13874300     -2.82238900     -0.19070600
| 39> C      -1.36562300     -1.76659000      0.30798700
| 40> O      -1.66825000     -1.08718900      1.43288400
| 41> C      -2.85673600     -1.38866800      2.12418300
| 42> N       2.90838600     -0.04117300     -0.56501500
| 43> O       4.14435800     -0.25109600     -0.63096500
| 44> H       0.23725100      0.10291200      1.10468300
| 45> H       1.06142700     -1.70609700     -2.07225500
| 46> H      -0.30992900     -3.58948000     -2.97051900
| 47> H      -2.37063700     -4.29306600     -1.74239800
| 48> H      -3.04016400     -3.14316300      0.33210500
| 49> H      -3.74159600     -1.24806100      1.48164600
| 50> H      -2.91161300     -0.68874000      2.96689000
| 51> H      -2.84952700     -2.42137600      2.51012400
| 52> O       2.36823400      0.77347600     -1.46926300
| 53> H       2.29177300      3.49750900      2.28452900
| 54> H      -4.31108000      0.87767700     -1.90128300
| 55> N       2.52052300     -1.52434800      1.20586500
| 56> C       1.77562000     -1.65829300      2.43388500
| 57> H       0.80201400     -2.17428200      2.30934900
| 58> H       2.37092000     -2.23958100      3.15463700
| 59> H       1.58531600     -0.66965000      2.87626000
| 60> C       3.03997900     -2.75788100      0.65030200
| 61> H       3.69874200     -2.51430000     -0.19529700
| 62> H       3.63702900     -3.28441900      1.41125000
| 63> H       2.23957800     -3.44052000      0.30234700
| 64> *
| 65> 
| 66>                          ****END OF INPUT****
================================================================================

                       *****************************
                       * Geometry Optimization Run *
                       *****************************

Geometry optimization settings:
Update method            Update   .... Bofill
Choice of coordinates    CoordSys .... Z-matrix Internals
Initial Hessian          InHess   .... Almoef's Model

Convergence Tolerances:
Energy Change            TolE     ....  1.0000e-06 Eh
Max. Gradient            TolMAXG  ....  1.0000e-04 Eh/bohr
RMS Gradient             TolRMSG  ....  3.0000e-05 Eh/bohr
Max. Displacement        TolMAXD  ....  1.0000e-03 bohr
RMS Displacement         TolRMSD  ....  6.0000e-04 bohr
Strict Convergence                ....  False
------------------------------------------------------------------------------
                        ORCA OPTIMIZATION COORDINATE SETUP
------------------------------------------------------------------------------

The optimization will be done in new redundant internal coordinates
Making redundant internal coordinates   ...  (new redundants) done
Following TS mode number                ...     0
Evaluating the initial hessian          ...  (Almloef) done
Evaluating the coordinates              ...  done
Calculating the B-matrix                .... done
Calculating the G-matrix                .... done
Diagonalizing the G-matrix              .... done
Small eigenvalue found = 3.849e-03
Small eigenvalue found = 6.074e-03
Small eigenvalue found = 1.070e-02
Small eigenvalue found = 1.267e-02
Small eigenvalue found = 1.995e-02
Small eigenvalue found = 2.055e-02
Small eigenvalue found = 2.752e-02
The first mode is                       ....  135
The number of degrees of freedom        ....  144

    -----------------------------------------------------------------
                    Redundant Internal Coordinates


    -----------------------------------------------------------------
         Definition                    Initial Value    Approx d2E/dq
    -----------------------------------------------------------------
      1. B(C   1,C   0)                  1.3938         0.616226   
      2. B(C   2,C   1)                  1.3898         0.625327   
      3. B(N   3,C   2)                  1.3317         0.693291   
      4. B(C   4,N   3)                  1.3329         0.690090   
      5. B(C   5,C   4)                  1.3894         0.626198   
      6. B(C   5,C   0)                  1.3936         0.616675   
      7. B(C   6,N   3)                  1.9667         0.067269   
      8. B(C   7,C   6)                  1.4955         0.424126   
      9. B(C   7,N   3)                  2.5542         0.007771   
     10. B(O   8,C   7)                  1.2064         1.098497   
     11. B(O   9,C   7)                  1.3302         0.697181   
     12. B(C  10,O   9)                  1.4229         0.495910   
     13. B(H  11,C   0)                  1.0925         0.356774   
     14. B(H  12,C   2)                  1.0942         0.354583   
     15. B(H  13,O   9)                  2.5509         0.001506   
     16. B(H  13,C   4)                  1.0939         0.354924   
     17. B(H  14,C   5)                  1.0912         0.358504   
     18. B(H  15,C   6)                  1.0861         0.365329   
     19. B(H  15,N   3)                  2.2178         0.005120   
     20. B(H  15,C   2)                  2.5413         0.001742   
     21. B(H  15,H  12)                  2.1370         0.001473   
     22. B(H  16,C  10)                  1.0992         0.348144   
     23. B(H  17,C  10)                  1.0994         0.347905   
     24. B(C  19,C  18)                  1.5023         0.413578   
     25. B(C  19,C   6)                  1.5211         0.385938   
     26. B(C  20,C  19)                  1.5173         0.391450   
     27. B(C  21,C  20)                  1.3946         0.614241   
     28. B(C  22,C  21)                  1.3947         0.614150   
     29. B(C  23,C  22)                  1.3934         0.616949   
     30. B(C  24,C  23)                  1.3950         0.613336   
     31. B(C  25,C  24)                  1.4004         0.601375   
     32. B(C  25,C  20)                  1.4088         0.583035   
     33. B(O  26,C  25)                  1.3485         0.651660   
     34. B(C  27,O  26)                  1.4076         0.524598   
     35. B(N  28,C  18)                  1.3129         0.742728   
     36. B(O  29,N  28)                  1.2554         0.821767   
     37. B(H  30,C  19)                  1.0985         0.348994   
     38. B(H  30,H  13)                  2.4086         0.000543   
     39. B(H  30,N   3)                  2.5465         0.001531   
     40. B(H  31,C  21)                  1.0940         0.354831   
     41. B(H  32,C  22)                  1.0921         0.357308   
     42. B(H  33,C  23)                  1.0930         0.356149   
     43. B(H  34,C  24)                  1.0903         0.359683   
     44. B(H  35,H  11)                  3.5747         0.000007   
     45. B(H  35,C  27)                  1.1025         0.343884   
     46. B(H  36,C  27)                  1.0968         0.351160   
     47. B(H  37,C  27)                  1.1025         0.343948   
     48. B(O  38,N  28)                  1.3316         0.621201   
     49. B(H  39,C  10)                  1.0954         0.353026   
     50. B(H  40,C   1)                  1.0912         0.358518   
     51. B(N  41,C  18)                  1.3854         0.569207   
     52. B(C  42,N  41)                  1.4425         0.461411   
     53. B(H  43,C  42)                  1.1089         0.335944   
     54. B(H  44,C  42)                  1.1008         0.346092   
     55. B(H  45,C  42)                  1.0997         0.347502   
     56. B(C  46,N  41)                  1.4492         0.450274   
     57. B(H  47,C  46)                  1.0992         0.348076   
     58. B(H  48,C  46)                  1.1013         0.345520   
     59. B(H  49,C  46)                  1.1080         0.337033   
     60. A(C   1,C   0,H  11)          120.3732         0.351991   
     61. A(C   5,C   0,H  11)          120.4198         0.352035   
     62. A(C   1,C   0,C   5)          119.2069         0.433170   
     63. A(C   0,C   1,H  40)          121.5715         0.352282   
     64. A(C   0,C   1,C   2)          118.5571         0.434257   
     65. A(C   2,C   1,H  40)          119.8711         0.353157   
     66. A(N   3,C   2,H  12)          116.8469         0.356504   
     67. A(C   1,C   2,N   3)          121.4639         0.440672   
     68. A(C   1,C   2,H  12)          121.6859         0.352498   
     69. A(C   2,N   3,C   4)          120.7578         0.445645   
     70. A(C   2,N   3,C   6)          116.0641         0.299566   
     71. A(C   4,N   3,C   7)           98.6625         0.218058   
     72. A(C   2,N   3,C   7)          134.7205         0.218193   
     73. A(C   4,N   3,C   6)          122.9946         0.299346   
     74. A(C   6,N   3,C   7)           35.7325         0.165197   
     75. A(N   3,C   4,H  13)          116.9576         0.356282   
     76. A(C   5,C   4,H  13)          121.6453         0.352638   
     77. A(N   3,C   4,C   5)          121.3962         0.440414   
     78. A(C   0,C   5,C   4)          118.6129         0.434423   
     79. A(C   4,C   5,H  14)          119.8597         0.353238   
     80. A(C   0,C   5,H  14)          121.5245         0.352323   
     81. A(N   3,C   6,H  15)           88.2727         0.247841   
     82. A(C   7,C   6,H  15)          115.4796         0.331968   
     83. A(N   3,C   6,C   7)           94.0907         0.278964   
     84. A(H  15,C   6,C  19)          120.5663         0.326834   
     85. A(C   7,C   6,C  19)          123.2616         0.373435   
     86. A(N   3,C   6,C  19)           95.6326         0.274950   
     87. A(C   6,C   7,O   8)          124.2682         0.446450   
     88. A(N   3,C   7,O   8)          105.2078         0.232377   
     89. A(O   8,C   7,O   9)          124.3548         0.485718   
     90. A(N   3,C   7,C   6)           50.1769         0.205553   
     91. A(N   3,C   7,O   9)          108.3125         0.218357   
     92. A(C   6,C   7,O   9)          111.3306         0.411496   
     93. A(C   7,O   9,C  10)          116.5128         0.420365   
     94. A(H  17,C  10,H  39)          110.1926         0.288374   
     95. A(O   9,C  10,H  39)          106.1564         0.336721   
     96. A(H  16,C  10,H  39)          110.3251         0.288405   
     97. A(H  16,C  10,H  17)          109.2346         0.287747   
     98. A(O   9,C  10,H  17)          110.3772         0.335903   
     99. A(O   9,C  10,H  16)          110.5257         0.335942   
    100. A(C  19,C  18,N  28)          115.5750         0.414289   
    101. A(N  28,C  18,N  41)          120.4436         0.435798   
    102. A(C  19,C  18,N  41)          123.7724         0.395277   
    103. A(C  18,C  19,C  20)          111.7603         0.372727   
    104. A(C   6,C  19,C  20)          111.0573         0.368320   
    105. A(C   6,C  19,C  18)          109.5471         0.371818   
    106. A(C  20,C  19,H  30)          107.9848         0.325141   
    107. A(C  18,C  19,H  30)          108.3996         0.328098   
    108. A(C   6,C  19,H  30)          107.9682         0.324384   
    109. A(C  19,C  20,C  21)          120.1647         0.399300   
    110. A(C  21,C  20,C  25)          118.9719         0.428580   
    111. A(C  19,C  20,C  25)          120.8519         0.395660   
    112. A(C  20,C  21,C  22)          121.4382         0.432600   
    113. A(C  22,C  21,H  31)          120.2472         0.351466   
    114. A(C  20,C  21,H  31)          118.3135         0.351475   
    115. A(C  21,C  22,C  23)          119.0724         0.432942   
    116. A(C  23,C  22,H  32)          120.6185         0.352150   
    117. A(C  21,C  22,H  32)          120.3090         0.351880   
    118. A(C  22,C  23,C  24)          120.6598         0.432839   
    119. A(C  24,C  23,H  33)          119.1110         0.351608   
    120. A(C  22,C  23,H  33)          120.2292         0.351957   
    121. A(C  25,C  24,H  34)          120.4960         0.351025   
    122. A(C  23,C  24,H  34)          119.5529         0.352195   
    123. A(C  23,C  24,C  25)          119.9511         0.430855   
    124. A(C  24,C  25,O  26)          123.5725         0.432725   
    125. A(C  20,C  25,O  26)          116.5213         0.430324   
    126. A(C  20,C  25,C  24)          119.9060         0.426957   
    127. A(C  25,O  26,C  27)          119.4229         0.419519   
    128. A(H  36,C  27,H  37)          109.2149         0.287620   
    129. A(H  35,C  27,H  37)          109.1907         0.286681   
    130. A(O  26,C  27,H  37)          111.5325         0.338420   
    131. A(H  35,C  27,H  36)          109.0392         0.287612   
    132. A(O  26,C  27,H  36)          106.4334         0.339594   
    133. A(O  26,C  27,H  35)          111.3528         0.338409   
    134. A(O  29,N  28,O  38)          117.7748         0.444868   
    135. A(C  18,N  28,O  38)          116.0046         0.439759   
    136. A(C  18,N  28,O  29)          126.1864         0.462691   
    137. A(C  42,N  41,C  46)          115.6215         0.384287   
    138. A(C  18,N  41,C  46)          116.1928         0.398658   
    139. A(C  18,N  41,C  42)          117.2592         0.400375   
    140. A(H  44,C  42,H  45)          107.7540         0.287429   
    141. A(H  43,C  42,H  45)          108.1536         0.286097   
    142. A(N  41,C  42,H  45)          110.3858         0.331843   
    143. A(H  43,C  42,H  44)          107.6154         0.285916   
    144. A(N  41,C  42,H  44)          109.0970         0.331620   
    145. A(N  41,C  42,H  43)          113.6399         0.329991   
    146. A(H  48,C  46,H  49)          108.3041         0.285986   
    147. A(H  47,C  46,H  49)          109.1386         0.286315   
    148. A(N  41,C  46,H  49)          112.6978         0.328837   
    149. A(H  47,C  46,H  48)          108.2151         0.287429   
    150. A(N  41,C  46,H  48)          109.6588         0.330191   
    151. A(N  41,C  46,H  47)          108.7298         0.330594   
    152. D(H  40,C   1,C   0,H  11)     -0.0820         0.026257   
    153. D(H  40,C   1,C   0,C   5)    179.8278         0.026257   
    154. D(C   2,C   1,C   0,C   5)      0.0139         0.026257   
    155. D(C   2,C   1,C   0,H  11)   -179.8960         0.026257   
    156. D(H  12,C   2,C   1,H  40)     -0.1969         0.029437   
    157. D(H  12,C   2,C   1,C   0)    179.6203         0.029437   
    158. D(N   3,C   2,C   1,C   0)      0.3052         0.029437   
    159. D(N   3,C   2,C   1,H  40)   -179.5120         0.029437   
    160. D(C   7,N   3,C   2,C   1)   -146.7466         0.052610   
    161. D(C   4,N   3,C   2,H  12)   -179.3722         0.052610   
    162. D(C   6,N   3,C   2,C   1)    175.1963         0.052610   
    163. D(C   6,N   3,C   2,H  12)     -4.1505         0.052610   
    164. D(C   4,N   3,C   2,C   1)     -0.0254         0.052610   
    165. D(C   7,N   3,C   2,H  12)     33.9066         0.052610   
    166. D(C   5,C   4,N   3,C   2)     -0.5818         0.049125   
    167. D(H  13,C   4,N   3,C   7)    -24.1375         0.049125   
    168. D(H  13,C   4,N   3,C   6)      4.2087         0.049125   
    169. D(C   5,C   4,N   3,C   7)    156.1905         0.049125   
    170. D(H  13,C   4,N   3,C   2)    179.0901         0.049125   
    171. D(C   5,C   4,N   3,C   6)   -175.4632         0.049125   
    172. D(H  14,C   5,C   4,H  13)      0.6104         0.027167   
    173. D(C   0,C   5,C   4,H  13)   -178.7742         0.027167   
    174. D(H  14,C   5,C   0,H  11)     -0.0468         0.026298   
    175. D(H  14,C   5,C   0,C   1)   -179.9566         0.026298   
    176. D(C   4,C   5,C   0,H  11)    179.3271         0.026298   
    177. D(C   0,C   5,C   4,N   3)      0.8823         0.027167   
    178. D(C   4,C   5,C   0,C   1)     -0.5827         0.026298   
    179. D(H  14,C   5,C   4,N   3)   -179.7331         0.027167   
    180. D(H  15,C   6,N   3,C   2)     15.9828         0.001851   
    181. D(C   7,C   6,N   3,C   4)    -53.4883         0.001851   
    182. D(C   7,C   6,N   3,C   2)    131.4077         0.001851   
    183. D(C  19,C   6,N   3,C   7)    124.0271         0.001851   
    184. D(C  19,C   6,N   3,C   4)     70.5388         0.001851   
    185. D(C  19,C   6,N   3,C   2)   -104.5652         0.001851   
    186. D(H  15,C   6,N   3,C   7)   -115.4249         0.001851   
    187. D(H  15,C   6,N   3,C   4)   -168.9132         0.001851   
    188. D(N   3,C   7,C   6,C  19)    -99.4733         0.014227   
    189. D(N   3,C   7,C   6,H  15)     90.0347         0.014227   
    190. D(O   9,C   7,C   6,N   3)     96.5210         0.014227   
    191. D(O   9,C   7,C   6,C  19)     -2.9523         0.014227   
    192. D(O   9,C   7,C   6,H  15)   -173.4443         0.014227   
    193. D(O   8,C   7,C   6,C  19)    179.4344         0.014227   
    194. D(O   8,C   7,C   6,H  15)      8.9424         0.014227   
    195. D(O   9,C   7,N   3,C   6)   -102.8799         0.001505   
    196. D(O   9,C   7,N   3,C   4)     34.1287         0.001505   
    197. D(O   8,C   7,C   6,N   3)    -81.0923         0.014227   
    198. D(O   9,C   7,N   3,C   2)   -174.3591         0.001505   
    199. D(O   8,C   7,N   3,C   6)    122.2130         0.001505   
    200. D(O   8,C   7,N   3,C   4)   -100.7784         0.001505   
    201. D(O   8,C   7,N   3,C   2)     50.7339         0.001505   
    202. D(C   6,C   7,N   3,C   4)    137.0085         0.001505   
    203. D(C   6,C   7,N   3,C   2)    -71.4792         0.001505   
    204. D(C  10,O   9,C   7,N   3)   -128.0744         0.043744   
    205. D(C  10,O   9,C   7,O   8)     -3.9543         0.043744   
    206. D(C  10,O   9,C   7,C   6)    178.4348         0.043744   
    207. D(H  39,C  10,O   9,C   7)    178.7877         0.021080   
    208. D(H  17,C  10,O   9,C   7)    -61.8081         0.021080   
    209. D(H  16,C  10,O   9,C   7)     59.1439         0.021080   
    210. D(C  20,C  19,C   6,H  15)    -22.6780         0.011853   
    211. D(C  20,C  19,C   6,C   7)    167.2950         0.011853   
    212. D(C  18,C  19,C   6,H  15)    101.2564         0.011853   
    213. D(C  18,C  19,C   6,C   7)    -68.7706         0.011853   
    214. D(C  18,C  19,C   6,N   3)   -167.4215         0.011853   
    215. D(H  30,C  19,C  18,N  41)     54.2928         0.012661   
    216. D(H  30,C  19,C  18,N  28)   -130.9540         0.012661   
    217. D(C  20,C  19,C  18,N  41)    -64.5985         0.012661   
    218. D(C  20,C  19,C  18,N  28)    110.1547         0.012661   
    219. D(C   6,C  19,C  18,N  41)    171.8799         0.012661   
    220. D(C   6,C  19,C  18,N  28)    -13.3669         0.012661   
    221. D(H  30,C  19,C   6,N   3)    -49.5647         0.011853   
    222. D(H  30,C  19,C   6,H  15)   -140.8868         0.011853   
    223. D(H  30,C  19,C   6,C   7)     49.0863         0.011853   
    224. D(C  20,C  19,C   6,N   3)     68.6440         0.011853   
    225. D(C  25,C  20,C  19,H  30)      7.3779         0.011396   
    226. D(C  25,C  20,C  19,C  18)    126.5150         0.011396   
    227. D(C  25,C  20,C  19,C   6)   -110.8207         0.011396   
    228. D(C  21,C  20,C  19,H  30)   -173.8695         0.011396   
    229. D(C  21,C  20,C  19,C  18)    -54.7324         0.011396   
    230. D(C  21,C  20,C  19,C   6)     67.9318         0.011396   
    231. D(H  31,C  21,C  20,C  25)    179.9379         0.026078   
    232. D(H  31,C  21,C  20,C  19)      1.1620         0.026078   
    233. D(C  22,C  21,C  20,C  25)      0.3181         0.026078   
    234. D(C  22,C  21,C  20,C  19)   -178.4578         0.026078   
    235. D(H  32,C  22,C  21,H  31)      0.2048         0.026070   
    236. D(H  32,C  22,C  21,C  20)    179.8173         0.026070   
    237. D(C  23,C  22,C  21,H  31)   -179.8283         0.026070   
    238. D(C  23,C  22,C  21,C  20)     -0.2158         0.026070   
    239. D(H  33,C  23,C  22,H  32)      0.0410         0.026323   
    240. D(H  33,C  23,C  22,C  21)   -179.9258         0.026323   
    241. D(C  24,C  23,C  22,H  32)    179.9722         0.026323   
    242. D(C  24,C  23,C  22,C  21)      0.0054         0.026323   
    243. D(H  34,C  24,C  23,H  33)     -0.0049         0.025997   
    244. D(H  34,C  24,C  23,C  22)   -179.9369         0.025997   
    245. D(C  25,C  24,C  23,H  33)   -179.9725         0.025997   
    246. D(C  25,C  24,C  23,C  22)      0.0956         0.025997   
    247. D(O  26,C  25,C  24,C  23)    179.8175         0.024938   
    248. D(C  20,C  25,C  24,H  34)   -179.9580         0.024938   
    249. D(C  20,C  25,C  24,C  23)      0.0092         0.024938   
    250. D(O  26,C  25,C  20,C  21)    179.9667         0.023366   
    251. D(O  26,C  25,C  20,C  19)     -1.2661         0.023366   
    252. D(C  24,C  25,C  20,C  21)     -0.2119         0.023366   
    253. D(O  26,C  25,C  24,H  34)     -0.1498         0.024938   
    254. D(C  24,C  25,C  20,C  19)    178.5554         0.023366   
    255. D(C  27,O  26,C  25,C  24)     -3.4822         0.031398   
    256. D(C  27,O  26,C  25,C  20)    176.3321         0.031398   
    257. D(H  37,C  27,O  26,C  25)     63.4877         0.021835   
    258. D(H  36,C  27,O  26,C  25)   -177.4835         0.021835   
    259. D(H  35,C  27,O  26,C  25)    -58.7664         0.021835   
    260. D(O  38,N  28,C  18,N  41)    174.9187         0.046224   
    261. D(O  38,N  28,C  18,C  19)     -0.0229         0.046224   
    262. D(O  29,N  28,C  18,N  41)     -2.8971         0.046224   
    263. D(O  29,N  28,C  18,C  19)   -177.8387         0.046224   
    264. D(C  46,N  41,C  18,N  28)    -63.0339         0.025925   
    265. D(C  46,N  41,C  18,C  19)    111.4758         0.025925   
    266. D(C  42,N  41,C  18,N  28)    154.2576         0.025925   
    267. D(C  42,N  41,C  18,C  19)    -31.2327         0.025925   
    268. D(H  45,C  42,N  41,C  46)    169.4321         0.018176   
    269. D(H  45,C  42,N  41,C  18)    -47.6489         0.018176   
    270. D(H  44,C  42,N  41,C  46)     51.2087         0.018176   
    271. D(H  44,C  42,N  41,C  18)   -165.8723         0.018176   
    272. D(H  43,C  42,N  41,C  46)    -68.8664         0.018176   
    273. D(H  43,C  42,N  41,C  18)     74.0526         0.018176   
    274. D(H  49,C  46,N  41,C  18)    -76.6762         0.017296   
    275. D(H  48,C  46,N  41,C  42)    -54.0793         0.017296   
    276. D(H  48,C  46,N  41,C  18)    162.5988         0.017296   
    277. D(H  47,C  46,N  41,C  42)   -172.2187         0.017296   
    278. D(H  47,C  46,N  41,C  18)     44.4594         0.017296   
    279. D(H  49,C  46,N  41,C  42)     66.6456         0.017296   
    -----------------------------------------------------------------

Number of atoms                         .... 50
Number of degrees of freedom            .... 279

         *************************************************************
         *                GEOMETRY OPTIMIZATION CYCLE   1            *
         *************************************************************
---------------------------------
CARTESIAN COORDINATES (ANGSTROEM)
---------------------------------
  C     -4.043769    1.709200    0.089429
  C     -3.607446    1.181865   -1.124699
  C     -2.240880    1.042438   -1.335686
  N     -1.354575    1.394398   -0.406187
  C     -1.754825    1.895013    0.762540
  C     -3.102137    2.078296    1.048132
  C      0.527832    0.994427   -0.811658
  C      1.007949    2.364077   -0.451204
  O      0.943386    3.320982   -1.183026
  O      1.467631    2.402891    0.796399
  C      1.985862    3.650221    1.243856
  H     -5.111383    1.830200    0.287350
  H     -1.842368    0.628860   -2.267040
  H     -0.974964    2.148918    1.486457
  H     -3.401608    2.494229    2.011488
  H      0.240965    0.858186   -1.850266
  H      1.215336    4.431776    1.183165
  H      2.851001    3.946390    0.633569
  C      2.074867   -0.582457    0.292920
  C      0.631911   -0.199507    0.125117
  C     -0.203645   -1.361729   -0.378089
  C      0.157714   -2.030026   -1.547625
  C     -0.608496   -3.080904   -2.051317
  C     -1.756878   -3.471046   -1.365252
  C     -2.138743   -2.822389   -0.190706
  C     -1.365623   -1.766590    0.307987
  O     -1.668250   -1.087189    1.432884
  C     -2.856736   -1.388668    2.124183
  N      2.908386   -0.041173   -0.565015
  O      4.144358   -0.251096   -0.630965
  H      0.237251    0.102912    1.104683
  H      1.061427   -1.706097   -2.072255
  H     -0.309929   -3.589480   -2.970519
  H     -2.370637   -4.293066   -1.742398
  H     -3.040164   -3.143163    0.332105
  H     -3.741596   -1.248061    1.481646
  H     -2.911613   -0.688740    2.966890
  H     -2.849527   -2.421376    2.510124
  O      2.368234    0.773476   -1.469263
  H      2.291773    3.497509    2.284529
  H     -4.311080    0.877677   -1.901283
  N      2.520523   -1.524348    1.205865
  C      1.775620   -1.658293    2.433885
  H      0.802014   -2.174282    2.309349
  H      2.370920   -2.239581    3.154637
  H      1.585316   -0.669650    2.876260
  C      3.039979   -2.757881    0.650302
  H      3.698742   -2.514300   -0.195297
  H      3.637029   -3.284419    1.411250
  H      2.239578   -3.440520    0.302347

----------------------------
CARTESIAN COORDINATES (A.U.)
----------------------------
  NO LB      ZA    FRAG     MASS         X           Y           Z
   0 C     6.0000    0    12.011   -7.641616    3.229920    0.168996
   1 C     6.0000    0    12.011   -6.817085    2.233401   -2.125373
   2 C     6.0000    0    12.011   -4.234649    1.969922   -2.524081
   3 N     7.0000    0    14.007   -2.559776    2.635030   -0.767582
   4 C     6.0000    0    12.011   -3.316139    3.581056    1.440992
   5 C     6.0000    0    12.011   -5.862189    3.927410    1.980682
   6 C     6.0000    0    12.011    0.997458    1.879195   -1.533811
   7 C     6.0000    0    12.011    1.904748    4.467458   -0.852652
   8 O     8.0000    0    15.999    1.782741    6.275746   -2.235595
   9 O     8.0000    0    15.999    2.773421    4.540806    1.504976
  10 C     6.0000    0    12.011    3.752735    6.897918    2.350547
  11 H     1.0000    0     1.008   -9.659114    3.458577    0.543013
  12 H     1.0000    0     1.008   -3.481571    1.188373   -4.284085
  13 H     1.0000    0     1.008   -1.842415    4.060867    2.808997
  14 H     1.0000    0     1.008   -6.428108    4.713410    3.801161
  15 H     1.0000    0     1.008    0.455358    1.621737   -3.496496
  16 H     1.0000    0     1.008    2.296652    8.374843    2.235858
  17 H     1.0000    0     1.008    5.387611    7.457596    1.197272
  18 C     6.0000    0    12.011    3.920930   -1.100684    0.553539
  19 C     6.0000    0    12.011    1.194139   -0.377014    0.236437
  20 C     6.0000    0    12.011   -0.384833   -2.573295   -0.714485
  21 C     6.0000    0    12.011    0.298036   -3.836193   -2.924587
  22 C     6.0000    0    12.011   -1.149891   -5.822065   -3.876427
  23 C     6.0000    0    12.011   -3.320018   -6.559326   -2.579952
  24 C     6.0000    0    12.011   -4.041639   -5.333542   -0.360382
  25 C     6.0000    0    12.011   -2.580653   -3.338371    0.582011
  26 O     8.0000    0    15.999   -3.152536   -2.054489    2.707758
  27 C     6.0000    0    12.011   -5.398449   -2.624202    4.014124
  28 N     7.0000    0    14.007    5.496053   -0.077806   -1.067724
  29 O     8.0000    0    15.999    7.831702   -0.474503   -1.192351
  30 H     1.0000    0     1.008    0.448339    0.194475    2.087548
  31 H     1.0000    0     1.008    2.005806   -3.224056   -3.915994
  32 H     1.0000    0     1.008   -0.585681   -6.783134   -5.613467
  33 H     1.0000    0     1.008   -4.479855   -8.112719   -3.292655
  34 H     1.0000    0     1.008   -5.745077   -5.939717    0.627587
  35 H     1.0000    0     1.008   -7.070592   -2.358493    2.799905
  36 H     1.0000    0     1.008   -5.502151   -1.301530    5.606610
  37 H     1.0000    0     1.008   -5.384826   -4.575738    4.743447
  38 O     8.0000    0    15.999    4.475314    1.461658   -2.776505
  39 H     1.0000    0     1.008    4.330823    6.609334    4.317134
  40 H     1.0000    0     1.008   -8.146761    1.658569   -3.592904
  41 N     7.0000    0    14.007    4.763098   -2.880600    2.278755
  42 C     6.0000    0    12.011    3.355436   -3.133720    4.599376
  43 H     1.0000    0     1.008    1.515587   -4.108798    4.364037
  44 H     1.0000    0     1.008    4.480389   -4.232195    5.961400
  45 H     1.0000    0     1.008    2.995813   -1.265455    5.435344
  46 C     6.0000    0    12.011    5.744728   -5.211640    1.228893
  47 H     1.0000    0     1.008    6.989609   -4.751338   -0.369058
  48 H     1.0000    0     1.008    6.872989   -6.206652    2.666876
  49 H     1.0000    0     1.008    4.232189   -6.501641    0.571353

--------------------------------
INTERNAL COORDINATES (ANGSTROEM)
--------------------------------
 C      0   0   0     0.000000000000     0.00000000     0.00000000
 C      1   0   0     1.393759937341     0.00000000     0.00000000
 C      2   1   0     1.389769058101   118.55708338     0.00000000
 N      3   2   1     1.331683440471   121.46385428     0.30523392
 C      4   3   2     1.332943450134   120.75782029   359.97459509
 C      5   4   3     1.389390180582   121.39624033   359.41818517
 C      4   3   2     1.966682395897   116.06414786   175.19631022
 C      7   4   3     1.495453289911    94.09066133   131.40769753
 O      8   7   4     1.206399187532   124.26824922   278.90769999
 O      8   7   4     1.330160634408   111.33059048    96.52103379
 C     10   8   7     1.422889055798   116.51279927   178.43482340
 H      1   2   3     1.092526143960   120.37322625   180.10400014
 H      3   2   1     1.094202380524   121.68590630   179.62032744
 H      5   4   3     1.093940926757   116.95763739   179.09014367
 H      6   5   4     1.091209385529   119.85972961   180.26690995
 H      7   4   3     1.086075901323    88.27272155    15.98282883
 H     11  10   8     1.099191490225   110.52565598    59.14385673
 H     11  10   8     1.099377909661   110.37719548   298.19191284
 C      7   4   3     2.469812340799   129.58163567   246.11361464
 C     19   7   4     1.502308412825    35.47839442    16.33175831
 C     20  19   7     1.517277194469   111.76033031   123.52155359
 C     21  20  19     1.394638183324   120.16474904   305.26758758
 C     22  21  20     1.394678445323   121.43819465   181.54219154
 C     23  22  21     1.393440771010   119.07243392   359.78424497
 C     24  23  22     1.395039457503   120.65978569     0.00000000
 C     25  24  23     1.400400218170   119.95107793     0.09555240
 O     26  25  24     1.348540722611   123.57246847   179.81750099
 C     27  26  25     1.407580501086   119.42285153   356.51783373
 N     19   7   4     1.312933645026    80.92047025   184.14022425
 O     29  19   7     1.255405851991   126.18641450   174.35173674
 H     20  19   7     1.098527794604   108.39963252   242.41284741
 H     22  21  20     1.094012714876   118.31350946     1.16201132
 H     23  22  21     1.092119095186   120.30902986   179.81734136
 H     24  23  22     1.093003246014   120.22919002   180.07419551
 H     25  24  23     1.090315147119   119.55290568   180.06312204
 H     28  27  26     1.102543125877   111.35280265   301.23355792
 H     28  27  26     1.096843552273   106.43341625   182.51647537
 H     28  27  26     1.102491831455   111.53250904    63.48765166
 O     29  19   7     1.331571110309   116.00462376   352.16750459
 H     11  10   8     1.095400743013   106.15643330   178.78766441
 H      2   1   3     1.091198357017   121.57151814   179.81399608
 N     19   7   4     1.385365114055   158.48209978   357.66232335
 C     42  19   7     1.442516850104   117.25918683   341.68230505
 H     43  42  19     1.108901486451   113.63993548    74.05260052
 H     43  42  19     1.100800288176   109.09698042   194.12769864
 H     43  42  19     1.099693700305   110.38575946   312.35113191
 C     42  19   7     1.449168190720   116.19283588   124.39078204
 H     47  42  19     1.099244314305   108.72975193    44.45940723
 H     47  42  19     1.101250573960   109.65879160   162.59883108
 H     47  42  19     1.108020959706   112.69778971   283.32377232

---------------------------
INTERNAL COORDINATES (A.U.)
---------------------------
 C      0   0   0     0.000000000000     0.00000000     0.00000000
 C      1   0   0     2.633824578007     0.00000000     0.00000000
 C      2   1   0     2.626282909208   118.55708338     0.00000000
 N      3   2   1     2.516516999569   121.46385428     0.30523392
 C      4   3   2     2.518898072757   120.75782029   359.97459509
 C      5   4   3     2.625566934459   121.39624033   359.41818517
 C      4   3   2     3.716491120649   116.06414786   175.19631022
 C      7   4   3     2.825997164003    94.09066133   131.40769753
 O      8   7   4     2.279764072621   124.26824922   278.90769999
 O      8   7   4     2.513639313154   111.33059048    96.52103379
 C     10   8   7     2.688870634412   116.51279927   178.43482340
 H      1   2   3     2.064575206234   120.37322625   180.10400014
 H      3   2   1     2.067742834275   121.68590630   179.62032744
 H      5   4   3     2.067248758260   116.95763739   179.09014367
 H      6   5   4     2.062086893414   119.85972961   180.26690995
 H      7   4   3     2.052386014152    88.27272155    15.98282883
 H     11  10   8     2.077170885261   110.52565598    59.14385673
 H     11  10   8     2.077523166942   110.37719548   298.19191284
 C      7   4   3     4.667268926290   129.58163567   246.11361464
 C     19   7   4     2.838951468925    35.47839442    16.33175831
 C     20  19   7     2.867238366791   111.76033031   123.52155359
 C     21  20  19     2.635484222392   120.16474904   305.26758758
 C     22  21  20     2.635560306543   121.43819465   181.54219154
 C     23  22  21     2.633221441049   119.07243392   359.78424497
 C     24  23  22     2.636242520695   120.65978569     0.00000000
 C     25  24  23     2.646372890224   119.95107793     0.09555240
 O     26  25  24     2.548372646174   123.57246847   179.81750099
 C     27  26  25     2.659941658501   119.42285153   356.51783373
 N     19   7   4     2.481085021111    80.92047025   184.14022425
 O     29  19   7     2.372373247185   126.18641450   174.35173674
 H     20  19   7     2.075916682302   108.39963252   242.41284741
 H     22  21  20     2.067384418143   118.31350946     1.16201132
 H     23  22  21     2.063805995527   120.30902986   179.81734136
 H     24  23  22     2.065476798453   120.22919002   180.07419551
 H     25  24  23     2.060397027722   119.55290568   180.06312204
 H     28  27  26     2.083504558744   111.35280265   301.23355792
 H     28  27  26     2.072733925553   106.43341625   182.51647537
 H     28  27  26     2.083407626336   111.53250904    63.48765166
 O     29  19   7     2.516304726325   116.00462376   352.16750459
 H     11  10   8     2.070007411189   106.15643330   178.78766441
 H      2   1   3     2.062066052546   121.57151814   179.81399608
 N     19   7   4     2.617960661053   158.48209978   357.66232335
 C     42  19   7     2.725961790263   117.25918683   341.68230505
 H     43  42  19     2.095520118890   113.63993548    74.05260052
 H     43  42  19     2.080211072794   109.09698042   194.12769864
 H     43  42  19     2.078119924774   110.38575946   312.35113191
 C     42  19   7     2.738531002451   116.19283588   124.39078204
 H     47  42  19     2.077270708306   108.72975193    44.45940723
 H     47  42  19     2.081061989609   109.65879160   162.59883108
 H     47  42  19     2.093856164488   112.69778971   283.32377232

---------------------
BASIS SET INFORMATION
---------------------
There are 4 groups of distinct atoms

 Group   1 Type C   : 11s6p2d1f contracted to 5s3p2d1f pattern {62111/411/11/1}
 Group   2 Type N   : 11s6p2d1f contracted to 5s3p2d1f pattern {62111/411/11/1}
 Group   3 Type O   : 11s6p2d1f contracted to 5s3p2d1f pattern {62111/411/11/1}
 Group   4 Type H   : 5s1p contracted to 3s1p pattern {311/1}

Atom   0C    basis set group =>   1
Atom   1C    basis set group =>   1
Atom   2C    basis set group =>   1
Atom   3N    basis set group =>   2
Atom   4C    basis set group =>   1
Atom   5C    basis set group =>   1
Atom   6C    basis set group =>   1
Atom   7C    basis set group =>   1
Atom   8O    basis set group =>   3
Atom   9O    basis set group =>   3
Atom  10C    basis set group =>   1
Atom  11H    basis set group =>   4
Atom  12H    basis set group =>   4
Atom  13H    basis set group =>   4
Atom  14H    basis set group =>   4
Atom  15H    basis set group =>   4
Atom  16H    basis set group =>   4
Atom  17H    basis set group =>   4
Atom  18C    basis set group =>   1
Atom  19C    basis set group =>   1
Atom  20C    basis set group =>   1
Atom  21C    basis set group =>   1
Atom  22C    basis set group =>   1
Atom  23C    basis set group =>   1
Atom  24C    basis set group =>   1
Atom  25C    basis set group =>   1
Atom  26O    basis set group =>   3
Atom  27C    basis set group =>   1
Atom  28N    basis set group =>   2
Atom  29O    basis set group =>   3
Atom  30H    basis set group =>   4
Atom  31H    basis set group =>   4
Atom  32H    basis set group =>   4
Atom  33H    basis set group =>   4
Atom  34H    basis set group =>   4
Atom  35H    basis set group =>   4
Atom  36H    basis set group =>   4
Atom  37H    basis set group =>   4
Atom  38O    basis set group =>   3
Atom  39H    basis set group =>   4
Atom  40H    basis set group =>   4
Atom  41N    basis set group =>   2
Atom  42C    basis set group =>   1
Atom  43H    basis set group =>   4
Atom  44H    basis set group =>   4
Atom  45H    basis set group =>   4
Atom  46C    basis set group =>   1
Atom  47H    basis set group =>   4
Atom  48H    basis set group =>   4
Atom  49H    basis set group =>   4
---------------------------------
AUXILIARY/J BASIS SET INFORMATION
---------------------------------
There are 4 groups of distinct atoms

 Group   1 Type C   : 12s5p4d2f1g contracted to 6s4p3d1f1g pattern {711111/2111/211/2/1}
 Group   2 Type N   : 12s5p4d2f1g contracted to 6s4p3d1f1g pattern {711111/2111/211/2/1}
 Group   3 Type O   : 12s5p4d2f1g contracted to 6s4p3d1f1g pattern {711111/2111/211/2/1}
 Group   4 Type H   : 5s2p1d contracted to 3s1p1d pattern {311/2/1}

Atom   0C    basis set group =>   1
Atom   1C    basis set group =>   1
Atom   2C    basis set group =>   1
Atom   3N    basis set group =>   2
Atom   4C    basis set group =>   1
Atom   5C    basis set group =>   1
Atom   6C    basis set group =>   1
Atom   7C    basis set group =>   1
Atom   8O    basis set group =>   3
Atom   9O    basis set group =>   3
Atom  10C    basis set group =>   1
Atom  11H    basis set group =>   4
Atom  12H    basis set group =>   4
Atom  13H    basis set group =>   4
Atom  14H    basis set group =>   4
Atom  15H    basis set group =>   4
Atom  16H    basis set group =>   4
Atom  17H    basis set group =>   4
Atom  18C    basis set group =>   1
Atom  19C    basis set group =>   1
Atom  20C    basis set group =>   1
Atom  21C    basis set group =>   1
Atom  22C    basis set group =>   1
Atom  23C    basis set group =>   1
Atom  24C    basis set group =>   1
Atom  25C    basis set group =>   1
Atom  26O    basis set group =>   3
Atom  27C    basis set group =>   1
Atom  28N    basis set group =>   2
Atom  29O    basis set group =>   3
Atom  30H    basis set group =>   4
Atom  31H    basis set group =>   4
Atom  32H    basis set group =>   4
Atom  33H    basis set group =>   4
Atom  34H    basis set group =>   4
Atom  35H    basis set group =>   4
Atom  36H    basis set group =>   4
Atom  37H    basis set group =>   4
Atom  38O    basis set group =>   3
Atom  39H    basis set group =>   4
Atom  40H    basis set group =>   4
Atom  41N    basis set group =>   2
Atom  42C    basis set group =>   1
Atom  43H    basis set group =>   4
Atom  44H    basis set group =>   4
Atom  45H    basis set group =>   4
Atom  46C    basis set group =>   1
Atom  47H    basis set group =>   4
Atom  48H    basis set group =>   4
Atom  49H    basis set group =>   4


           ************************************************************
           *        Program running with 24 parallel MPI-processes    *
           *              working on a common directory               *
           ************************************************************
------------------------------------------------------------------------------
                           ORCA GTO INTEGRAL CALCULATION
                           -- RI-GTO INTEGRALS CHOSEN --
------------------------------------------------------------------------------
------------------------------------------------------------------------------
                   ___                                                        
                  /   \      - P O W E R E D   B Y -                         
                 /     \                                                     
                 |  |  |   _    _      __       _____    __    __             
                 |  |  |  | |  | |    /  \     |  _  \  |  |  /  |          
                  \  \/   | |  | |   /    \    | | | |  |  | /  /          
                 / \  \   | |__| |  /  /\  \   | |_| |  |  |/  /          
                |  |  |   |  __  | /  /__\  \  |    /   |      \           
                |  |  |   | |  | | |   __   |  |    \   |  |\   \          
                \     /   | |  | | |  |  |  |  | |\  \  |  | \   \       
                 \___/    |_|  |_| |__|  |__|  |_| \__\ |__|  \__/        
                                                                              
                      - O R C A' S   B I G   F R I E N D -                    
                                      &                                       
                       - I N T E G R A L  F E E D E R -                       
                                                                              
 v1 FN, 2020, v2 2021                                                         
------------------------------------------------------------------------------


Reading SHARK input file TS2_NMe2/TS2_NMe2.SHARKINP.tmp ... ok
----------------------
SHARK INTEGRAL PACKAGE
----------------------

Number of atoms                             ...     50
Number of basis functions                   ...    975
Number of shells                            ...    389
Maximum angular momentum                    ...      3
Integral batch strategy                     ... SHARK/LIBINT Hybrid
RI-J (if used) integral strategy            ... SPLIT-RIJ (Revised 2003 algorithm where possible)
Printlevel                                  ...      1
Contraction scheme used                     ... SEGMENTED contraction
Coulomb Range Separation                    ... NOT USED
Exchange Range Separation                   ... NOT USED
Finite Nucleus Model                        ... NOT USED
Auxiliary Coulomb fitting basis             ... AVAILABLE
   # of basis functions in Aux-J            ...   1576
   # of shells in Aux-J                     ...    520
   Maximum angular momentum in Aux-J        ...      4
Auxiliary J/K fitting basis                 ... NOT available
Auxiliary Correlation fitting basis         ... NOT available
Auxiliary 'external' fitting basis          ... NOT available
Integral threshold                          ...     2.500000e-11
Primitive cut-off                           ...     2.500000e-12
Primitive pair pre-selection threshold      ...     2.500000e-12

Calculating pre-screening integrals         ... done (  0.1 sec) Dimension = 389
Organizing shell pair data                  ... done (  1.0 sec)
Shell pair information
Total number of shell pairs                 ...     75855
Shell pairs after pre-screening             ...     54824
Total number of primitive shell pairs       ...    230844
Primitive shell pairs kept                  ...    108485
          la=0 lb=0:  14557 shell pairs
          la=1 lb=0:  15925 shell pairs
          la=1 lb=1:   4370 shell pairs
          la=2 lb=0:   7740 shell pairs
          la=2 lb=1:   4289 shell pairs
          la=2 lb=2:   1075 shell pairs
          la=3 lb=0:   3566 shell pairs
          la=3 lb=1:   2056 shell pairs
          la=3 lb=2:   1000 shell pairs
          la=3 lb=3:    246 shell pairs

Calculating one electron integrals          ... done (  0.1 sec)
Calculating RI/J V-Matrix + Cholesky decomp.... done (  0.3 sec)
Calculating Nuclear repulsion               ... done (  0.0 sec) ENN=   2763.039731617868 Eh

SHARK setup successfully completed in   3.1 seconds

Maximum memory used throughout the entire GTOINT-calculation: 80.7 MB


           ************************************************************
           *        Program running with 24 parallel MPI-processes    *
           *              working on a common directory               *
           ************************************************************
-------------------------------------------------------------------------------
                                 ORCA SCF
-------------------------------------------------------------------------------

------------
SCF SETTINGS
------------
Hamiltonian:
 Density Functional     Method          .... DFT(GTOs)
 Exchange Functional    Exchange        .... PBE
   PBE kappa parameter   XKappa         ....  0.804000
   PBE mue parameter    XMuePBE         ....  0.219520
 Correlation Functional Correlation     .... PBE
   PBE beta parameter  CBetaPBE         ....  0.066725
 LDA part of GGA corr.  LDAOpt          .... PW91-LDA
 Gradients option       PostSCFGGA      .... off
 Hybrid DFT is turned on
   Fraction HF Exchange ScalHFX         ....  0.250000
   Scaling of DF-GGA-X  ScalDFX         ....  0.750000
   Scaling of DF-GGA-C  ScalDFC         ....  1.000000
   Scaling of DF-LDA-C  ScalLDAC        ....  1.000000
   Perturbative correction              ....  0.000000
   Density functional embedding theory  .... OFF
   NL short-range parameter             ....  6.900000
 RI-approximation to the Coulomb term is turned on
   Number of AuxJ basis functions       .... 1576
   RIJ-COSX (HFX calculated with COS-X)).... on


General Settings:
 Integral files         IntName         .... TS2_NMe2/TS2_NMe2
 Hartree-Fock type      HFTyp           .... RHF
 Total Charge           Charge          ....    0
 Multiplicity           Mult            ....    1
 Number of Electrons    NEL             ....  198
 Basis Dimension        Dim             ....  975
 Nuclear Repulsion      ENuc            ....   2763.0397316179 Eh

Convergence Acceleration:
 DIIS                   CNVDIIS         .... on
   Start iteration      DIISMaxIt       ....    12
   Startup error        DIISStart       ....  0.200000
   # of expansion vecs  DIISMaxEq       ....     5
   Bias factor          DIISBfac        ....   1.050
   Max. coefficient     DIISMaxC        ....  10.000
 Trust-Rad. Augm. Hess. CNVTRAH         .... auto
   Auto Start mean grad. ratio tolernc. ....  1.125000
   Auto Start start iteration           ....    20
   Auto Start num. interpolation iter.  ....    10
   Max. Number of Micro iterations      ....    16
   Max. Number of Macro iterations      .... Maxiter - #DIIS iter
   Number of Davidson start vectors     ....     2
   Converg. threshold I  (grad. norm)   ....   1.000e-05
   Converg. threshold II (energy diff.) ....   1.000e-08
   Grad. Scal. Fac. for Micro threshold ....   0.100
   Minimum threshold for Micro iter.    ....   0.010
   NR start threshold (gradient norm)   ....   0.001
   Initial trust radius                 ....   0.400
   Minimum AH scaling param. (alpha)    ....   1.000
   Maximum AH scaling param. (alpha)    .... 1000.000
   Orbital update algorithm             .... Taylor
   White noise on init. David. guess    .... on
   Maximum white noise                  ....   0.010
   Quad. conv. algorithm                .... NR
 SOSCF                  CNVSOSCF        .... on
   Start iteration      SOSCFMaxIt      ....   150
   Startup grad/error   SOSCFStart      ....  0.003300
 Level Shifting         CNVShift        .... on
   Level shift para.    LevelShift      ....    0.2500
   Turn off err/grad.   ShiftErr        ....    0.0010
 Zerner damping         CNVZerner       .... off
 Static damping         CNVDamp         .... on
   Fraction old density DampFac         ....    0.7000
   Max. Damping (<1)    DampMax         ....    0.9800
   Min. Damping (>=0)   DampMin         ....    0.0000
   Turn off err/grad.   DampErr         ....    0.1000
 Fernandez-Rico         CNVRico         .... off

SCF Procedure:
 Maximum # iterations   MaxIter         ....   800
 SCF integral mode      SCFMode         .... Direct
   Integral package                     .... SHARK and LIBINT hybrid scheme
 Reset frequency        DirectResetFreq ....    20
 Integral Threshold     Thresh          ....  2.500e-11 Eh
 Primitive CutOff       TCut            ....  2.500e-12 Eh

Convergence Tolerance:
 Convergence Check Mode ConvCheckMode   .... Total+1el-Energy
 Convergence forced     ConvForced      .... 0
 Energy Change          TolE            ....  1.000e-08 Eh
 1-El. energy change                    ....  1.000e-05 Eh
 Orbital Gradient       TolG            ....  1.000e-05
 Orbital Rotation angle TolX            ....  1.000e-05
 DIIS Error             TolErr          ....  5.000e-07


Diagonalization of the overlap matrix:
Smallest eigenvalue                        ... 5.647e-06
Time for diagonalization                   ...    0.316 sec
Threshold for overlap eigenvalues          ... 1.000e-08
Number of eigenvalues below threshold      ... 0
Time for construction of square roots      ...    0.173 sec
Total time needed                          ...    0.494 sec

Time for model grid setup =    0.478 sec

------------------------------
INITIAL GUESS: MODEL POTENTIAL
------------------------------
Loading Hartree-Fock densities                     ... done
Calculating cut-offs                               ... done
Initializing the effective Hamiltonian             ... done
Setting up the integral package (SHARK)            ... done
Starting the Coulomb interaction                   ... done (   0.6 sec)
Reading the grid                                   ... done
Mapping shells                                     ... done
Starting the XC term evaluation                    ... done (   0.3 sec)
  promolecular density results
     # of electrons  =    197.969029475
     EX              =   -164.368158512
     EC              =     -6.683275982
     EX+EC           =   -171.051434494
Transforming the Hamiltonian                       ... done (   0.2 sec)
Diagonalizing the Hamiltonian                      ... done (   0.3 sec)
Back transforming the eigenvectors                 ... done (   0.1 sec)
Now organizing SCF variables                       ... done
                      ------------------
                      INITIAL GUESS DONE (   2.2 sec)
                      ------------------
-------------------
DFT GRID GENERATION
-------------------

General Integration Accuracy     IntAcc      ... 4.388
Radial Grid Type                 RadialGrid  ... OptM3 with GC (2021)
Angular Grid (max. ang.)         AngularGrid ... 4 (Lebedev-302)
Angular grid pruning method      GridPruning ... 4 (adaptive)
Weight generation scheme         WeightScheme... Becke
Basis function cutoff            BFCut       ... 1.0000e-11
Integration weight cutoff        WCut        ... 1.0000e-14
Angular grids for H and He will be reduced by one unit
Partially contracted basis set               ... off
Rotationally invariant grid construction     ... off

Total number of grid points                  ...   233458
Total number of batches                      ...     3674
Average number of points per batch           ...       63
Average number of grid points per atom       ...     4669
Time for grid setup =    1.792 sec

--------------------
COSX GRID GENERATION
--------------------

GRIDX 1
-------
General Integration Accuracy     IntAcc      ... 3.816
Radial Grid Type                 RadialGrid  ... OptM3 with GC (2021)
Angular Grid (max. ang.)         AngularGrid ... 1 (Lebedev-50)
Angular grid pruning method      GridPruning ... 4 (adaptive)
Weight generation scheme         WeightScheme... Becke
Basis function cutoff            BFCut       ... 1.0000e-11
Integration weight cutoff        WCut        ... 1.0000e-14
Angular grids for H and He will be reduced by one unit
Partially contracted basis set               ... on
Rotationally invariant grid construction     ... off

Total number of grid points                  ...    29613
Total number of batches                      ...      487
Average number of points per batch           ...       60
Average number of grid points per atom       ...      592
UseSFitting                                  ... on

GRIDX 2
-------
General Integration Accuracy     IntAcc      ... 4.020
Radial Grid Type                 RadialGrid  ... OptM3 with GC (2021)
Angular Grid (max. ang.)         AngularGrid ... 2 (Lebedev-110)
Angular grid pruning method      GridPruning ... 4 (adaptive)
Weight generation scheme         WeightScheme... Becke
Basis function cutoff            BFCut       ... 1.0000e-11
Integration weight cutoff        WCut        ... 1.0000e-14
Angular grids for H and He will be reduced by one unit
Partially contracted basis set               ... on
Rotationally invariant grid construction     ... off

Total number of grid points                  ...    63503
Total number of batches                      ...     1018
Average number of points per batch           ...       62
Average number of grid points per atom       ...     1270
UseSFitting                                  ... on

GRIDX 3
-------
General Integration Accuracy     IntAcc      ... 4.338
Radial Grid Type                 RadialGrid  ... OptM3 with GC (2021)
Angular Grid (max. ang.)         AngularGrid ... 3 (Lebedev-194)
Angular grid pruning method      GridPruning ... 4 (adaptive)
Weight generation scheme         WeightScheme... Becke
Basis function cutoff            BFCut       ... 1.0000e-11
Integration weight cutoff        WCut        ... 1.0000e-14
Angular grids for H and He will be reduced by one unit
Partially contracted basis set               ... on
Rotationally invariant grid construction     ... off

Total number of grid points                  ...   138258
Total number of batches                      ...     2183
Average number of points per batch           ...       63
Average number of grid points per atom       ...     2765
UseSFitting                                  ... on

Time for X-Grid setup             =    3.230 sec


--------------------
CPCM SOLVATION MODEL
--------------------
CPCM parameters:
  Epsilon                                         ...      47.2000
  Refrac                                          ...       1.4790
  Rsolv                                           ...       1.3000
  Surface type                                    ... GAUSSIAN VDW
  Epsilon function type                           ...         CPCM
Radii:
 Radius for C  used is    3.8550 Bohr (=   2.0400 Ang.)
 Radius for N  used is    3.5149 Bohr (=   1.8600 Ang.)
 Radius for O  used is    3.4469 Bohr (=   1.8240 Ang.)
 Radius for H  used is    2.4944 Bohr (=   1.3200 Ang.)
Calculating surface                               ...        done! (  0.0s)
GEPOL surface points                              ...         2520
GEPOL Volume                                      ...    2922.8591
GEPOL Surface-area                                ...    1414.8358
Calculating surface distance matrix               ...        done! (  0.1s)
Performing Cholesky decomposition & store         ...        done! (  0.8s)
Overall time for CPCM initialization              ...                 0.9s
--------------
SCF ITERATIONS
--------------
ITER       Energy         Delta-E        Max-DP      RMS-DP      [F,P]     Damp
               ***  Starting incremental Fock matrix formation  ***
  0  -1276.5302894018   0.000000000000 0.87406600  0.00156015  0.2797192 0.7000
  1  -1276.7908535357  -0.260564133919 0.84160380  0.00152690  0.1141638 0.7000
                               ***Turning on DIIS***
  2  -1276.8965235382  -0.105670002481 1.21906529  0.00251388  0.0329978 0.0000
  3  -1277.0703366554  -0.173813117174 0.69844073  0.00123456  0.0520248 0.0000
  4  -1277.1017341717  -0.031397516332 0.13076700  0.00033644  0.0197950 0.0000
  5  -1277.1038018983  -0.002067726618 0.06698685  0.00012665  0.0063056 0.0000
                      *** Initiating the SOSCF procedure ***
                           *** Shutting down DIIS ***
                      *** Re-Reading the Fockian *** 
                      *** Removing any level shift *** 
ITER      Energy       Delta-E        Grad      Rot      Max-DP    RMS-DP
  6  -1277.10396160  -0.0001597058  0.000243  0.000243  0.013594  0.000031
               *** Restarting incremental Fock matrix formation ***
  7  -1277.10394810   0.0000135044  0.000178  0.000766  0.004607  0.000024
  8  -1277.10394737   0.0000007345  0.000283  0.000512  0.000788  0.000006
  9  -1277.10395145  -0.0000040855  0.000078  0.000265  0.001235  0.000006
 10  -1277.10395112   0.0000003300  0.000112  0.000156  0.001040  0.000002
 11  -1277.10395161  -0.0000004861  0.000008  0.000029  0.001075  0.000003
 12  -1277.10395159   0.0000000175  0.000012  0.000015  0.000296  0.000001
                  ***Gradient check signals convergence***
              ***Rediagonalizing the Fockian in SOSCF/NRSCF***

               *****************************************************
               *                     SUCCESS                       *
               *           SCF CONVERGED AFTER  13 CYCLES          *
               *****************************************************

Old exchange energy                            =    -41.892165987 Eh
New exchange energy                            =    -41.892151935 Eh
Exchange energy change after final integration =      0.000014052 Eh
Total energy after final integration           =  -1277.103937538 Eh
Final COS-X integration done in                =    23.114 sec

----------------
TOTAL SCF ENERGY
----------------

Total Energy       :        -1277.10393754 Eh          -34751.76489 eV

Components:
Nuclear Repulsion  :         2763.03973162 Eh           75186.13349 eV
Electronic Energy  :        -4040.14366916 Eh         -109937.89837 eV
One Electron Energy:        -7237.90105508 Eh         -196953.30062 eV
Two Electron Energy:         3197.75738593 Eh           87015.40225 eV
Max COSX asymmetry :            0.00000200 Eh               0.00005 eV
CPCM Dielectric    :           -0.06204546 Eh              -1.68834 eV

Virial components:
Potential Energy   :        -2548.05284187 Eh          -69336.04280 eV
Kinetic Energy     :         1270.94890433 Eh           34584.27792 eV
Virial Ratio       :            2.00484286


DFT components:
N(Alpha)           :       98.999915617258 electrons
N(Beta)            :       98.999915617258 electrons
N(Total)           :      197.999831234515 electrons
E(X)               :     -125.464797174978 Eh       
E(C)               :       -6.674843444386 Eh       
E(XC)              :     -132.139640619363 Eh       
DFET-embed. en.    :        0.000000000000 Eh       
CPCM Solvation Model Properties:
Surface-charge          :           -0.03251472
Charge-correction       :           -0.00062290 Eh              -0.01695 eV
Free-energy (cav+disp)  :  This term is not implemented in the current solvation scheme

---------------
SCF CONVERGENCE
---------------

  Last Energy change         ...   -5.5843e-10  Tolerance :   1.0000e-08
  Last MAX-Density change    ...    1.8874e-15  Tolerance :   1.0000e-07
  Last RMS-Density change    ...    1.4197e-17  Tolerance :   5.0000e-09
  Last Orbital Gradient      ...    2.2258e-06  Tolerance :   1.0000e-05
  Last Orbital Rotation      ...    6.9399e-06  Tolerance :   1.0000e-05

             **** THE GBW FILE WAS UPDATED (TS2_NMe2/TS2_NMe2.gbw) ****
             **** DENSITY TS2_NMe2/TS2_NMe2.scfp WAS UPDATED ****
             **** ENERGY FILE WAS UPDATED (TS2_NMe2/TS2_NMe2.en.tmp) ****
             **** THE GBW FILE WAS UPDATED (TS2_NMe2/TS2_NMe2.gbw) ****
             **** DENSITY TS2_NMe2/TS2_NMe2.scfp WAS UPDATED ****
----------------
ORBITAL ENERGIES
----------------

  NO   OCC          E(Eh)            E(eV) 
   0   2.0000     -19.265833      -524.2500 
   1   2.0000     -19.246629      -523.7274 
   2   2.0000     -19.201378      -522.4960 
   3   2.0000     -19.200515      -522.4726 
   4   2.0000     -19.172090      -521.6991 
   5   2.0000     -14.539265      -395.6335 
   6   2.0000     -14.445327      -393.0773 
   7   2.0000     -14.396082      -391.7373 
   8   2.0000     -10.365769      -282.0669 
   9   2.0000     -10.323716      -280.9226 
  10   2.0000     -10.294389      -280.1246 
  11   2.0000     -10.288816      -279.9729 
  12   2.0000     -10.288692      -279.9695 
  13   2.0000     -10.277426      -279.6630 
  14   2.0000     -10.273154      -279.5467 
  15   2.0000     -10.269488      -279.4470 
  16   2.0000     -10.263657      -279.2883 
  17   2.0000     -10.261438      -279.2279 
  18   2.0000     -10.254468      -279.0383 
  19   2.0000     -10.254110      -279.0285 
  20   2.0000     -10.241636      -278.6891 
  21   2.0000     -10.240543      -278.6593 
  22   2.0000     -10.235374      -278.5187 
  23   2.0000     -10.233258      -278.4611 
  24   2.0000     -10.233125      -278.4575 
  25   2.0000     -10.229477      -278.3582 
  26   2.0000     -10.225223      -278.2425 
  27   2.0000      -1.181379       -32.1470 
  28   2.0000      -1.154358       -31.4117 
  29   2.0000      -1.111252       -30.2387 
  30   2.0000      -1.060778       -28.8652 
  31   2.0000      -1.018718       -27.7207 
  32   2.0000      -1.009119       -27.4595 
  33   2.0000      -0.974732       -26.5238 
  34   2.0000      -0.893216       -24.3056 
  35   2.0000      -0.860754       -23.4223 
  36   2.0000      -0.846546       -23.0357 
  37   2.0000      -0.818029       -22.2597 
  38   2.0000      -0.814460       -22.1626 
  39   2.0000      -0.791469       -21.5370 
  40   2.0000      -0.777338       -21.1525 
  41   2.0000      -0.747197       -20.3323 
  42   2.0000      -0.731808       -19.9135 
  43   2.0000      -0.717825       -19.5330 
  44   2.0000      -0.692536       -18.8449 
  45   2.0000      -0.680596       -18.5199 
  46   2.0000      -0.673322       -18.3220 
  47   2.0000      -0.666427       -18.1344 
  48   2.0000      -0.624159       -16.9842 
  49   2.0000      -0.611857       -16.6495 
  50   2.0000      -0.596185       -16.2230 
  51   2.0000      -0.583036       -15.8652 
  52   2.0000      -0.559924       -15.2363 
  53   2.0000      -0.558289       -15.1918 
  54   2.0000      -0.546232       -14.8637 
  55   2.0000      -0.529935       -14.4203 
  56   2.0000      -0.525002       -14.2860 
  57   2.0000      -0.524371       -14.2689 
  58   2.0000      -0.512620       -13.9491 
  59   2.0000      -0.506408       -13.7801 
  60   2.0000      -0.501898       -13.6573 
  61   2.0000      -0.498897       -13.5757 
  62   2.0000      -0.495183       -13.4746 
  63   2.0000      -0.492273       -13.3954 
  64   2.0000      -0.484002       -13.1704 
  65   2.0000      -0.473624       -12.8880 
  66   2.0000      -0.463852       -12.6221 
  67   2.0000      -0.463513       -12.6128 
  68   2.0000      -0.457786       -12.4570 
  69   2.0000      -0.451962       -12.2985 
  70   2.0000      -0.450260       -12.2522 
  71   2.0000      -0.443943       -12.0803 
  72   2.0000      -0.436675       -11.8825 
  73   2.0000      -0.430106       -11.7038 
  74   2.0000      -0.425174       -11.5696 
  75   2.0000      -0.414021       -11.2661 
  76   2.0000      -0.413359       -11.2481 
  77   2.0000      -0.399156       -10.8616 
  78   2.0000      -0.398676       -10.8485 
  79   2.0000      -0.396542       -10.7904 
  80   2.0000      -0.393183       -10.6991 
  81   2.0000      -0.383920       -10.4470 
  82   2.0000      -0.379551       -10.3281 
  83   2.0000      -0.378974       -10.3124 
  84   2.0000      -0.368546       -10.0286 
  85   2.0000      -0.354151        -9.6369 
  86   2.0000      -0.344321        -9.3695 
  87   2.0000      -0.342493        -9.3197 
  88   2.0000      -0.331670        -9.0252 
  89   2.0000      -0.325775        -8.8648 
  90   2.0000      -0.318178        -8.6581 
  91   2.0000      -0.299834        -8.1589 
  92   2.0000      -0.298687        -8.1277 
  93   2.0000      -0.290779        -7.9125 
  94   2.0000      -0.270907        -7.3718 
  95   2.0000      -0.266070        -7.2401 
  96   2.0000      -0.262688        -7.1481 
  97   2.0000      -0.240449        -6.5429 
  98   2.0000      -0.190728        -5.1900 
  99   0.0000      -0.057328        -1.5600 
 100   0.0000      -0.037221        -1.0128 
 101   0.0000      -0.030456        -0.8287 
 102   0.0000      -0.018623        -0.5067 
 103   0.0000      -0.001230        -0.0335 
 104   0.0000       0.021473         0.5843 
 105   0.0000       0.039878         1.0851 
 106   0.0000       0.055690         1.5154 
 107   0.0000       0.061462         1.6725 
 108   0.0000       0.064314         1.7501 
 109   0.0000       0.066544         1.8108 
 110   0.0000       0.070835         1.9275 
 111   0.0000       0.079676         2.1681 
 112   0.0000       0.086220         2.3462 
 113   0.0000       0.092909         2.5282 
 114   0.0000       0.093633         2.5479 
 115   0.0000       0.100302         2.7293 
 116   0.0000       0.104408         2.8411 
 117   0.0000       0.105515         2.8712 
 118   0.0000       0.112403         3.0586 
 119   0.0000       0.113595         3.0911 
 120   0.0000       0.116368         3.1665 
 121   0.0000       0.119865         3.2617 
 122   0.0000       0.123908         3.3717 
 123   0.0000       0.130625         3.5545 
 124   0.0000       0.132745         3.6122 
 125   0.0000       0.136094         3.7033 
 126   0.0000       0.138142         3.7590 
 127   0.0000       0.141369         3.8469 
 128   0.0000       0.144924         3.9436 
 129   0.0000       0.145673         3.9640 
 130   0.0000       0.148837         4.0501 
 131   0.0000       0.153916         4.1883 
 132   0.0000       0.163146         4.4394 
 133   0.0000       0.170928         4.6512 
 134   0.0000       0.171838         4.6760 
 135   0.0000       0.178548         4.8585 
 136   0.0000       0.181963         4.9515 
 137   0.0000       0.186552         5.0763 
 138   0.0000       0.196913         5.3583 
 139   0.0000       0.197442         5.3727 
 140   0.0000       0.198528         5.4022 
 141   0.0000       0.205136         5.5820 
 142   0.0000       0.211039         5.7427 
 143   0.0000       0.214832         5.8459 
 144   0.0000       0.218137         5.9358 
 145   0.0000       0.222436         6.0528 
 146   0.0000       0.226884         6.1738 
 147   0.0000       0.229466         6.2441 
 148   0.0000       0.233914         6.3651 
 149   0.0000       0.237468         6.4618 
 150   0.0000       0.238401         6.4872 
 151   0.0000       0.244544         6.6544 
 152   0.0000       0.246371         6.7041 
 153   0.0000       0.251029         6.8309 
 154   0.0000       0.257047         6.9946 
 155   0.0000       0.263694         7.1755 
 156   0.0000       0.263995         7.1837 
 157   0.0000       0.267364         7.2753 
 158   0.0000       0.276152         7.5145 
 159   0.0000       0.280948         7.6450 
 160   0.0000       0.281054         7.6479 
 161   0.0000       0.287992         7.8367 
 162   0.0000       0.288539         7.8516 
 163   0.0000       0.294428         8.0118 
 164   0.0000       0.301543         8.2054 
 165   0.0000       0.303859         8.2684 
 166   0.0000       0.308470         8.3939 
 167   0.0000       0.313653         8.5349 
 168   0.0000       0.316711         8.6181 
 169   0.0000       0.321733         8.7548 
 170   0.0000       0.326344         8.8803 
 171   0.0000       0.326998         8.8981 
 172   0.0000       0.329577         8.9683 
 173   0.0000       0.333936         9.0869 
 174   0.0000       0.337435         9.1821 
 175   0.0000       0.345516         9.4020 
[...]
 51:    705.80   0.003646   18.43  0.001612  ( 0.017002 -0.034890 -0.010278)
 52:    713.20   0.018436   93.17  0.008067  (-0.007506 -0.083565  0.032047)
 53:    721.67   0.010695   54.05  0.004625  (-0.004794  0.067586  0.005805)
 54:    756.00   0.005999   30.32  0.002476  ( 0.041276 -0.018871 -0.020405)
 55:    768.27   0.013045   65.92  0.005299  ( 0.051834 -0.031542  0.040211)
 56:    777.78   0.017356   87.71  0.006964  (-0.027176  0.072022 -0.032215)
 57:    780.81   0.000418    2.11  0.000167  ( 0.007590 -0.002760  0.010089)
 58:    810.56   0.003257   16.46  0.001254  (-0.003950 -0.017280 -0.030657)
 59:    834.61   0.003497   17.67  0.001307  (-0.021294 -0.026102  0.013140)
 60:    874.03   0.003526   17.82  0.001259  ( 0.010919 -0.032437  0.009362)
 61:    883.49   0.004385   22.16  0.001549  ( 0.013999  0.034874  0.011695)
 62:    895.69   0.000005    0.02  0.000002  ( 0.000097  0.000373 -0.001204)
 63:    901.47   0.003274   16.55  0.001133  (-0.001540  0.022402 -0.025083)
 64:    962.10   0.001173    5.93  0.000380  ( 0.008468  0.008048  0.015620)
 65:    969.76   0.001048    5.29  0.000337  ( 0.007913 -0.010741  0.012614)
 66:    981.48   0.000151    0.76  0.000048  ( 0.002538  0.005607 -0.003164)
 67:    997.29   0.000045    0.23  0.000014  ( 0.001955 -0.002813  0.001565)
 68:   1017.65   0.000025    0.13  0.000008  (-0.001422 -0.001910 -0.001397)
 69:   1037.30   0.014945   75.52  0.004496  (-0.059494  0.030038 -0.007357)
 70:   1041.70   0.000028    0.14  0.000008  (-0.001365  0.002510 -0.000557)
 71:   1060.42   0.000077    0.39  0.000023  ( 0.003169  0.002575 -0.002437)
 72:   1070.79   0.009683   48.93  0.002822  ( 0.039543  0.016720 -0.031285)
 73:   1072.86   0.001576    7.97  0.000459  (-0.005817  0.013572  0.015508)
 74:   1084.00   0.017702   89.46  0.005096  (-0.023550 -0.028217 -0.061200)
 75:   1085.00   0.013040   65.90  0.003751  (-0.050036 -0.034942  0.005105)
 76:   1093.36   0.029526  149.21  0.008427  ( 0.036645 -0.082500  0.016675)
 77:   1102.69   0.036868  186.32  0.010434  ( 0.010124  0.074998 -0.068605)
 78:   1107.31   0.012264   61.98  0.003456  (-0.021559 -0.053643  0.010670)
 79:   1114.04   0.004694   23.72  0.001315  ( 0.009782 -0.034883  0.001506)
 80:   1117.28   0.005146   26.01  0.001437  ( 0.006504  0.006832 -0.036721)
 81:   1138.46   0.017848   90.20  0.004892  (-0.038038 -0.025077  0.053071)
 82:   1165.50   0.001783    9.01  0.000477  (-0.011133  0.005648 -0.017931)
 83:   1168.97   0.000730    3.69  0.000195  ( 0.002450  0.003442  0.013308)
 84:   1170.59   0.000170    0.86  0.000045  ( 0.003859 -0.004412  0.003324)
 85:   1171.66   0.000490    2.47  0.000130  ( 0.010196 -0.003510 -0.003761)
 86:   1174.21   0.002145   10.84  0.000570  ( 0.018375  0.008234 -0.012833)
 87:   1194.43   0.000622    3.14  0.000163  ( 0.003774  0.005956 -0.010621)
 88:   1206.89   0.001609    8.13  0.000416  (-0.000651  0.000906 -0.020365)
 89:   1212.40   0.002027   10.24  0.000522  (-0.003875 -0.000700  0.022499)
 90:   1214.23   0.002819   14.24  0.000724  (-0.025927 -0.001119  0.007139)
 91:   1226.64   0.001822    9.21  0.000464  (-0.017743 -0.008294  0.008947)
 92:   1235.62   0.009498   48.00  0.002399  (-0.047616  0.011277 -0.002058)
 93:   1247.36   0.007925   40.05  0.001983  ( 0.043223  0.007957  0.007142)
 94:   1275.88   0.044012  222.42  0.010765  (-0.085836  0.056844  0.012870)
 95:   1282.20   0.071193  359.78  0.017327  ( 0.088396 -0.046642 -0.085661)
 96:   1298.88   0.058754  296.92  0.014116  (-0.115399 -0.028262  0.000372)
 97:   1303.23   0.030046  151.84  0.007195  ( 0.033108 -0.023251 -0.074552)
 98:   1316.89   0.057798  292.09  0.013696  (-0.062703 -0.055007 -0.082091)
 99:   1323.46   0.008073   40.80  0.001904  ( 0.013579  0.027590  0.030951)
100:   1344.42   0.004974   25.14  0.001155  ( 0.009986  0.013676  0.029459)
101:   1373.10   0.013168   66.54  0.002993  (-0.048402 -0.018934 -0.017071)
102:   1385.07   0.000525    2.65  0.000118  ( 0.007966  0.001859 -0.007165)
103:   1398.86   0.013348   67.45  0.002978  ( 0.007562  0.018612  0.050736)
104:   1411.05   0.042604  215.30  0.009422  (-0.010260 -0.055584  0.078913)
105:   1429.63   0.008224   41.56  0.001795  ( 0.014433  0.028092 -0.028245)
106:   1456.57   0.001216    6.15  0.000261  ( 0.009844  0.002977 -0.012442)
107:   1465.85   0.007854   39.69  0.001672  ( 0.012921 -0.023021 -0.031226)
108:   1465.91   0.002232   11.28  0.000475  (-0.021413  0.002016  0.003544)
109:   1469.58   0.008901   44.98  0.001890  ( 0.011654  0.021850  0.035733)
110:   1470.33   0.006719   33.96  0.001426  (-0.021034 -0.020399 -0.023823)
111:   1474.00   0.003250   16.43  0.000688  ( 0.012821 -0.017515  0.014731)
112:   1474.28   0.001310    6.62  0.000277  ( 0.001285  0.012351 -0.011099)
113:   1477.26   0.006217   31.42  0.001313  ( 0.025237 -0.002234  0.025911)
114:   1479.95   0.004102   20.73  0.000865  ( 0.026613 -0.006465 -0.010718)
115:   1483.35   0.004211   21.28  0.000886  ( 0.005751 -0.013167 -0.026068)
116:   1495.14   0.014790   74.74  0.003087  ( 0.004517  0.013389  0.053733)
117:   1497.89   0.011605   58.65  0.002418  ( 0.024338 -0.014678 -0.040123)
118:   1507.73   0.021506  108.68  0.004451  ( 0.015379  0.046046 -0.045765)
119:   1528.06   0.000400    2.02  0.000082  ( 0.008076  0.003487  0.002092)
120:   1537.63   0.032448  163.98  0.006585  (-0.027267  0.037886  0.066382)
121:   1648.17   0.005833   29.48  0.001104  (-0.026270 -0.002806  0.020158)
122:   1649.78   0.001678    8.48  0.000317  ( 0.000923  0.006656  0.016500)
123:   1663.12   0.014846   75.02  0.002786  ( 0.017481 -0.023209 -0.044061)
124:   1667.63   0.013207   66.74  0.002471  ( 0.047870 -0.012759 -0.004124)
125:   1701.92   0.039684  200.55  0.007277  ( 0.084269  0.010286 -0.008338)
126:   1786.01   0.118883  600.79  0.020772  (-0.014500  0.102844 -0.099925)
127:   2993.66   0.014426   72.90  0.001504  (-0.007025  0.033837  0.017592)
128:   2996.16   0.031922  161.32  0.003325  (-0.034809 -0.042219  0.018183)
129:   3037.24   0.012446   62.90  0.001279  ( 0.027998  0.007927 -0.020786)
130:   3072.04   0.006261   31.64  0.000636  ( 0.008838  0.021718  0.009287)
131:   3090.47   0.015840   80.05  0.001600  ( 0.031610 -0.004689  0.024049)
132:   3093.18   0.002382   12.04  0.000240  (-0.002527  0.009509  0.011981)
133:   3108.73   0.007682   38.82  0.000771  (-0.014240  0.018087 -0.015531)
134:   3113.97   0.000315    1.59  0.000032  (-0.002743 -0.003450 -0.003485)
135:   3139.74   0.004989   25.21  0.000496  (-0.008444  0.020584 -0.000895)
136:   3144.64   0.002552   12.89  0.000253  (-0.000690 -0.003449  0.015519)
137:   3155.74   0.003788   19.14  0.000375  (-0.017747  0.004516  0.006264)
138:   3165.66   0.003716   18.78  0.000366  ( 0.000054  0.012494  0.014498)
139:   3183.53   0.000447    2.26  0.000044  (-0.005506 -0.003045  0.002045)
140:   3190.45   0.002079   10.51  0.000203  (-0.004067  0.003528 -0.013206)
141:   3195.18   0.001326    6.70  0.000129  (-0.008227 -0.007809 -0.000906)
142:   3200.60   0.000723    3.65  0.000070  (-0.007797  0.000735 -0.003025)
143:   3206.59   0.000921    4.66  0.000090  ( 0.009415 -0.000883 -0.000471)
144:   3213.57   0.003023   15.28  0.000294  ( 0.001636 -0.010167 -0.013694)
145:   3213.84   0.000006    0.03  0.000001  (-0.000206  0.000112  0.000733)
146:   3230.93   0.000489    2.47  0.000047  ( 0.005501  0.002792 -0.003033)
147:   3231.02   0.000138    0.70  0.000013  (-0.000085 -0.000896 -0.003544)
148:   3235.17   0.000342    1.73  0.000033  ( 0.005548 -0.001463 -0.000260)
149:   3277.42   0.000470    2.37  0.000045  ( 0.004917 -0.003732 -0.002573)

* The epsilon (eps) is given for a Dirac delta lineshape.
** The dipole moment derivative (T) already includes vibrational overlap.

The first frequency considered to be a vibration is 7
The total number of vibrations considered is 143


--------------------------
THERMOCHEMISTRY AT 298.15K
--------------------------

Temperature         ... 298.15 K
Pressure            ... 1.00 atm
Total Mass          ... 373.41 AMU

Throughout the following assumptions are being made:
  (1) The electronic state is orbitally nondegenerate
  (2) There are no thermally accessible electronically excited states
  (3) Hindered rotations indicated by low frequency modes are not
      treated as such but are treated as vibrations and this may
      cause some error
  (4) All equations used are the standard statistical mechanics
      equations for an ideal gas
  (5) All vibrations are strictly harmonic

freq.      21.90  E(vib)   ...       0.56 
freq.      34.10  E(vib)   ...       0.55 
freq.      40.94  E(vib)   ...       0.54 
freq.      54.58  E(vib)   ...       0.52 
freq.      58.29  E(vib)   ...       0.51 
freq.      59.32  E(vib)   ...       0.51 
freq.      65.06  E(vib)   ...       0.50 
freq.      73.46  E(vib)   ...       0.49 
freq.      97.02  E(vib)   ...       0.46 
freq.     105.31  E(vib)   ...       0.45 
freq.     115.16  E(vib)   ...       0.44 
freq.     137.04  E(vib)   ...       0.42 
freq.     150.93  E(vib)   ...       0.40 
freq.     156.34  E(vib)   ...       0.40 
freq.     165.73  E(vib)   ...       0.39 
freq.     178.97  E(vib)   ...       0.37 
freq.     182.01  E(vib)   ...       0.37 
freq.     197.27  E(vib)   ...       0.35 
freq.     216.81  E(vib)   ...       0.34 
freq.     219.85  E(vib)   ...       0.33 
freq.     232.12  E(vib)   ...       0.32 
freq.     238.94  E(vib)   ...       0.32 
freq.     247.66  E(vib)   ...       0.31 
freq.     252.04  E(vib)   ...       0.30 
freq.     262.25  E(vib)   ...       0.29 
freq.     291.26  E(vib)   ...       0.27 
freq.     306.75  E(vib)   ...       0.26 
freq.     318.89  E(vib)   ...       0.25 
freq.     351.67  E(vib)   ...       0.23 
freq.     391.22  E(vib)   ...       0.20 
freq.     396.67  E(vib)   ...       0.20 
freq.     417.09  E(vib)   ...       0.18 
freq.     449.11  E(vib)   ...       0.17 
freq.     478.71  E(vib)   ...       0.15 
freq.     490.85  E(vib)   ...       0.14 
freq.     505.71  E(vib)   ...       0.14 
freq.     557.69  E(vib)   ...       0.12 
freq.     582.59  E(vib)   ...       0.11 
freq.     598.69  E(vib)   ...       0.10 
freq.     606.14  E(vib)   ...       0.10 
freq.     634.55  E(vib)   ...       0.09 
freq.     636.64  E(vib)   ...       0.09 
freq.     659.57  E(vib)   ...       0.08 
freq.     680.42  E(vib)   ...       0.08 
freq.     705.80  E(vib)   ...       0.07 
freq.     713.20  E(vib)   ...       0.07 
freq.     721.67  E(vib)   ...       0.07 
freq.     756.00  E(vib)   ...       0.06 
freq.     768.27  E(vib)   ...       0.06 
freq.     777.78  E(vib)   ...       0.05 
freq.     780.81  E(vib)   ...       0.05 
freq.     810.56  E(vib)   ...       0.05 
freq.     834.61  E(vib)   ...       0.04 
freq.     874.03  E(vib)   ...       0.04 
freq.     883.49  E(vib)   ...       0.04 
freq.     895.69  E(vib)   ...       0.03 
freq.     901.47  E(vib)   ...       0.03 
freq.     962.10  E(vib)   ...       0.03 
freq.     969.76  E(vib)   ...       0.03 
freq.     981.48  E(vib)   ...       0.02 
freq.     997.29  E(vib)   ...       0.02 
freq.    1017.65  E(vib)   ...       0.02 
freq.    1037.30  E(vib)   ...       0.02 
freq.    1041.70  E(vib)   ...       0.02 
freq.    1060.42  E(vib)   ...       0.02 
freq.    1070.79  E(vib)   ...       0.02 
freq.    1072.86  E(vib)   ...       0.02 
freq.    1084.00  E(vib)   ...       0.02 
freq.    1085.00  E(vib)   ...       0.02 
freq.    1093.36  E(vib)   ...       0.02 
freq.    1102.69  E(vib)   ...       0.02 
freq.    1107.31  E(vib)   ...       0.02 
freq.    1114.04  E(vib)   ...       0.01 
freq.    1117.28  E(vib)   ...       0.01 
freq.    1138.46  E(vib)   ...       0.01 
freq.    1165.50  E(vib)   ...       0.01 
freq.    1168.97  E(vib)   ...       0.01 
freq.    1170.59  E(vib)   ...       0.01 
freq.    1171.66  E(vib)   ...       0.01 
freq.    1174.21  E(vib)   ...       0.01 
freq.    1194.43  E(vib)   ...       0.01 
freq.    1206.89  E(vib)   ...       0.01 
freq.    1212.40  E(vib)   ...       0.01 
freq.    1214.23  E(vib)   ...       0.01 
freq.    1226.64  E(vib)   ...       0.01 
freq.    1235.62  E(vib)   ...       0.01 
freq.    1247.36  E(vib)   ...       0.01 
freq.    1275.88  E(vib)   ...       0.01 
freq.    1282.20  E(vib)   ...       0.01 
freq.    1298.88  E(vib)   ...       0.01 
freq.    1303.23  E(vib)   ...       0.01 
freq.    1316.89  E(vib)   ...       0.01 
freq.    1323.46  E(vib)   ...       0.01 
freq.    1344.42  E(vib)   ...       0.01 
freq.    1373.10  E(vib)   ...       0.01 
freq.    1385.07  E(vib)   ...       0.00 
freq.    1398.86  E(vib)   ...       0.00 
freq.    1411.05  E(vib)   ...       0.00 
freq.    1429.63  E(vib)   ...       0.00 
freq.    1456.57  E(vib)   ...       0.00 
freq.    1465.85  E(vib)   ...       0.00 
freq.    1465.91  E(vib)   ...       0.00 
freq.    1469.58  E(vib)   ...       0.00 
freq.    1470.33  E(vib)   ...       0.00 
freq.    1474.00  E(vib)   ...       0.00 
freq.    1474.28  E(vib)   ...       0.00 
freq.    1477.26  E(vib)   ...       0.00 
freq.    1479.95  E(vib)   ...       0.00 
freq.    1483.35  E(vib)   ...       0.00 
freq.    1495.14  E(vib)   ...       0.00 
freq.    1497.89  E(vib)   ...       0.00 
freq.    1507.73  E(vib)   ...       0.00 
freq.    1528.06  E(vib)   ...       0.00 
freq.    1537.63  E(vib)   ...       0.00 
freq.    1648.17  E(vib)   ...       0.00 
freq.    1649.78  E(vib)   ...       0.00 
freq.    1663.12  E(vib)   ...       0.00 
freq.    1667.63  E(vib)   ...       0.00 
freq.    1701.92  E(vib)   ...       0.00 
freq.    1786.01  E(vib)   ...       0.00 
freq.    2993.66  E(vib)   ...       0.00 
freq.    2996.16  E(vib)   ...       0.00 
freq.    3037.24  E(vib)   ...       0.00 
freq.    3072.04  E(vib)   ...       0.00 
freq.    3090.47  E(vib)   ...       0.00 
freq.    3093.18  E(vib)   ...       0.00 
freq.    3108.73  E(vib)   ...       0.00 
freq.    3113.97  E(vib)   ...       0.00 
freq.    3139.74  E(vib)   ...       0.00 
freq.    3144.64  E(vib)   ...       0.00 
freq.    3155.74  E(vib)   ...       0.00 
freq.    3165.66  E(vib)   ...       0.00 
freq.    3183.53  E(vib)   ...       0.00 
freq.    3190.45  E(vib)   ...       0.00 
freq.    3195.18  E(vib)   ...       0.00 
freq.    3200.60  E(vib)   ...       0.00 
freq.    3206.59  E(vib)   ...       0.00 
freq.    3213.57  E(vib)   ...       0.00 
freq.    3213.84  E(vib)   ...       0.00 
freq.    3230.93  E(vib)   ...       0.00 
freq.    3231.02  E(vib)   ...       0.00 
freq.    3235.17  E(vib)   ...       0.00 
freq.    3277.42  E(vib)   ...       0.00 

------------
INNER ENERGY
------------

The inner energy is: U= E(el) + E(ZPE) + E(vib) + E(rot) + E(trans)
    E(el)   - is the total energy from the electronic structure calculation
              = E(kin-el) + E(nuc-el) + E(el-el) + E(nuc-nuc)
    E(ZPE)  - the the zero temperature vibrational energy from the frequency calculation
    E(vib)  - the the finite temperature correction to E(ZPE) due to population
              of excited vibrational states
    E(rot)  - is the rotational thermal energy
    E(trans)- is the translational thermal energy

Summary of contributions to the inner energy U:
Electronic energy                ...  -1277.17200748 Eh
Zero point energy                ...      0.40509253 Eh     254.20 kcal/mol
Thermal vibrational correction   ...      0.02334078 Eh      14.65 kcal/mol
Thermal rotational correction    ...      0.00141627 Eh       0.89 kcal/mol
Thermal translational correction ...      0.00141627 Eh       0.89 kcal/mol
-----------------------------------------------------------------------
Total thermal energy                  -1276.74074162 Eh


Summary of corrections to the electronic energy:
(perhaps to be used in another calculation)
Total thermal correction                  0.02617332 Eh      16.42 kcal/mol
Non-thermal (ZPE) correction              0.40509253 Eh     254.20 kcal/mol
-----------------------------------------------------------------------
Total correction                          0.43126586 Eh     270.62 kcal/mol


--------
ENTHALPY
--------

The enthalpy is H = U + kB*T
                kB is Boltzmann's constant
Total free energy                 ...  -1276.74074162 Eh 
Thermal Enthalpy correction       ...      0.00094421 Eh       0.59 kcal/mol
-----------------------------------------------------------------------
Total Enthalpy                    ...  -1276.73979741 Eh


Note: Only C1 symmetry has been detected, increase convergence thresholds 
      if your molecule has a higher symmetry. Symmetry factor of 1.0 is   
      used for the rotational entropy correction. 
 

Note: Rotational entropy computed according to Herzberg 
Infrared and Raman Spectra, Chapter V,1, Van Nostrand Reinhold, 1945 
Point Group:  C1, Symmetry Number:   1  
Rotational constants in cm-1:     0.008041     0.006923     0.004902 

Vibrational entropy computed according to the QRRHO of S. Grimme
Chem.Eur.J. 2012 18 9955


-------
ENTROPY
-------

The entropy contributions are T*S = T*(S(el)+S(vib)+S(rot)+S(trans))
     S(el)   - electronic entropy
     S(vib)  - vibrational entropy
     S(rot)  - rotational entropy
     S(trans)- translational entropy
The entropies will be listed as multiplied by the temperature to get
units of energy

Electronic entropy                ...      0.00000000 Eh      0.00 kcal/mol
Vibrational entropy               ...      0.04196263 Eh     26.33 kcal/mol
Rotational entropy                ...      0.01664607 Eh     10.45 kcal/mol
Translational entropy             ...      0.02073719 Eh     13.01 kcal/mol
-----------------------------------------------------------------------
Final entropy term                ...      0.07934588 Eh     49.79 kcal/mol

In case the symmetry of your molecule has not been determined correctly
or in case you have a reason to use a different symmetry number we print 
out the resulting rotational entropy values for sn=1,12 :
 --------------------------------------------------------
|  sn= 1 | S(rot)=       0.01664607 Eh     10.45 kcal/mol|
|  sn= 2 | S(rot)=       0.01599161 Eh     10.03 kcal/mol|
|  sn= 3 | S(rot)=       0.01560878 Eh      9.79 kcal/mol|
|  sn= 4 | S(rot)=       0.01533715 Eh      9.62 kcal/mol|
|  sn= 5 | S(rot)=       0.01512646 Eh      9.49 kcal/mol|
|  sn= 6 | S(rot)=       0.01495432 Eh      9.38 kcal/mol|
|  sn= 7 | S(rot)=       0.01480877 Eh      9.29 kcal/mol|
|  sn= 8 | S(rot)=       0.01468270 Eh      9.21 kcal/mol|
|  sn= 9 | S(rot)=       0.01457149 Eh      9.14 kcal/mol|
|  sn=10 | S(rot)=       0.01447201 Eh      9.08 kcal/mol|
|  sn=11 | S(rot)=       0.01438202 Eh      9.02 kcal/mol|
|  sn=12 | S(rot)=       0.01429986 Eh      8.97 kcal/mol|
 --------------------------------------------------------


-------------------
GIBBS FREE ENERGY
-------------------

The Gibbs free energy is G = H - T*S

Total enthalpy                    ...  -1276.73979741 Eh 
Total entropy correction          ...     -0.07934588 Eh    -49.79 kcal/mol
-----------------------------------------------------------------------
Final Gibbs free energy         ...  -1276.81914329 Eh

For completeness - the Gibbs free energy minus the electronic energy
G-E(el)                           ...      0.35286419 Eh    221.43 kcal/mol


Timings for individual modules:

Sum of individual times         ...    15047.041 sec (= 250.784 min)
GTO integral calculation        ...      152.900 sec (=   2.548 min)   1.0 %
SCF iterations                  ...     7843.129 sec (= 130.719 min)  52.1 %
SCF Gradient evaluation         ...     2325.979 sec (=  38.766 min)  15.5 %
Geometry relaxation             ...       10.921 sec (=   0.182 min)   0.1 %
Analytical frequency calculation...     4714.113 sec (=  78.569 min)  31.3 %
                             ****ORCA TERMINATED NORMALLY****
TOTAL RUN TIME: 0 days 4 hours 13 minutes 17 seconds 219 msec
