
                                 *****************
                                 * O   R   C   A *
                                 *****************

                                            #,                                       
                                            ###                                      
                                            ####                                     
                                            #####                                    
                                            ######                                   
                                           ########,                                 
                                     ,,################,,,,,                         
                               ,,#################################,,                 
                          ,,##########################################,,             
                       ,#########################################, ''#####,          
                    ,#############################################,,   '####,        
                  ,##################################################,,,,####,       
                ,###########''''           ''''###############################       
              ,#####''   ,,,,##########,,,,          '''####'''          '####       
            ,##' ,,,,###########################,,,                        '##       
           ' ,,###''''                  '''############,,,                           
         ,,##''                                '''############,,,,        ,,,,,,###''
      ,#''                                            '''#######################'''  
     '                                                          ''''####''''         
             ,#######,   #######,   ,#######,      ##                                
            ,#'     '#,  ##    ##  ,#'     '#,    #''#        ######   ,####,        
            ##       ##  ##   ,#'  ##            #'  '#       #        #'  '#        
            ##       ##  #######   ##           ,######,      #####,   #    #        
            '#,     ,#'  ##    ##  '#,     ,#' ,#      #,         ##   #,  ,#        
             '#######'   ##     ##  '#######'  #'      '#     #####' # '####'        



                  #######################################################
                  #                        -***-                        #
                  #          Department of theory and spectroscopy      #
                  #    Directorship and core code : Frank Neese         #
                  #        Max Planck Institute fuer Kohlenforschung    #
                  #                Kaiser Wilhelm Platz 1               #
                  #                 D-45470 Muelheim/Ruhr               #
                  #                      Germany                        #
                  #                                                     #
                  #                  All rights reserved                #
                  #                        -***-                        #
                  #######################################################


                         Program Version 5.0.4 -  RELEASE  -


 With contributions from (in alphabetic order):
   Daniel Aravena         : Magnetic Suceptibility
   Michael Atanasov       : Ab Initio Ligand Field Theory (pilot matlab implementation)
   Alexander A. Auer      : GIAO ZORA, VPT2 properties, NMR spectrum
   Ute Becker             : Parallelization
   Giovanni Bistoni       : ED, misc. LED, open-shell LED, HFLD
   Martin Brehm           : Molecular dynamics
   Dmytro Bykov           : SCF Hessian
   Vijay G. Chilkuri      : MRCI spin determinant printing, contributions to CSF-ICE
   Dipayan Datta          : RHF DLPNO-CCSD density
   Achintya Kumar Dutta   : EOM-CC, STEOM-CC
   Dmitry Ganyushin       : Spin-Orbit,Spin-Spin,Magnetic field MRCI
   Miquel Garcia          : C-PCM and meta-GGA Hessian, CC/C-PCM, Gaussian charge scheme
   Yang Guo               : DLPNO-NEVPT2, F12-NEVPT2, CIM, IAO-localization
   Andreas Hansen         : Spin unrestricted coupled pair/coupled cluster methods
   Benjamin Helmich-Paris : MC-RPA, TRAH-SCF, COSX integrals
   Lee Huntington         : MR-EOM, pCC
   Robert Izsak           : Overlap fitted RIJCOSX, COSX-SCS-MP3, EOM
   Marcus Kettner         : VPT2
   Christian Kollmar      : KDIIS, OOCD, Brueckner-CCSD(T), CCSD density, CASPT2, CASPT2-K
   Simone Kossmann        : Meta GGA functionals, TD-DFT gradient, OOMP2, MP2 Hessian
   Martin Krupicka        : Initial AUTO-CI
   Lucas Lang             : DCDCAS
   Marvin Lechner         : AUTO-CI (C++ implementation), FIC-MRCC
   Dagmar Lenk            : GEPOL surface, SMD
   Dimitrios Liakos       : Extrapolation schemes; Compound Job, initial MDCI parallelization
   Dimitrios Manganas     : Further ROCIS development; embedding schemes
   Dimitrios Pantazis     : SARC Basis sets
   Anastasios Papadopoulos: AUTO-CI, single reference methods and gradients
   Taras Petrenko         : DFT Hessian,TD-DFT gradient, ASA, ECA, R-Raman, ABS, FL, XAS/XES, NRVS
   Peter Pinski           : DLPNO-MP2, DLPNO-MP2 Gradient
   Christoph Reimann      : Effective Core Potentials
   Marius Retegan         : Local ZFS, SOC
   Christoph Riplinger    : Optimizer, TS searches, QM/MM, DLPNO-CCSD(T), (RO)-DLPNO pert. Triples
   Tobias Risthaus        : Range-separated hybrids, TD-DFT gradient, RPA, STAB
   Michael Roemelt        : Original ROCIS implementation
   Masaaki Saitow         : Open-shell DLPNO-CCSD energy and density
   Barbara Sandhoefer     : DKH picture change effects
   Avijit Sen             : IP-ROCIS
   Kantharuban Sivalingam : CASSCF convergence, NEVPT2, FIC-MRCI
   Bernardo de Souza      : ESD, SOC TD-DFT
   Georgi Stoychev        : AutoAux, RI-MP2 NMR, DLPNO-MP2 response
   Willem Van den Heuvel  : Paramagnetic NMR
   Boris Wezisla          : Elementary symmetry handling
   Frank Wennmohs         : Technical directorship


 We gratefully acknowledge several colleagues who have allowed us to
 interface, adapt or use parts of their codes:
   Stefan Grimme, W. Hujo, H. Kruse, P. Pracht,  : VdW corrections, initial TS optimization,
                  C. Bannwarth, S. Ehlert          DFT functionals, gCP, sTDA/sTD-DF
   Ed Valeev, F. Pavosevic, A. Kumar             : LibInt (2-el integral package), F12 methods
   Garnet Chan, S. Sharma, J. Yang, R. Olivares  : DMRG
   Ulf Ekstrom                                   : XCFun DFT Library
   Mihaly Kallay                                 : mrcc  (arbitrary order and MRCC methods)
   Jiri Pittner, Ondrej Demel                    : Mk-CCSD
   Frank Weinhold                                : gennbo (NPA and NBO analysis)
   Christopher J. Cramer and Donald G. Truhlar   : smd solvation model
   Lars Goerigk                                  : TD-DFT with DH, B97 family of functionals
   V. Asgeirsson, H. Jonsson                     : NEB implementation
   FAccTs GmbH                                   : IRC, NEB, NEB-TS, DLPNO-Multilevel, CI-OPT
                                                   MM, QMMM, 2- and 3-layer-ONIOM, Crystal-QMMM,
                                                   LR-CPCM, SF, NACMEs, symmetry and pop. for TD-DFT,
                                                   nearIR, NL-DFT gradient (VV10), updates on ESD,
                                                   ML-optimized integration grids
   S Lehtola, MJT Oliveira, MAL Marques          : LibXC Library
   Liviu Ungur et al                             : ANISO software


 Your calculation uses the libint2 library for the computation of 2-el integrals
 For citations please refer to: http://libint.valeyev.net

 Your ORCA version has been built with support for libXC version: 5.1.0
 For citations please refer to: https://tddft.org/programs/libxc/

 This ORCA versions uses:
   CBLAS   interface :  Fast vector & matrix operations
   LAPACKE interface :  Fast linear algebra routines
   SCALAPACK package :  Parallel linear algebra routines
   Shared memory     :  Shared parallel matrices
   BLAS/LAPACK       :  OpenBLAS 0.3.15  USE64BITINT DYNAMIC_ARCH NO_AFFINITY Haswell SINGLE_THREADED
        Core in use  :  Haswell
   Copyright (c) 2011-2014, The OpenBLAS Project


Your calculation utilizes the atom-pairwise dispersion correction
with the Becke-Johnson damping scheme (D3BJ)
Cite in your paper:
S.Grimme, S.Ehrlich, L.Goerigk, J Comput Chem, (2011), 32, 1456–1465 
S.Grimme, J.Antony, S.Ehrlich and H.Krieg, J.Chem.Phys., 132, (2010), 154104 
   

================================================================================

----- Orbital basis set information -----
Your calculation utilizes the basis: def2-TZVP
   F. Weigend and R. Ahlrichs, Phys. Chem. Chem. Phys. 7, 3297 (2005).

----- AuxJ basis set information -----
Your calculation utilizes the auxiliary basis: def2/J
   F. Weigend, Phys. Chem. Chem. Phys. 8, 1057 (2006).

================================================================================
                                        WARNINGS
                       Please study these warnings very carefully!
================================================================================


WARNING: Geometry Optimization
  ===> : Switching off AutoStart
         For restart on a previous wavefunction, please use MOREAD

INFO   : the flag for use of the SHARK integral package has been found!

================================================================================
                                       INPUT FILE
================================================================================
NAME = TS2_F/TS2_F.inp
|  1> %pal nprocs 24 end
|  2> %maxcore 5000
|  3> ! PBE0 D3BJ def2-TZVP TightSCF OPTTS FREQ TightOpt
|  4> ! CPCM(dmso)
|  5> %scf
|  6> MaxIter 800
|  7> end
|  8> 
|  9> %geom
| 10> MaxIter 800
| 11> MaxStep 0.15
| 12> end
| 13> 
| 14> *xyz 0 1
| 15> C      -4.31499700      0.98920500      0.17124600
| 16> C      -3.76906700      0.71405100     -1.08196600
| 17> C      -2.39066700      0.78917800     -1.23614400
| 18> N      -1.59183300      1.10955500     -0.21854300
| 19> C      -2.09688800      1.37585500      0.98540500
| 20> C      -3.46665500      1.33217600      1.22160100
| 21> C       0.37511100      1.04890300     -0.62320600
| 22> C       0.61059300      2.36012800      0.05102700
| 23> O       0.92916400      2.46076300      1.21326300
| 24> O       0.38656200      3.37650200     -0.76325000
| 25> C       0.58158700      4.67845100     -0.22044000
| 26> H      -5.39519500      0.93761600      0.32681400
| 27> H      -1.90995900      0.57662900     -2.19575100
| 28> H      -1.38440800      1.63216200      1.77460100
| 29> H      -3.85280100      1.55815800      2.21684300
| 30> H       0.10163700      1.03016200     -1.67426700
| 31> H       0.34667900      5.38232200     -1.02610400
| 32> H       1.62352700      4.80770100      0.10547500
| 33> C       2.10040400     -0.46286900      0.12892600
| 34> C       0.63496600     -0.23636100      0.14848000
| 35> C      -0.14746500     -1.41160700     -0.40412500
| 36> C       0.11511400     -1.89466100     -1.68468600
| 37> C      -0.63082900     -2.93775400     -2.23251400
| 38> C      -1.65510900     -3.50638900     -1.47842000
| 39> C      -1.93115900     -3.04718900     -0.19044600
| 40> C      -1.17705700     -2.00100600      0.35514000
| 41> O      -1.38074900     -1.49510900      1.58716400
| 42> C      -2.46770100     -1.95812200      2.35380700
| 43> N       2.86420400      0.29688400     -0.60064300
| 44> O       4.10013800      0.20779800     -0.72462500
| 45> H       0.32615000     -0.07002700      1.19248400
| 46> H       0.91861100     -1.43194200     -2.26601700
| 47> H      -0.41399600     -3.30084200     -3.23931200
| 48> H      -2.25276900     -4.32338100     -1.89060600
| 49> H      -2.73531200     -3.50689900      0.38461300
| 50> H      -2.36226200     -3.02745700      2.60005000
| 51> H      -3.42418700     -1.79853500      1.82907800
| 52> H      -2.46483200     -1.37223800      3.28097300
| 53> O       2.21361000      1.25020200     -1.26136700
| 54> H      -0.08821200      4.84303500      0.63561400
| 55> H      -4.39701100      0.44165700     -1.93179800
| 56> F       2.64324100     -1.45787200      0.81574000
| 57> *
| 58> 
| 59>                          ****END OF INPUT****
================================================================================

                       *****************************
                       * Geometry Optimization Run *
                       *****************************

Geometry optimization settings:
Update method            Update   .... Bofill
Choice of coordinates    CoordSys .... Z-matrix Internals
Initial Hessian          InHess   .... Almoef's Model

Convergence Tolerances:
Energy Change            TolE     ....  1.0000e-06 Eh
Max. Gradient            TolMAXG  ....  1.0000e-04 Eh/bohr
RMS Gradient             TolRMSG  ....  3.0000e-05 Eh/bohr
Max. Displacement        TolMAXD  ....  1.0000e-03 bohr
RMS Displacement         TolRMSD  ....  6.0000e-04 bohr
Strict Convergence                ....  False
------------------------------------------------------------------------------
                        ORCA OPTIMIZATION COORDINATE SETUP
------------------------------------------------------------------------------

The optimization will be done in new redundant internal coordinates
Making redundant internal coordinates   ...  (new redundants) done
Following TS mode number                ...     0
Evaluating the initial hessian          ...  (Almloef) done
Evaluating the coordinates              ...  done
Calculating the B-matrix                .... done
Calculating the G-matrix                .... done
Diagonalizing the G-matrix              .... done
Small eigenvalue found = 4.668e-03
Small eigenvalue found = 1.130e-02
Small eigenvalue found = 1.968e-02
Small eigenvalue found = 2.758e-02
The first mode is                       ....  140
The number of degrees of freedom        ....  120

    -----------------------------------------------------------------
                    Redundant Internal Coordinates


    -----------------------------------------------------------------
         Definition                    Initial Value    Approx d2E/dq
    -----------------------------------------------------------------
      1. B(C   1,C   0)                  1.3944         0.614828   
      2. B(C   2,C   1)                  1.3890         0.627029   
      3. B(N   3,C   2)                  1.3328         0.690517   
      4. B(C   4,N   3)                  1.3325         0.691281   
      5. B(C   5,C   0)                  1.3930         0.617859   
      6. B(C   5,C   4)                  1.3907         0.623265   
      7. B(C   6,N   3)                  2.0091         0.057572   
      8. B(C   7,C   6)                  1.4931         0.427805   
      9. B(C   7,N   3)                  2.5470         0.007979   
     10. B(O   8,C   7)                  1.2093         1.086851   
     11. B(O   9,C   7)                  1.3215         0.719828   
     12. B(C  10,O   9)                  1.4240         0.493908   
     13. B(H  11,C   0)                  1.0926         0.356727   
     14. B(H  12,C   2)                  1.0941         0.354688   
     15. B(H  13,C   4)                  1.0937         0.355255   
     16. B(H  13,O   8)                  2.5208         0.001682   
     17. B(H  14,C   5)                  1.0912         0.358537   
     18. B(H  15,C   6)                  1.0862         0.365139   
     19. B(H  15,N   3)                  2.2346         0.004814   
     20. B(H  15,C   2)                  2.5420         0.001737   
     21. B(H  15,H  12)                  2.1270         0.001528   
     22. B(H  16,C  10)                  1.0953         0.353140   
     23. B(H  17,C  10)                  1.0993         0.347944   
     24. B(C  19,C  18)                  1.4830         0.444030   
     25. B(C  19,C   6)                  1.5215         0.385440   
     26. B(C  20,C  19)                  1.5162         0.393044   
     27. B(C  21,C  20)                  1.3936         0.616584   
     28. B(C  22,C  21)                  1.3945         0.614586   
     29. B(C  23,C  22)                  1.3933         0.617375   
     30. B(C  24,C  23)                  1.3950         0.613489   
     31. B(C  25,C  24)                  1.4003         0.601603   
     32. B(C  25,C  20)                  1.4085         0.583698   
     33. B(O  26,C  25)                  1.3473         0.654558   
     34. B(C  27,O  26)                  1.4084         0.523024   
     35. B(N  28,C  18)                  1.3011         0.775701   
     36. B(O  29,N  28)                  1.2453         0.852762   
     37. B(H  30,C  19)                  1.1014         0.345390   
     38. B(H  30,H  13)                  2.4824         0.000414   
     39. B(H  31,C  21)                  1.0944         0.354355   
     40. B(H  32,C  22)                  1.0920         0.357447   
     41. B(H  33,C  23)                  1.0930         0.356200   
     42. B(H  34,C  24)                  1.0903         0.359743   
     43. B(H  35,C  27)                  1.1024         0.344096   
     44. B(H  36,H  11)                  3.6916         0.000005   
     45. B(H  36,C  27)                  1.1026         0.343842   
     46. B(H  37,C  27)                  1.0968         0.351254   
     47. B(O  38,N  28)                  1.3299         0.625017   
     48. B(O  38,C   6)                  1.9565         0.069836   
     49. B(H  39,C  10)                  1.0993         0.347955   
     50. B(H  40,C   1)                  1.0912         0.358511   
     51. B(F  41,C  18)                  1.3253         0.659468   
     52. A(C   1,C   0,C   5)          119.1974         0.433143   
     53. A(C   1,C   0,H  11)          120.3810         0.351849   
     54. A(C   5,C   0,H  11)          120.4216         0.352141   
     55. A(C   0,C   1,H  40)          121.5949         0.352145   
     56. A(C   2,C   1,H  40)          119.8752         0.353318   
     57. A(C   0,C   1,C   2)          118.5296         0.434292   
     58. A(N   3,C   2,H  12)          116.9369         0.356280   
     59. A(C   1,C   2,H  12)          121.5227         0.352678   
     60. A(C   1,C   2,N   3)          121.5366         0.440569   
     61. A(C   2,N   3,C   7)          135.8174         0.218847   
     62. A(C   2,N   3,C   6)          115.1993         0.292092   
     63. A(C   4,N   3,C   6)          123.9947         0.292143   
     64. A(C   2,N   3,C   4)          120.7125         0.445461   
     65. A(C   6,N   3,C   7)           35.8607         0.162999   
     66. A(C   4,N   3,C   7)           97.7008         0.218880   
     67. A(C   5,C   4,H  13)          121.7666         0.352414   
     68. A(N   3,C   4,C   5)          121.3673         0.440178   
     69. A(N   3,C   4,H  13)          116.8659         0.356443   
     70. A(C   0,C   5,C   4)          118.6530         0.434206   
     71. A(C   0,C   5,H  14)          121.5463         0.352443   
     72. A(C   4,C   5,H  14)          119.7994         0.352963   
     73. A(C  19,C   6,O  38)           95.2705         0.276478   
     74. A(N   3,C   6,C  19)           95.1955         0.268461   
     75. A(C   7,C   6,O  38)           84.7635         0.280956   
     76. A(H  15,C   6,C  19)          121.2786         0.326737   
     77. A(C   7,C   6,C  19)          119.0699         0.373908   
     78. A(C   7,C   6,H  15)          119.4595         0.332415   
     79. A(N   3,C   6,O  38)          169.2927         0.209911   
     80. A(N   3,C   6,H  15)           87.0727         0.242324   
     81. A(N   3,C   6,C   7)           92.1171         0.272747   
     82. A(H  15,C   6,O  38)           85.5689         0.249174   
     83. A(C   6,C   7,O   8)          123.2723         0.446287   
     84. A(N   3,C   7,O   9)           99.5452         0.220075   
     85. A(N   3,C   7,C   6)           52.0222         0.206479   
     86. A(N   3,C   7,O   8)          111.7386         0.232887   
     87. A(O   8,C   7,O   9)          124.9506         0.487636   
     88. A(C   6,C   7,O   9)          111.7435         0.414473   
     89. A(C   7,O   9,C  10)          116.4302         0.422465   
     90. A(H  16,C  10,H  17)          110.2294         0.288394   
     91. A(O   9,C  10,H  17)          110.5061         0.335684   
     92. A(O   9,C  10,H  16)          106.1282         0.336513   
     93. A(H  17,C  10,H  39)          109.2082         0.287728   
     94. A(H  16,C  10,H  39)          110.2367         0.288395   
     95. A(O   9,C  10,H  39)          110.5037         0.335685   
     96. A(C  19,C  18,N  28)          119.8878         0.422828   
     97. A(N  28,C  18,F  41)          119.2446         0.449067   
     98. A(C  19,C  18,F  41)          120.8368         0.408988   
     99. A(C  18,C  19,C  20)          112.7528         0.377592   
    100. A(C   6,C  19,C  20)          112.4451         0.368495   
    101. A(C   6,C  19,C  18)          106.9243         0.376319   
    102. A(C  20,C  19,H  30)          108.5337         0.324804   
    103. A(C  18,C  19,H  30)          108.2189         0.331404   
    104. A(C   6,C  19,H  30)          107.7770         0.323763   
    105. A(C  19,C  20,C  21)          120.4215         0.399853   
    106. A(C  21,C  20,C  25)          119.2098         0.428960   
    107. A(C  19,C  20,C  25)          120.3389         0.396021   
    108. A(C  20,C  21,C  22)          121.2971         0.432951   
    109. A(C  22,C  21,H  31)          120.0219         0.351429   
    110. A(C  20,C  21,H  31)          118.6782         0.351622   
    111. A(C  21,C  22,C  23)          119.0728         0.433051   
    112. A(C  23,C  22,H  32)          120.6163         0.352215   
    113. A(C  21,C  22,H  32)          120.3109         0.351945   
    114. A(C  22,C  23,C  24)          120.7214         0.432912   
    115. A(C  24,C  23,H  33)          119.0815         0.351631   
    116. A(C  22,C  23,H  33)          120.1969         0.352007   
    117. A(C  25,C  24,H  34)          120.4456         0.351057   
    118. A(C  23,C  24,H  34)          119.6136         0.352220   
    119. A(C  23,C  24,C  25)          119.9408         0.430904   
    120. A(C  24,C  25,O  26)          123.7374         0.433100   
    121. A(C  20,C  25,O  26)          116.5070         0.430755   
    122. A(C  20,C  25,C  24)          119.7527         0.427073   
    123. A(C  25,O  26,C  27)          119.4055         0.419626   
    124. A(H  36,C  27,H  37)          109.1030         0.287619   
    125. A(H  35,C  27,H  37)          109.2140         0.287652   
    126. A(O  26,C  27,H  37)          106.4110         0.339439   
    127. A(H  35,C  27,H  36)          109.2495         0.286695   
    128. A(O  26,C  27,H  36)          111.2764         0.338233   
    129. A(O  26,C  27,H  35)          111.5105         0.338274   
    130. A(O  29,N  28,O  38)          119.1653         0.448360   
    131. A(C  18,N  28,O  38)          114.2035         0.443716   
    132. A(C  18,N  28,O  29)          126.6312         0.469559   
    133. A(C   6,O  38,N  28)          102.9380         0.294693   
    134. D(C   2,C   1,C   0,H  11)   -179.9060         0.026131   
    135. D(H  40,C   1,C   0,H  11)     -0.0756         0.026131   
    136. D(C   2,C   1,C   0,C   5)      0.1739         0.026131   
    137. D(H  40,C   1,C   0,C   5)   -179.9957         0.026131   
    138. D(N   3,C   2,C   1,C   0)      0.3059         0.029608   
    139. D(H  12,C   2,C   1,C   0)    179.5807         0.029608   
    140. D(H  12,C   2,C   1,H  40)     -0.2527         0.029608   
    141. D(N   3,C   2,C   1,H  40)   -179.5275         0.029608   
    142. D(C   7,N   3,C   2,H  12)     33.7582         0.049192   
    143. D(C   6,N   3,C   2,C   1)    176.2888         0.049192   
    144. D(C   4,N   3,C   2,H  12)   -179.6383         0.049192   
    145. D(C   6,N   3,C   2,H  12)     -3.0177         0.049192   
    146. D(C   4,N   3,C   2,C   1)     -0.3318         0.049192   
    147. D(C   7,N   3,C   2,C   1)   -146.9352         0.049192   
    148. D(C   5,C   4,N   3,C   2)     -0.1338         0.046208   
    149. D(H  13,C   4,N   3,C   6)      3.7234         0.046208   
    150. D(H  13,C   4,N   3,C   7)    -22.7401         0.046208   
    151. D(H  13,C   4,N   3,C   2)   -179.9652         0.046208   
    152. D(C   5,C   4,N   3,C   6)   -176.4452         0.046208   
    153. D(C   5,C   4,N   3,C   7)    157.0913         0.046208   
    154. D(H  14,C   5,C   0,C   1)    179.7985         0.026405   
    155. D(C   0,C   5,C   4,N   3)      0.6046         0.026898   
    156. D(H  14,C   5,C   0,H  11)     -0.1216         0.026405   
    157. D(H  14,C   5,C   4,H  13)      0.0266         0.026898   
    158. D(H  14,C   5,C   4,N   3)   -179.7965         0.026898   
    159. D(C   4,C   5,C   0,H  11)    179.4699         0.026405   
    160. D(C   4,C   5,C   0,C   1)     -0.6100         0.026405   
    161. D(C   0,C   5,C   4,H  13)   -179.5723         0.026898   
    162. D(H  15,C   6,N   3,C   2)     15.1813         0.001757   
    163. D(C   7,C   6,N   3,C   4)    -48.9236         0.001757   
    164. D(C   7,C   6,N   3,C   2)    134.5809         0.001757   
    165. D(O  38,C   6,N   3,C   2)     61.8022         0.001757   
    166. D(O  38,C   6,N   3,C   4)   -121.7023         0.001757   
    167. D(C  19,C   6,N   3,C   7)    119.4442         0.001757   
    168. D(C  19,C   6,N   3,C   4)     70.5206         0.001757   
    169. D(C  19,C   6,N   3,C   2)   -105.9749         0.001757   
    170. D(H  15,C   6,N   3,C   7)   -119.3996         0.001757   
    171. D(H  15,C   6,N   3,C   4)   -168.3232         0.001757   
    172. D(O  38,C   6,N   3,C   7)    -72.7787         0.001757   
    173. D(N   3,C   7,C   6,O  38)    169.7347         0.015371   
    174. D(N   3,C   7,C   6,C  19)    -97.1361         0.015371   
    175. D(N   3,C   7,C   6,H  15)     87.8330         0.015371   
    176. D(O   9,C   7,C   6,O  38)     84.6027         0.015371   
    177. D(O   9,C   7,C   6,C  19)    177.7320         0.015371   
    178. D(O   9,C   7,C   6,H  15)      2.7011         0.015371   
    179. D(O   8,C   7,C   6,N   3)     92.8507         0.015371   
    180. D(O   8,C   7,C   6,O  38)    -97.4146         0.015371   
    181. D(O   8,C   7,C   6,C  19)     -4.2854         0.015371   
    182. D(O   8,C   7,C   6,H  15)   -179.3163         0.015371   
    183. D(O   9,C   7,N   3,C   6)    110.1997         0.001505   
    184. D(O   9,C   7,N   3,C   4)   -108.9009         0.001505   
    185. D(O   9,C   7,N   3,C   2)     42.5746         0.001505   
    186. D(O   8,C   7,N   3,C   6)   -115.9771         0.001505   
    187. D(O   9,C   7,C   6,N   3)    -85.1319         0.015371   
    188. D(O   8,C   7,N   3,C   4)     24.9223         0.001505   
    189. D(O   8,C   7,N   3,C   2)    176.3979         0.001505   
    190. D(C   6,C   7,N   3,C   4)    140.8994         0.001505   
    191. D(C   6,C   7,N   3,C   2)    -67.6251         0.001505   
    192. D(C  10,O   9,C   7,N   3)    127.1974         0.043125   
    193. D(C  10,O   9,C   7,O   8)      2.0460         0.043125   
    194. D(C  10,O   9,C   7,C   6)    179.9882         0.043125   
    195. D(H  17,C  10,O   9,C   7)     60.8257         0.019271   
    196. D(H  16,C  10,O   9,C   7)   -179.6727         0.019271   
    197. D(H  39,C  10,O   9,C   7)    -60.1637         0.019271   
    198. D(H  30,C  19,C  18,F  41)     58.7361         0.014544   
    199. D(H  30,C  19,C  18,N  28)   -123.3008         0.014544   
    200. D(C  20,C  19,C  18,F  41)    -61.3247         0.014544   
    201. D(C   6,C  19,C  18,F  41)    174.5936         0.014544   
    202. D(C   6,C  19,C  18,N  28)     -7.4433         0.014544   
    203. D(H  30,C  19,C   6,N   3)    -58.3474         0.012541   
    204. D(H  30,C  19,C   6,O  38)    123.9165         0.012541   
    205. D(H  30,C  19,C   6,H  15)   -148.0746         0.012541   
    206. D(H  30,C  19,C   6,C   7)     36.9881         0.012541   
    207. D(C  20,C  19,C   6,N   3)     61.2305         0.012541   
    208. D(C  20,C  19,C   6,O  38)   -116.5056         0.012541   
    209. D(C  20,C  19,C   6,H  15)    -28.4967         0.012541   
    210. D(C  20,C  19,C   6,C   7)    156.5659         0.012541   
    211. D(C  20,C  19,C  18,N  28)    116.6384         0.014544   
    212. D(C  18,C  19,C   6,N   3)   -174.4992         0.012541   
    213. D(C  18,C  19,C   6,O  38)      7.7647         0.012541   
    214. D(C  18,C  19,C   6,H  15)     95.7736         0.012541   
    215. D(C  18,C  19,C   6,C   7)    -79.1637         0.012541   
    216. D(C  25,C  20,C  19,H  30)      6.3305         0.011484   
    217. D(C  25,C  20,C  19,C  18)    126.2100         0.011484   
    218. D(C  25,C  20,C  19,C   6)   -112.8063         0.011484   
    219. D(C  21,C  20,C  19,H  30)   -175.6702         0.011484   
    220. D(C  21,C  20,C  19,C  18)    -55.7907         0.011484   
    221. D(C  21,C  20,C  19,C   6)     65.1930         0.011484   
    222. D(H  31,C  21,C  20,C  25)   -179.8528         0.026290   
    223. D(H  31,C  21,C  20,C  19)      2.1255         0.026290   
    224. D(C  22,C  21,C  20,C  25)      0.7445         0.026290   
    225. D(C  22,C  21,C  20,C  19)   -177.2772         0.026290   
    226. D(H  32,C  22,C  21,H  31)      0.3408         0.026109   
    227. D(H  32,C  22,C  21,C  20)    179.7356         0.026109   
    228. D(C  23,C  22,C  21,H  31)   -179.5681         0.026109   
    229. D(C  23,C  22,C  21,C  20)     -0.1733         0.026109   
    230. D(H  33,C  23,C  22,H  32)     -0.0458         0.026361   
    231. D(H  33,C  23,C  22,C  21)    179.8629         0.026361   
    232. D(C  24,C  23,C  22,H  32)    179.7911         0.026361   
    233. D(C  24,C  23,C  22,C  21)     -0.3002         0.026361   
    234. D(H  34,C  24,C  23,H  33)     -0.0127         0.026011   
    235. D(H  34,C  24,C  23,C  22)   -179.8514         0.026011   
    236. D(C  25,C  24,C  23,H  33)   -179.9717         0.026011   
    237. D(C  25,C  24,C  23,C  22)      0.1896         0.026011   
    238. D(O  26,C  25,C  24,H  34)     -0.2169         0.024958   
    239. D(O  26,C  25,C  24,C  23)    179.7417         0.024958   
    240. D(C  20,C  25,C  24,H  34)   -179.5699         0.024958   
    241. D(C  20,C  25,C  24,C  23)      0.3887         0.024958   
    242. D(O  26,C  25,C  20,C  21)    179.7551         0.023422   
    243. D(O  26,C  25,C  20,C  19)     -2.2214         0.023422   
    244. D(C  24,C  25,C  20,C  21)     -0.8461         0.023422   
    245. D(C  24,C  25,C  20,C  19)    177.1773         0.023422   
    246. D(C  27,O  26,C  25,C  24)     -4.8727         0.031701   
    247. D(C  27,O  26,C  25,C  20)    174.4995         0.031701   
    248. D(H  37,C  27,O  26,C  25)   -176.9325         0.021698   
    249. D(H  36,C  27,O  26,C  25)    -58.1941         0.021698   
    250. D(H  35,C  27,O  26,C  25)     64.0657         0.021698   
    251. D(O  38,N  28,C  18,F  41)    179.0649         0.050921   
    252. D(O  38,N  28,C  18,C  19)      1.0694         0.050921   
    253. D(O  29,N  28,C  18,F  41)     -0.9489         0.050921   
    254. D(O  29,N  28,C  18,C  19)   -178.9444         0.050921   
    255. D(C   6,O  38,N  28,O  29)   -175.6579         0.033718   
    256. D(C   6,O  38,N  28,C  18)      4.3294         0.033718   
    257. D(N  28,O  38,C   6,N   3)   -175.5208         0.001809   
    258. D(N  28,O  38,C   6,C  19)     -7.7452         0.001809   
    259. D(N  28,O  38,C   6,H  15)   -128.7974         0.001809   
    260. D(N  28,O  38,C   6,C   7)    111.0402         0.001809   
    -----------------------------------------------------------------

Number of atoms                         .... 42
Number of degrees of freedom            .... 260

         *************************************************************
         *                GEOMETRY OPTIMIZATION CYCLE   1            *
         *************************************************************
---------------------------------
CARTESIAN COORDINATES (ANGSTROEM)
---------------------------------
  C     -4.314997    0.989205    0.171246
  C     -3.769067    0.714051   -1.081966
  C     -2.390667    0.789178   -1.236144
  N     -1.591833    1.109555   -0.218543
  C     -2.096888    1.375855    0.985405
  C     -3.466655    1.332176    1.221601
  C      0.375111    1.048903   -0.623206
  C      0.610593    2.360128    0.051027
  O      0.929164    2.460763    1.213263
  O      0.386562    3.376502   -0.763250
  C      0.581587    4.678451   -0.220440
  H     -5.395195    0.937616    0.326814
  H     -1.909959    0.576629   -2.195751
  H     -1.384408    1.632162    1.774601
  H     -3.852801    1.558158    2.216843
  H      0.101637    1.030162   -1.674267
  H      0.346679    5.382322   -1.026104
  H      1.623527    4.807701    0.105475
  C      2.100404   -0.462869    0.128926
  C      0.634966   -0.236361    0.148480
  C     -0.147465   -1.411607   -0.404125
  C      0.115114   -1.894661   -1.684686
  C     -0.630829   -2.937754   -2.232514
  C     -1.655109   -3.506389   -1.478420
  C     -1.931159   -3.047189   -0.190446
  C     -1.177057   -2.001006    0.355140
  O     -1.380749   -1.495109    1.587164
  C     -2.467701   -1.958122    2.353807
  N      2.864204    0.296884   -0.600643
  O      4.100138    0.207798   -0.724625
  H      0.326150   -0.070027    1.192484
  H      0.918611   -1.431942   -2.266017
  H     -0.413996   -3.300842   -3.239312
  H     -2.252769   -4.323381   -1.890606
  H     -2.735312   -3.506899    0.384613
  H     -2.362262   -3.027457    2.600050
  H     -3.424187   -1.798535    1.829078
  H     -2.464832   -1.372238    3.280973
  O      2.213610    1.250202   -1.261367
  H     -0.088212    4.843035    0.635614
  H     -4.397011    0.441657   -1.931798
  F      2.643241   -1.457872    0.815740

----------------------------
CARTESIAN COORDINATES (A.U.)
----------------------------
  NO LB      ZA    FRAG     MASS         X           Y           Z
   0 C     6.0000    0    12.011   -8.154163    1.869327    0.323608
   1 C     6.0000    0    12.011   -7.122504    1.349361   -2.044619
   2 C     6.0000    0    12.011   -4.517706    1.491330   -2.335974
   3 N     7.0000    0    14.007   -3.008128    2.096755   -0.412986
   4 C     6.0000    0    12.011   -3.962544    2.599989    1.862146
   5 C     6.0000    0    12.011   -6.551029    2.517448    2.308491
   6 C     6.0000    0    12.011    0.708857    1.982139   -1.177689
   7 C     6.0000    0    12.011    1.153854    4.459996    0.096427
   8 O     8.0000    0    15.999    1.755865    4.650168    2.292735
   9 O     8.0000    0    15.999    0.730496    6.380664   -1.442333
  10 C     6.0000    0    12.011    1.099040    8.840991   -0.416571
  11 H     1.0000    0     1.008  -10.195441    1.771837    0.617589
  12 H     1.0000    0     1.008   -3.609299    1.089671   -4.149368
  13 H     1.0000    0     1.008   -2.616152    3.084339    3.353510
  14 H     1.0000    0     1.008   -7.280739    2.944492    4.189226
  15 H     1.0000    0     1.008    0.192066    1.946724   -3.163906
  16 H     1.0000    0     1.008    0.655128   10.171115   -1.939056
  17 H     1.0000    0     1.008    3.068021    9.085238    0.199319
  18 C     6.0000    0    12.011    3.969188   -0.874696    0.243635
  19 C     6.0000    0    12.011    1.199912   -0.446658    0.280587
  20 C     6.0000    0    12.011   -0.278668   -2.667551   -0.763686
  21 C     6.0000    0    12.011    0.217534   -3.580390   -3.183595
  22 C     6.0000    0    12.011   -1.192094   -5.551551   -4.218840
  23 C     6.0000    0    12.011   -3.127703   -6.626115   -2.793809
  24 C     6.0000    0    12.011   -3.649362   -5.758353   -0.359891
  25 C     6.0000    0    12.011   -2.224315   -3.781353    0.671117
  26 O     8.0000    0    15.999   -2.609237   -2.825347    2.999305
  27 C     6.0000    0    12.011   -4.663279   -3.700314    4.448051
  28 N     7.0000    0    14.007    5.412561    0.561029   -1.135051
  29 O     8.0000    0    15.999    7.748138    0.392681   -1.369343
  30 H     1.0000    0     1.008    0.616334   -0.132332    2.253468
  31 H     1.0000    0     1.008    1.735923   -2.705978   -4.282152
  32 H     1.0000    0     1.008   -0.782339   -6.237687   -6.121413
  33 H     1.0000    0     1.008   -4.257116   -8.170006   -3.572728
  34 H     1.0000    0     1.008   -5.168991   -6.627079    0.726813
  35 H     1.0000    0     1.008   -4.464028   -5.721065    4.913382
  36 H     1.0000    0     1.008   -6.470776   -3.398739    3.456456
  37 H     1.0000    0     1.008   -4.657857   -2.593154    6.200140
  38 O     8.0000    0    15.999    4.183117    2.362539   -2.383638
  39 H     1.0000    0     1.008   -0.166697    9.152010    1.201136
  40 H     1.0000    0     1.008   -8.309147    0.834611   -3.650569
  41 F     9.0000    0    18.998    4.995002   -2.754979    1.541525

--------------------------------
INTERNAL COORDINATES (ANGSTROEM)
--------------------------------
 C      0   0   0     0.000000000000     0.00000000     0.00000000
 C      1   0   0     1.394377856092     0.00000000     0.00000000
 C      2   1   0     1.389028970833   118.52963107     0.00000000
 N      3   2   1     1.332774916063   121.53658940     0.30593309
 C      4   3   2     1.332474025912   120.71249398   359.66823647
 C      5   4   3     1.390668199013   121.36731486   359.86624782
 C      4   3   2     2.009054381496   115.19930883   176.28881574
 C      7   4   3     1.493101775244    92.11707537   134.58091207
 O      8   7   4     1.209300378302   123.27230602    92.85071594
 O      8   7   4     1.321458674937   111.74345624   274.86808319
 C     10   8   7     1.423990395096   116.43018946   179.98818611
 H      1   2   3     1.092561461314   120.38096444   180.09400662
 H      3   2   1     1.094121955320   121.52272545   179.58069150
 H      5   4   3     1.093687046218   116.86590329   180.03483263
 H      6   5   4     1.091184327327   119.79938334   180.20350488
 H      7   4   3     1.086217510206    87.07270115    15.18132805
 H     11  10   8     1.095313030143   106.12817485   180.32725772
 H     11  10   8     1.099347585309   110.50607190    60.82573216
 C      7   4   3     2.414082239953   130.98412448   249.74522625
 C     19   7   4     1.482968902177    37.08212347     7.26523518
 C     20  19   7     1.516170741144   112.75281198   124.08169179
 C     21  20  19     1.393601583265   120.42150045   304.20928736
 C     22  21  20     1.394485383029   121.29714748   182.72276441
 C     23  22  21     1.393252684354   119.07277405   359.82668295
 C     24  23  22     1.394971421634   120.72140527   359.69978380
 C     25  24  23     1.400297389589   119.94076463     0.18959641
 O     26  25  24     1.347332676828   123.73742323   179.74170344
 C     27  26  25     1.408398799319   119.40551497   355.12725498
 N     19   7   4     1.301109521435    83.05996679   180.76861065
 O     29  19   7     1.245327548911   126.63122635   176.54250382
 H     20  19   7     1.101353110237   108.21894983   244.14249458
 H     22  21  20     1.094377463918   118.67822594     2.12547752
 H     23  22  21     1.092012664046   120.31085739   179.73562991
 H     24  23  22     1.092964181600   120.19686996   179.86288862
 H     25  24  23     1.090269776243   119.61364193   180.14859155
 H     28  27  26     1.102374863644   111.51053551    64.06565776
 H     28  27  26     1.102576075473   111.27635625   301.80588257
 H     28  27  26     1.096770296905   106.41101734   183.06745971
 O     29  19   7     1.329903743184   114.20347660   356.55630922
 H     11  10   8     1.099339367244   110.50372802   299.83633477
 H      2   1   3     1.091204191064   121.59492609   179.83044173
 F     19   7   4     1.325298626414   157.57047571   355.02392739

---------------------------
INTERNAL COORDINATES (A.U.)
---------------------------
 C      0   0   0     0.000000000000     0.00000000     0.00000000
 C      1   0   0     2.634992275218     0.00000000     0.00000000
 C      2   1   0     2.624884346957   118.52963107     0.00000000
 N      3   2   1     2.518579589518   121.53658940     0.30593309
 C      4   3   2     2.518010989536   120.71249398   359.66823647
 C      5   4   3     2.627982039288   121.36731486   359.86624782
 C      4   3   2     3.796562569182   115.19930883   176.28881574
 C      7   4   3     2.821553445284    92.11707537   134.58091207
 O      8   7   4     2.285246528639   123.27230602    92.85071594
 O      8   7   4     2.497194992925   111.74345624   274.86808319
 C     10   8   7     2.690951864066   116.43018946   179.98818611
 H      1   2   3     2.064641946361   120.38096444   180.09400662
 H      3   2   1     2.067590852666   121.52272545   179.58069150
 H      5   4   3     2.066768993569   116.86590329   180.03483263
 H      6   5   4     2.062039540275   119.79938334   180.20350488
 H      7   4   3     2.052653616159    87.07270115    15.18132805
 H     11  10   8     2.069841657886   106.12817485   180.32725772
 H     11  10   8     2.077465862222   110.50607190    60.82573216
 C      7   4   3     4.561954298275   130.98412448   249.74522625
 C     19   7   4     2.802405090236    37.08212347     7.26523518
 C     20  19   7     2.865147473027   112.75281198   124.08169179
 C     21  20  19     2.633525332169   120.42150045   304.20928736
 C     22  21  20     2.635195471681   121.29714748   182.72276441
 C     23  22  21     2.632866008781   119.07277405   359.82668295
 C     24  23  22     2.636113951535   120.72140527   359.69978380
 C     25  24  23     2.646178572368   119.94076463     0.18959641
 O     26  25  24     2.546089770488   123.73742323   179.74170344
 C     27  26  25     2.661488018056   119.40551497   355.12725498
 N     19   7   4     2.458740665750    83.05996679   180.76861065
 O     29  19   7     2.353328014469   126.63122635   176.54250382
 H     20  19   7     2.081255755090   108.21894983   244.14249458
 H     22  21  20     2.068073693940   118.67822594     2.12547752
 H     23  22  21     2.063604869821   120.31085739   179.73562991
 H     24  23  22     2.065402977409   120.19686996   179.86288862
 H     25  24  23     2.060311289192   119.61364193   180.14859155
 H     28  27  26     2.083186589207   111.51053551    64.06565776
 H     28  27  26     2.083566824458   111.27635625   301.80588257
 H     28  27  26     2.072595492970   106.41101734   183.06745971
 O     29  19   7     2.513153859095   114.20347660   356.55630922
 H     11  10   8     2.077450332330   110.50372802   299.83633477
 H      2   1   3     2.062077077298   121.59492609   179.83044173
 F     19   7   4     2.504451449584   157.57047571   355.02392739

---------------------
BASIS SET INFORMATION
---------------------
There are 5 groups of distinct atoms

 Group   1 Type C   : 11s6p2d1f contracted to 5s3p2d1f pattern {62111/411/11/1}
 Group   2 Type N   : 11s6p2d1f contracted to 5s3p2d1f pattern {62111/411/11/1}
 Group   3 Type O   : 11s6p2d1f contracted to 5s3p2d1f pattern {62111/411/11/1}
 Group   4 Type H   : 5s1p contracted to 3s1p pattern {311/1}
 Group   5 Type F   : 11s6p2d1f contracted to 5s3p2d1f pattern {62111/411/11/1}

Atom   0C    basis set group =>   1
Atom   1C    basis set group =>   1
Atom   2C    basis set group =>   1
Atom   3N    basis set group =>   2
Atom   4C    basis set group =>   1
Atom   5C    basis set group =>   1
Atom   6C    basis set group =>   1
Atom   7C    basis set group =>   1
Atom   8O    basis set group =>   3
Atom   9O    basis set group =>   3
Atom  10C    basis set group =>   1
Atom  11H    basis set group =>   4
Atom  12H    basis set group =>   4
Atom  13H    basis set group =>   4
Atom  14H    basis set group =>   4
Atom  15H    basis set group =>   4
Atom  16H    basis set group =>   4
Atom  17H    basis set group =>   4
Atom  18C    basis set group =>   1
Atom  19C    basis set group =>   1
Atom  20C    basis set group =>   1
Atom  21C    basis set group =>   1
Atom  22C    basis set group =>   1
Atom  23C    basis set group =>   1
Atom  24C    basis set group =>   1
Atom  25C    basis set group =>   1
Atom  26O    basis set group =>   3
Atom  27C    basis set group =>   1
Atom  28N    basis set group =>   2
Atom  29O    basis set group =>   3
Atom  30H    basis set group =>   4
Atom  31H    basis set group =>   4
Atom  32H    basis set group =>   4
Atom  33H    basis set group =>   4
Atom  34H    basis set group =>   4
Atom  35H    basis set group =>   4
Atom  36H    basis set group =>   4
Atom  37H    basis set group =>   4
Atom  38O    basis set group =>   3
Atom  39H    basis set group =>   4
Atom  40H    basis set group =>   4
Atom  41F    basis set group =>   5
---------------------------------
AUXILIARY/J BASIS SET INFORMATION
---------------------------------
There are 5 groups of distinct atoms

 Group   1 Type C   : 12s5p4d2f1g contracted to 6s4p3d1f1g pattern {711111/2111/211/2/1}
 Group   2 Type N   : 12s5p4d2f1g contracted to 6s4p3d1f1g pattern {711111/2111/211/2/1}
 Group   3 Type O   : 12s5p4d2f1g contracted to 6s4p3d1f1g pattern {711111/2111/211/2/1}
 Group   4 Type H   : 5s2p1d contracted to 3s1p1d pattern {311/2/1}
 Group   5 Type F   : 12s5p4d2f1g contracted to 6s4p3d1f1g pattern {711111/2111/211/2/1}

Atom   0C    basis set group =>   1
Atom   1C    basis set group =>   1
Atom   2C    basis set group =>   1
Atom   3N    basis set group =>   2
Atom   4C    basis set group =>   1
Atom   5C    basis set group =>   1
Atom   6C    basis set group =>   1
Atom   7C    basis set group =>   1
Atom   8O    basis set group =>   3
Atom   9O    basis set group =>   3
Atom  10C    basis set group =>   1
Atom  11H    basis set group =>   4
Atom  12H    basis set group =>   4
Atom  13H    basis set group =>   4
Atom  14H    basis set group =>   4
Atom  15H    basis set group =>   4
Atom  16H    basis set group =>   4
Atom  17H    basis set group =>   4
Atom  18C    basis set group =>   1
Atom  19C    basis set group =>   1
Atom  20C    basis set group =>   1
Atom  21C    basis set group =>   1
Atom  22C    basis set group =>   1
Atom  23C    basis set group =>   1
Atom  24C    basis set group =>   1
Atom  25C    basis set group =>   1
Atom  26O    basis set group =>   3
Atom  27C    basis set group =>   1
Atom  28N    basis set group =>   2
Atom  29O    basis set group =>   3
Atom  30H    basis set group =>   4
Atom  31H    basis set group =>   4
Atom  32H    basis set group =>   4
Atom  33H    basis set group =>   4
Atom  34H    basis set group =>   4
Atom  35H    basis set group =>   4
Atom  36H    basis set group =>   4
Atom  37H    basis set group =>   4
Atom  38O    basis set group =>   3
Atom  39H    basis set group =>   4
Atom  40H    basis set group =>   4
Atom  41F    basis set group =>   5


           ************************************************************
           *        Program running with 24 parallel MPI-processes    *
           *              working on a common directory               *
           ************************************************************
------------------------------------------------------------------------------
                           ORCA GTO INTEGRAL CALCULATION
                           -- RI-GTO INTEGRALS CHOSEN --
------------------------------------------------------------------------------
------------------------------------------------------------------------------
                   ___                                                        
                  /   \      - P O W E R E D   B Y -                         
                 /     \                                                     
                 |  |  |   _    _      __       _____    __    __             
                 |  |  |  | |  | |    /  \     |  _  \  |  |  /  |          
                  \  \/   | |  | |   /    \    | | | |  |  | /  /          
                 / \  \   | |__| |  /  /\  \   | |_| |  |  |/  /          
                |  |  |   |  __  | /  /__\  \  |    /   |      \           
                |  |  |   | |  | | |   __   |  |    \   |  |\   \          
                \     /   | |  | | |  |  |  |  | |\  \  |  | \   \       
                 \___/    |_|  |_| |__|  |__|  |_| \__\ |__|  \__/        
                                                                              
                      - O R C A' S   B I G   F R I E N D -                    
                                      &                                       
                       - I N T E G R A L  F E E D E R -                       
                                                                              
 v1 FN, 2020, v2 2021                                                         
------------------------------------------------------------------------------


Reading SHARK input file TS2_F/TS2_F.SHARKINP.tmp ... ok
----------------------
SHARK INTEGRAL PACKAGE
----------------------

Number of atoms                             ...     42
Number of basis functions                   ...    877
Number of shells                            ...    343
Maximum angular momentum                    ...      3
Integral batch strategy                     ... SHARK/LIBINT Hybrid
RI-J (if used) integral strategy            ... SPLIT-RIJ (Revised 2003 algorithm where possible)
Printlevel                                  ...      1
Contraction scheme used                     ... SEGMENTED contraction
Coulomb Range Separation                    ... NOT USED
Exchange Range Separation                   ... NOT USED
Finite Nucleus Model                        ... NOT USED
Auxiliary Coulomb fitting basis             ... AVAILABLE
   # of basis functions in Aux-J            ...   1412
   # of shells in Aux-J                     ...    460
   Maximum angular momentum in Aux-J        ...      4
Auxiliary J/K fitting basis                 ... NOT available
Auxiliary Correlation fitting basis         ... NOT available
Auxiliary 'external' fitting basis          ... NOT available
Integral threshold                          ...     2.500000e-11
Primitive cut-off                           ...     2.500000e-12
Primitive pair pre-selection threshold      ...     2.500000e-12

Calculating pre-screening integrals         ... done (  0.1 sec) Dimension = 343
Organizing shell pair data                  ... done (  1.7 sec)
Shell pair information
Total number of shell pairs                 ...     58996
Shell pairs after pre-screening             ...     43000
Total number of primitive shell pairs       ...    182104
Primitive shell pairs kept                  ...     86620
          la=0 lb=0:  10812 shell pairs
          la=1 lb=0:  12330 shell pairs
          la=1 lb=1:   3503 shell pairs
          la=2 lb=0:   6196 shell pairs
          la=2 lb=1:   3575 shell pairs
          la=2 lb=2:    920 shell pairs
          la=3 lb=0:   2871 shell pairs
          la=3 lb=1:   1716 shell pairs
          la=3 lb=2:    858 shell pairs
          la=3 lb=3:    219 shell pairs

Calculating one electron integrals          ... done (  0.1 sec)
Calculating RI/J V-Matrix + Cholesky decomp.... done (  0.2 sec)
Calculating Nuclear repulsion               ... done (  0.0 sec) ENN=   2384.711473893497 Eh

SHARK setup successfully completed in   3.0 seconds

Maximum memory used throughout the entire GTOINT-calculation: 65.2 MB


           ************************************************************
           *        Program running with 24 parallel MPI-processes    *
           *              working on a common directory               *
           ************************************************************
-------------------------------------------------------------------------------
                                 ORCA SCF
-------------------------------------------------------------------------------

------------
SCF SETTINGS
------------
Hamiltonian:
 Density Functional     Method          .... DFT(GTOs)
 Exchange Functional    Exchange        .... PBE
   PBE kappa parameter   XKappa         ....  0.804000
   PBE mue parameter    XMuePBE         ....  0.219520
 Correlation Functional Correlation     .... PBE
   PBE beta parameter  CBetaPBE         ....  0.066725
 LDA part of GGA corr.  LDAOpt          .... PW91-LDA
 Gradients option       PostSCFGGA      .... off
 Hybrid DFT is turned on
   Fraction HF Exchange ScalHFX         ....  0.250000
   Scaling of DF-GGA-X  ScalDFX         ....  0.750000
   Scaling of DF-GGA-C  ScalDFC         ....  1.000000
   Scaling of DF-LDA-C  ScalLDAC        ....  1.000000
   Perturbative correction              ....  0.000000
   Density functional embedding theory  .... OFF
   NL short-range parameter             ....  6.900000
 RI-approximation to the Coulomb term is turned on
   Number of AuxJ basis functions       .... 1412
   RIJ-COSX (HFX calculated with COS-X)).... on


General Settings:
 Integral files         IntName         .... TS2_F/TS2_F
 Hartree-Fock type      HFTyp           .... RHF
 Total Charge           Charge          ....    0
 Multiplicity           Mult            ....    1
 Number of Electrons    NEL             ....  182
 Basis Dimension        Dim             ....  877
 Nuclear Repulsion      ENuc            ....   2384.7114738935 Eh

Convergence Acceleration:
 DIIS                   CNVDIIS         .... on
   Start iteration      DIISMaxIt       ....    12
   Startup error        DIISStart       ....  0.200000
   # of expansion vecs  DIISMaxEq       ....     5
   Bias factor          DIISBfac        ....   1.050
   Max. coefficient     DIISMaxC        ....  10.000
 Trust-Rad. Augm. Hess. CNVTRAH         .... auto
   Auto Start mean grad. ratio tolernc. ....  1.125000
   Auto Start start iteration           ....    20
   Auto Start num. interpolation iter.  ....    10
   Max. Number of Micro iterations      ....    16
   Max. Number of Macro iterations      .... Maxiter - #DIIS iter
   Number of Davidson start vectors     ....     2
   Converg. threshold I  (grad. norm)   ....   1.000e-05
   Converg. threshold II (energy diff.) ....   1.000e-08
   Grad. Scal. Fac. for Micro threshold ....   0.100
   Minimum threshold for Micro iter.    ....   0.010
   NR start threshold (gradient norm)   ....   0.001
   Initial trust radius                 ....   0.400
   Minimum AH scaling param. (alpha)    ....   1.000
   Maximum AH scaling param. (alpha)    .... 1000.000
   Orbital update algorithm             .... Taylor
   White noise on init. David. guess    .... on
   Maximum white noise                  ....   0.010
   Quad. conv. algorithm                .... NR
 SOSCF                  CNVSOSCF        .... on
   Start iteration      SOSCFMaxIt      ....   150
   Startup grad/error   SOSCFStart      ....  0.003300
 Level Shifting         CNVShift        .... on
   Level shift para.    LevelShift      ....    0.2500
   Turn off err/grad.   ShiftErr        ....    0.0010
 Zerner damping         CNVZerner       .... off
 Static damping         CNVDamp         .... on
   Fraction old density DampFac         ....    0.7000
   Max. Damping (<1)    DampMax         ....    0.9800
   Min. Damping (>=0)   DampMin         ....    0.0000
   Turn off err/grad.   DampErr         ....    0.1000
 Fernandez-Rico         CNVRico         .... off

SCF Procedure:
 Maximum # iterations   MaxIter         ....   800
 SCF integral mode      SCFMode         .... Direct
   Integral package                     .... SHARK and LIBINT hybrid scheme
 Reset frequency        DirectResetFreq ....    20
 Integral Threshold     Thresh          ....  2.500e-11 Eh
 Primitive CutOff       TCut            ....  2.500e-12 Eh

Convergence Tolerance:
 Convergence Check Mode ConvCheckMode   .... Total+1el-Energy
 Convergence forced     ConvForced      .... 0
 Energy Change          TolE            ....  1.000e-08 Eh
 1-El. energy change                    ....  1.000e-05 Eh
 Orbital Gradient       TolG            ....  1.000e-05
 Orbital Rotation angle TolX            ....  1.000e-05
 DIIS Error             TolErr          ....  5.000e-07


Diagonalization of the overlap matrix:
Smallest eigenvalue                        ... 6.098e-06
Time for diagonalization                   ...    0.246 sec
Threshold for overlap eigenvalues          ... 1.000e-08
Number of eigenvalues below threshold      ... 0
Time for construction of square roots      ...    0.140 sec
Total time needed                          ...    0.391 sec

Time for model grid setup =    0.324 sec

------------------------------
INITIAL GUESS: MODEL POTENTIAL
------------------------------
Loading Hartree-Fock densities                     ... done
Calculating cut-offs                               ... done
Initializing the effective Hamiltonian             ... done
Setting up the integral package (SHARK)            ... done
Starting the Coulomb interaction                   ... done (   0.4 sec)
Reading the grid                                   ... done
Mapping shells                                     ... done
Starting the XC term evaluation                    ... done (   0.2 sec)
  promolecular density results
     # of electrons  =    181.983431776
     EX              =   -155.818073454
     EC              =     -6.168253213
     EX+EC           =   -161.986326667
Transforming the Hamiltonian                       ... done (   0.1 sec)
Diagonalizing the Hamiltonian                      ... done (   0.2 sec)
Back transforming the eigenvectors                 ... done (   0.0 sec)
Now organizing SCF variables                       ... done
                      ------------------
                      INITIAL GUESS DONE (   1.7 sec)
                      ------------------
-------------------
DFT GRID GENERATION
-------------------

General Integration Accuracy     IntAcc      ... 4.388
Radial Grid Type                 RadialGrid  ... OptM3 with GC (2021)
Angular Grid (max. ang.)         AngularGrid ... 4 (Lebedev-302)
Angular grid pruning method      GridPruning ... 4 (adaptive)
Weight generation scheme         WeightScheme... Becke
Basis function cutoff            BFCut       ... 1.0000e-11
Integration weight cutoff        WCut        ... 1.0000e-14
Angular grids for H and He will be reduced by one unit
Partially contracted basis set               ... off
Rotationally invariant grid construction     ... off

Total number of grid points                  ...   203202
Total number of batches                      ...     3193
Average number of points per batch           ...       63
Average number of grid points per atom       ...     4838
Time for grid setup =    1.439 sec

--------------------
COSX GRID GENERATION
--------------------

GRIDX 1
-------
General Integration Accuracy     IntAcc      ... 3.816
Radial Grid Type                 RadialGrid  ... OptM3 with GC (2021)
Angular Grid (max. ang.)         AngularGrid ... 1 (Lebedev-50)
Angular grid pruning method      GridPruning ... 4 (adaptive)
Weight generation scheme         WeightScheme... Becke
Basis function cutoff            BFCut       ... 1.0000e-11
Integration weight cutoff        WCut        ... 1.0000e-14
Angular grids for H and He will be reduced by one unit
Partially contracted basis set               ... on
Rotationally invariant grid construction     ... off

Total number of grid points                  ...    25769
Total number of batches                      ...      423
Average number of points per batch           ...       60
Average number of grid points per atom       ...      614
UseSFitting                                  ... on

GRIDX 2
-------
General Integration Accuracy     IntAcc      ... 4.020
Radial Grid Type                 RadialGrid  ... OptM3 with GC (2021)
Angular Grid (max. ang.)         AngularGrid ... 2 (Lebedev-110)
Angular grid pruning method      GridPruning ... 4 (adaptive)
Weight generation scheme         WeightScheme... Becke
Basis function cutoff            BFCut       ... 1.0000e-11
Integration weight cutoff        WCut        ... 1.0000e-14
Angular grids for H and He will be reduced by one unit
Partially contracted basis set               ... on
Rotationally invariant grid construction     ... off

Total number of grid points                  ...    56106
Total number of batches                      ...      900
Average number of points per batch           ...       62
Average number of grid points per atom       ...     1336
UseSFitting                                  ... on

GRIDX 3
-------
General Integration Accuracy     IntAcc      ... 4.338
Radial Grid Type                 RadialGrid  ... OptM3 with GC (2021)
Angular Grid (max. ang.)         AngularGrid ... 3 (Lebedev-194)
Angular grid pruning method      GridPruning ... 4 (adaptive)
Weight generation scheme         WeightScheme... Becke
Basis function cutoff            BFCut       ... 1.0000e-11
Integration weight cutoff        WCut        ... 1.0000e-14
Angular grids for H and He will be reduced by one unit
Partially contracted basis set               ... on
Rotationally invariant grid construction     ... off

Total number of grid points                  ...   122613
Total number of batches                      ...     1933
Average number of points per batch           ...       63
Average number of grid points per atom       ...     2919
UseSFitting                                  ... on

Time for X-Grid setup             =    2.575 sec


--------------------
CPCM SOLVATION MODEL
--------------------
CPCM parameters:
  Epsilon                                         ...      47.2000
  Refrac                                          ...       1.4790
  Rsolv                                           ...       1.3000
  Surface type                                    ... GAUSSIAN VDW
  Epsilon function type                           ...         CPCM
Radii:
 Radius for C  used is    3.8550 Bohr (=   2.0400 Ang.)
 Radius for N  used is    3.5149 Bohr (=   1.8600 Ang.)
 Radius for O  used is    3.4469 Bohr (=   1.8240 Ang.)
 Radius for H  used is    2.4944 Bohr (=   1.3200 Ang.)
 Radius for F  used is    3.3335 Bohr (=   1.7640 Ang.)
Calculating surface                               ...        done! (  0.0s)
GEPOL surface points                              ...         2167
GEPOL Volume                                      ...    2601.8474
GEPOL Surface-area                                ...    1287.4980
Calculating surface distance matrix               ...        done! (  0.1s)
Performing Cholesky decomposition & store         ...        done! (  0.3s)
Overall time for CPCM initialization              ...                 0.4s
--------------
SCF ITERATIONS
--------------
ITER       Energy         Delta-E        Max-DP      RMS-DP      [F,P]     Damp
               ***  Starting incremental Fock matrix formation  ***
  0  -1241.9351632407   0.000000000000 0.41938696  0.00100700  0.2733817 0.7000
  1  -1242.1648304094  -0.229667168694 0.39876764  0.00092358  0.1123478 0.7000
                               ***Turning on DIIS***
  2  -1242.2546026191  -0.089772209722 0.56924925  0.00153025  0.0321211 0.0000
  3  -1242.4078598310  -0.153257211912 0.32489401  0.00073305  0.0547770 0.0000
  4  -1242.4334992182  -0.025639387168 0.07109509  0.00021706  0.0224597 0.0000
  5  -1242.4357018682  -0.002202649978 0.03423858  0.00007619  0.0044530 0.0000
                      *** Initiating the SOSCF procedure ***
                           *** Shutting down DIIS ***
                      *** Re-Reading the Fockian *** 
                      *** Removing any level shift *** 
ITER      Energy       Delta-E        Grad      Rot      Max-DP    RMS-DP
  6  -1242.43580774  -0.0001058741  0.000298  0.000298  0.004135  0.000017
               *** Restarting incremental Fock matrix formation ***
  7  -1242.43580956  -0.0000018186  0.000182  0.000660  0.002580  0.000020
  8  -1242.43580840   0.0000011574  0.000426  0.000711  0.000795  0.000007
  9  -1242.43581268  -0.0000042765  0.000072  0.000229  0.001361  0.000005
 10  -1242.43581253   0.0000001474  0.000094  0.000133  0.000569  0.000002
 11  -1242.43581277  -0.0000002408  0.000009  0.000032  0.000516  0.000002
 12  -1242.43581280  -0.0000000218  0.000016  0.000022  0.000191  0.000001
 13  -1242.43581276   0.0000000325  0.000003  0.000008  0.000274  0.000001
 14  -1242.43581274   0.0000000217  0.000003  0.000004  0.000100  0.000000
                  ***Gradient check signals convergence***
              ***Rediagonalizing the Fockian in SOSCF/NRSCF***

               *****************************************************
               *                     SUCCESS                       *
               *           SCF CONVERGED AFTER  15 CYCLES          *
               *****************************************************

Old exchange energy                            =    -39.624259008 Eh
New exchange energy                            =    -39.624267533 Eh
Exchange energy change after final integration =     -0.000008526 Eh
Total energy after final integration           =  -1242.435821337 Eh
Final COS-X integration done in                =    17.164 sec

----------------
TOTAL SCF ENERGY
----------------

Total Energy       :        -1242.43582134 Eh          -33808.39748 eV

Components:
Nuclear Repulsion  :         2384.71147389 Eh           64891.29821 eV
Electronic Energy  :        -3627.14729523 Eh          -98699.69570 eV
One Electron Energy:        -6440.66195291 Eh         -175259.32175 eV
Two Electron Energy:         2813.51465768 Eh           76559.62605 eV
Max COSX asymmetry :            0.00000228 Eh               0.00006 eV
CPCM Dielectric    :           -0.05476226 Eh              -1.49016 eV

Virial components:
Potential Energy   :        -2479.18261364 Eh          -67461.98862 eV
Kinetic Energy     :         1236.74679230 Eh           33653.59113 eV
Virial Ratio       :            2.00459999


DFT components:
N(Alpha)           :       91.000100875496 electrons
N(Beta)            :       91.000100875496 electrons
N(Total)           :      182.000201750993 electrons
E(X)               :     -118.729285032830 Eh       
E(C)               :       -6.162971739717 Eh       
E(XC)              :     -124.892256772547 Eh       
DFET-embed. en.    :        0.000000000000 Eh       
CPCM Solvation Model Properties:
Surface-charge          :           -0.02792814
Charge-correction       :           -0.00034921 Eh              -0.00950 eV
Free-energy (cav+disp)  :  This term is not implemented in the current solvation scheme

---------------
SCF CONVERGENCE
---------------

  Last Energy change         ...   -7.1014e-08  Tolerance :   1.0000e-08
  Last MAX-Density change    ...    2.8866e-15  Tolerance :   1.0000e-07
  Last RMS-Density change    ...    1.4474e-17  Tolerance :   5.0000e-09
  Last Orbital Gradient      ...    5.4026e-07  Tolerance :   1.0000e-05
  Last Orbital Rotation      ...    1.5418e-06  Tolerance :   1.0000e-05

             **** THE GBW FILE WAS UPDATED (TS2_F/TS2_F.gbw) ****
             **** DENSITY TS2_F/TS2_F.scfp WAS UPDATED ****
             **** ENERGY FILE WAS UPDATED (TS2_F/TS2_F.en.tmp) ****
             **** THE GBW FILE WAS UPDATED (TS2_F/TS2_F.gbw) ****
             **** DENSITY TS2_F/TS2_F.scfp WAS UPDATED ****
----------------
ORBITAL ENERGIES
----------------

  NO   OCC          E(Eh)            E(eV) 
   0   2.0000     -24.806354      -675.0152 
   1   2.0000     -19.267821      -524.3041 
   2   2.0000     -19.248846      -523.7877 
   3   2.0000     -19.215793      -522.8883 
   4   2.0000     -19.208068      -522.6781 
   5   2.0000     -19.186350      -522.0871 
   6   2.0000     -14.563224      -396.2855 
   7   2.0000     -14.444691      -393.0600 
   8   2.0000     -10.370435      -282.1939 
   9   2.0000     -10.333005      -281.1754 
  10   2.0000     -10.332992      -281.1750 
  11   2.0000     -10.297107      -280.1985 
  12   2.0000     -10.288620      -279.9676 
  13   2.0000     -10.288218      -279.9566 
  14   2.0000     -10.274557      -279.5849 
  15   2.0000     -10.274394      -279.5805 
  16   2.0000     -10.270347      -279.4704 
  17   2.0000     -10.263646      -279.2880 
  18   2.0000     -10.254199      -279.0309 
  19   2.0000     -10.253981      -279.0250 
  20   2.0000     -10.245916      -278.8055 
  21   2.0000     -10.236315      -278.5443 
  22   2.0000     -10.235269      -278.5158 
  23   2.0000     -10.231387      -278.4102 
  24   2.0000     -10.227305      -278.2991 
  25   2.0000      -1.290458       -35.1151 
  26   2.0000      -1.198563       -32.6146 
  27   2.0000      -1.159365       -31.5479 
  28   2.0000      -1.113500       -30.2999 
  29   2.0000      -1.066611       -29.0240 
  30   2.0000      -1.029044       -28.0017 
  31   2.0000      -1.017188       -27.6791 
  32   2.0000      -0.902084       -24.5470 
  33   2.0000      -0.871355       -23.7108 
  34   2.0000      -0.854256       -23.2455 
  35   2.0000      -0.831423       -22.6242 
  36   2.0000      -0.813898       -22.1473 
  37   2.0000      -0.795896       -21.6574 
  38   2.0000      -0.780400       -21.2358 
  39   2.0000      -0.755832       -20.5672 
  40   2.0000      -0.720137       -19.5959 
  41   2.0000      -0.699050       -19.0221 
  42   2.0000      -0.680728       -18.5236 
  43   2.0000      -0.666672       -18.1411 
  44   2.0000      -0.638613       -17.3775 
  45   2.0000      -0.624152       -16.9840 
  46   2.0000      -0.615447       -16.7472 
  47   2.0000      -0.594445       -16.1757 
  48   2.0000      -0.583025       -15.8649 
  49   2.0000      -0.571416       -15.5490 
  50   2.0000      -0.556295       -15.1376 
  51   2.0000      -0.547828       -14.9071 
  52   2.0000      -0.542339       -14.7578 
  53   2.0000      -0.530769       -14.4430 
  54   2.0000      -0.522278       -14.2119 
  55   2.0000      -0.517295       -14.0763 
  56   2.0000      -0.514557       -14.0018 
  57   2.0000      -0.506521       -13.7831 
  58   2.0000      -0.497731       -13.5440 
  59   2.0000      -0.495746       -13.4899 
  60   2.0000      -0.492088       -13.3904 
  61   2.0000      -0.486733       -13.2447 
  62   2.0000      -0.476863       -12.9761 
  63   2.0000      -0.465829       -12.6758 
  64   2.0000      -0.461516       -12.5585 
  65   2.0000      -0.454548       -12.3689 
  66   2.0000      -0.452557       -12.3147 
  67   2.0000      -0.450737       -12.2652 
  68   2.0000      -0.435163       -11.8414 
  69   2.0000      -0.428925       -11.6716 
  70   2.0000      -0.426248       -11.5988 
  71   2.0000      -0.417480       -11.3602 
  72   2.0000      -0.414087       -11.2679 
  73   2.0000      -0.397259       -10.8100 
  74   2.0000      -0.395449       -10.7607 
  75   2.0000      -0.385976       -10.5029 
  76   2.0000      -0.381198       -10.3729 
  77   2.0000      -0.372250       -10.1294 
  78   2.0000      -0.362884        -9.8746 
  79   2.0000      -0.347143        -9.4462 
  80   2.0000      -0.343181        -9.3384 
  81   2.0000      -0.335176        -9.1206 
  82   2.0000      -0.327724        -8.9178 
  83   2.0000      -0.323411        -8.8004 
  84   2.0000      -0.308361        -8.3909 
  85   2.0000      -0.302107        -8.2207 
  86   2.0000      -0.299004        -8.1363 
  87   2.0000      -0.278257        -7.5718 
  88   2.0000      -0.274161        -7.4603 
  89   2.0000      -0.242972        -6.6116 
  90   2.0000      -0.219899        -5.9838 
  91   0.0000      -0.057410        -1.5622 
  92   0.0000      -0.041265        -1.1229 
  93   0.0000      -0.034846        -0.9482 
  94   0.0000      -0.021442        -0.5835 
  95   0.0000      -0.004567        -0.1243 
  96   0.0000       0.015693         0.4270 
  97   0.0000       0.045710         1.2438 
  98   0.0000       0.055792         1.5182 
  99   0.0000       0.063383         1.7247 
 100   0.0000       0.064158         1.7458 
 101   0.0000       0.071085         1.9343 
 102   0.0000       0.075286         2.0486 
 103   0.0000       0.081398         2.2150 
 104   0.0000       0.087213         2.3732 
 105   0.0000       0.094333         2.5669 
 106   0.0000       0.095748         2.6054 
 107   0.0000       0.102062         2.7772 
 108   0.0000       0.111228         3.0267 
 109   0.0000       0.114725         3.1218 
 110   0.0000       0.120370         3.2754 
 111   0.0000       0.122126         3.3232 
 112   0.0000       0.127194         3.4611 
 113   0.0000       0.131122         3.5680 
 114   0.0000       0.133102         3.6219 
 115   0.0000       0.139397         3.7932 
 116   0.0000       0.142970         3.8904 
 117   0.0000       0.147155         4.0043 
 118   0.0000       0.153370         4.1734 
 119   0.0000       0.154875         4.2144 
 120   0.0000       0.159945         4.3523 
 121   0.0000       0.164149         4.4667 
 122   0.0000       0.175168         4.7666 
 123   0.0000       0.180211         4.9038 
 124   0.0000       0.192331         5.2336 
 125   0.0000       0.199285         5.4228 
 126   0.0000       0.208791         5.6815 
 127   0.0000       0.209864         5.7107 
 128   0.0000       0.214247         5.8299 
 129   0.0000       0.215805         5.8723 
 130   0.0000       0.217439         5.9168 
 131   0.0000       0.220905         6.0111 
 132   0.0000       0.224075         6.0974 
 133   0.0000       0.226673         6.1681 
 134   0.0000       0.233982         6.3670 
 135   0.0000       0.234639         6.3848 
 136   0.0000       0.240557         6.5459 
 137   0.0000       0.244765         6.6604 
 138   0.0000       0.246859         6.7174 
 139   0.0000       0.252051         6.8587 
 140   0.0000       0.258714         7.0400 
 141   0.0000       0.260182         7.0799 
 142   0.0000       0.266416         7.2495 
 143   0.0000       0.269003         7.3199 
 144   0.0000       0.279725         7.6117 
 145   0.0000       0.283232         7.7071 
 146   0.0000       0.287332         7.8187 
 147   0.0000       0.288152         7.8410 
 148   0.0000       0.300666         8.1815 
 149   0.0000       0.301625         8.2076 
 150   0.0000       0.310353         8.4451 
 151   0.0000       0.312676         8.5084 
 152   0.0000       0.320305         8.7159 
 153   0.0000       0.322680         8.7806 
 154   0.0000       0.328698         8.9443 
 155   0.0000       0.330667         8.9979 
 156   0.0000       0.336825         9.1655 
 157   0.0000       0.338763         9.2182 
 158   0.0000       0.343779         9.3547 
 159   0.0000       0.348365         9.4795 
 160   0.0000       0.353131         9.6092 
 161   0.0000       0.357783         9.7358 
 162   0.0000       0.366248         9.9661 
 163   0.0000       0.368155        10.0180 
 164   0.0000       0.369869        10.0647 
 165   0.0000       0.376334        10.2406 
 166   0.0000       0.385407        10.4875 
 167   0.0000       0.388788        10.5795 
 168   0.0000       0.392643        10.6844 
 169   0.0000       0.396362        10.7856 
 170   0.0000       0.398991        10.8571 
 171   0.0000       0.402988        10.9658 
 172   0.0000       0.407338        11.0842 
 173   0.0000       0.412099        11.2138 
 174   0.0000       0.416095        11.3225 
 175   0.0000       0.417157        11.3514 
 176   0.0000       0.423441        11.5224 
 177   0.0000       0.425584        11.5807 
 178   0.0000       0.426682        11.6106 
 179   0.0000       0.431228        11.7343 
 180   0.0000       0.438649        11.9363 
 181   0.0000       0.442254        12.0343 
 182   0.0000       0.445066        12.1109 
 183   0.0000       0.449841        12.2408 
 184   0.0000       0.452067        12.3014 
 185   0.0000       0.458521        12.4770 
 186   0.0000       0.461596        12.5607 
 187   0.0000       0.465935        12.6787 
 188   0.0000       0.467892        12.7320 
 189   0.0000       0.468116        12.7381 
 190   0.0000       0.470061        12.7910 
 191   0.0000       0.474012        12.8985 
 192   0.0000       0.479048        13.0355 
 193   0.0000       0.482935        13.1413 
 194   0.0000       0.488735        13.2992 
 195   0.0000       0.492491        13.4014 
 196   0.0000       0.493219        13.4212 
 197   0.0000       0.496748        13.5172 
 198   0.0000       0.499615        13.5952 
 199   0.0000       0.509580        13.8664 
 200   0.0000       0.512479        13.9453 
 201   0.0000       0.519158        14.1270 
 202   0.0000       0.522041        14.2055 
 203   0.0000       0.525183        14.2910 
 204   0.0000       0.529782        14.4161 
 205   0.0000       0.535510        14.5720 
 206   0.0000       0.540982        14.7209 
 207   0.0000       0.546672        14.8757 
 208   0.0000       0.553203        15.0534 
 209   0.0000       0.559199        15.2166 
 210   0.0000       0.563129        15.3235 
 211   0.0000       0.569509        15.4971 
 212   0.0000       0.575102        15.6493 
 213   0.0000       0.577799        15.7227 
 214   0.0000       0.588044        16.0015 
 215   0.0000       0.592877        16.1330 
 216   0.0000       0.600049        16.3282 
 217   0.0000       0.607727        16.5371 
 218   0.0000       0.618666        16.8348 
 219   0.0000       0.621005        16.8984 
 220   0.0000       0.624585        16.9958 
 221   0.0000       0.628065        17.0905 
 222   0.0000       0.638240        17.3674 
 223   0.0000       0.645921        17.5764 
 224   0.0000       0.648784        17.6543 
 225   0.0000       0.658091        17.9076 
 226   0.0000       0.665870        18.1192 
 227   0.0000       0.671122        18.2622 
 228   0.0000       0.673695        18.3322 
 229   0.0000       0.677987        18.4490 
 230   0.0000       0.684067        18.6144 
 231   0.0000       0.690324        18.7847 
 232   0.0000       0.691531        18.8175 
 233   0.0000       0.697907        18.9910 
 234   0.0000       0.707709        19.2577 
 235   0.0000       0.711310        19.3557 
 236   0.0000       0.715881        19.4801 
 237   0.0000       0.720320        19.6009 
 238   0.0000       0.726699        19.7745 
 239   0.0000       0.733447        19.9581 
 240   0.0000       0.740772        20.1574 
 241   0.0000       0.746919        20.3247 
 242   0.0000       0.748105        20.3570 
 243   0.0000       0.759730        20.6733 
 244   0.0000       0.766887        20.8681 
 245   0.0000       0.777307        21.1516 
 246   0.0000       0.781323        21.2609 
 247   0.0000       0.787687        21.4341 
 248   0.0000       0.793839        21.6015 
 249   0.0000       0.795238        21.6395 
 250   0.0000       0.800444        21.7812 
 251   0.0000       0.808616        22.0036 
 252   0.0000       0.810873        22.0650 
 253   0.0000       0.820792        22.3349 
 254   0.0000       0.834209        22.7000 
 255   0.0000       0.835533        22.7360 
 256   0.0000       0.841068        22.8866 
 257   0.0000       0.848500        23.0889 
 258   0.0000       0.857195        23.3255 
 259   0.0000       0.860842        23.4247 
 260   0.0000       0.868332        23.6285 
 261   0.0000       0.873300        23.7637 
 262   0.0000       0.875453        23.8223 
 263   0.0000       0.885637        24.0994 
 264   0.0000       0.892271        24.2799 
 265   0.0000       0.901187        24.5225 
 266   0.0000       0.906024        24.6542 
[...]
 14:     82.15   0.000231    1.17  0.000877  (-0.010769 -0.010871 -0.025346)
 15:    105.59   0.001803    9.11  0.005330  (-0.040349  0.055592 -0.024719)
 16:    109.40   0.000688    3.48  0.001963  (-0.004783  0.027880  0.034104)
 17:    140.82   0.000481    2.43  0.001067  (-0.012757  0.030053  0.000992)
 18:    155.51   0.001297    6.55  0.002602  ( 0.049607 -0.007770 -0.009002)
 19:    158.10   0.000189    0.96  0.000373  ( 0.011789  0.003540 -0.014891)
 20:    173.69   0.000809    4.09  0.001453  (-0.033044  0.012605 -0.014210)
 21:    186.96   0.006207   31.37  0.010361  (-0.100298  0.011138  0.013296)
 22:    204.51   0.000472    2.38  0.000720  (-0.017082 -0.007452 -0.019292)
 23:    214.27   0.000068    0.34  0.000099  (-0.001377 -0.002447 -0.009552)
 24:    230.11   0.002323   11.74  0.003151  (-0.046000  0.031862  0.004421)
 25:    248.85   0.000091    0.46  0.000114  ( 0.009519  0.003463 -0.003337)
 26:    264.75   0.001865    9.43  0.002199  ( 0.018103 -0.043166 -0.002744)
 27:    280.62   0.002953   14.92  0.003284  (-0.020538 -0.031787  0.043034)
 28:    298.52   0.000361    1.83  0.000378  (-0.015577 -0.011513  0.001576)
 29:    324.28   0.000705    3.56  0.000678  ( 0.016628  0.019846  0.002812)
 30:    339.48   0.003858   19.50  0.003547  ( 0.009664 -0.056663  0.015579)
 31:    377.70   0.004595   23.22  0.003797  (-0.045949  0.038730  0.013618)
 32:    380.68   0.001005    5.08  0.000824  ( 0.012867 -0.009119  0.023976)
 33:    399.76   0.000003    0.02  0.000003  ( 0.000973 -0.001193  0.000545)
 34:    445.65   0.002170   10.96  0.001519  (-0.021405 -0.032009  0.006052)
 35:    481.51   0.003171   16.03  0.002055  (-0.041166 -0.018223 -0.005351)
 36:    492.17   0.000578    2.92  0.000366  ( 0.012346  0.004892  0.013785)
 37:    554.72   0.003177   16.05  0.001787  ( 0.035070 -0.021661  0.009386)
 38:    582.40   0.002856   14.43  0.001530  ( 0.001620  0.026956  0.028304)
 39:    600.06   0.004666   23.58  0.002427  (-0.046801  0.007724 -0.013298)
 40:    609.96   0.001564    7.90  0.000800  (-0.027542 -0.005995 -0.002369)
 41:    628.68   0.009425   47.63  0.004678  (-0.044480  0.049969 -0.014245)
 42:    640.90   0.001886    9.53  0.000918  ( 0.003020  0.028116 -0.010893)
 43:    659.68   0.000132    0.67  0.000062  (-0.007886  0.000297  0.000458)
 44:    678.19   0.001760    8.90  0.000810  ( 0.020055  0.016587  0.011520)
 45:    701.23   0.003324   16.80  0.001479  ( 0.024328 -0.018460 -0.023382)
 46:    714.26   0.020085  101.50  0.008775  (-0.007598  0.091077 -0.020558)
 47:    733.58   0.006810   34.41  0.002897  (-0.000745 -0.052409 -0.012234)
 48:    764.50   0.006244   31.56  0.002549  (-0.048197  0.000960  0.015004)
 49:    768.90   0.013508   68.27  0.005482  (-0.048466  0.041010 -0.038100)
 50:    776.70   0.014953   75.56  0.006008  ( 0.038737 -0.064232  0.019532)
 51:    778.81   0.001425    7.20  0.000571  ( 0.021096 -0.011196  0.000840)
 52:    807.96   0.005479   27.69  0.002116  ( 0.008233  0.016215  0.042254)
 53:    840.46   0.000132    0.67  0.000049  (-0.001161 -0.006882  0.000685)
 54:    875.19   0.001590    8.04  0.000567  ( 0.010741 -0.020819  0.004277)
 55:    895.57   0.000028    0.14  0.000010  ( 0.000186  0.001734 -0.002563)
 56:    896.33   0.002894   14.63  0.001008  (-0.008092 -0.030448 -0.003879)
 57:    963.51   0.001168    5.90  0.000378  ( 0.009500  0.005849  0.015933)
 58:    970.49   0.001507    7.62  0.000485  (-0.005763  0.020286  0.006313)
 59:    982.77   0.000350    1.77  0.000111  ( 0.002717  0.009752 -0.002941)
 60:    997.15   0.000048    0.24  0.000015  ( 0.002210 -0.003037 -0.001010)
 61:   1018.37   0.000021    0.11  0.000007  (-0.000610 -0.000964 -0.002283)
 62:   1033.25   0.010004   50.56  0.003021  (-0.050653 -0.013662 -0.016401)
 63:   1041.70   0.000011    0.05  0.000003  (-0.000621  0.001483  0.000767)
 64:   1044.83   0.010428   52.70  0.003115  ( 0.027511 -0.046293 -0.014652)
 65:   1060.23   0.000150    0.76  0.000044  ( 0.002882 -0.002770 -0.005301)
 66:   1071.39   0.009283   46.91  0.002704  ( 0.038101  0.029764 -0.019138)
 67:   1083.81   0.008297   41.93  0.002389  (-0.016927 -0.007466  0.045241)
 68:   1094.71   0.012821   64.79  0.003655  (-0.052694  0.028447 -0.008299)
 69:   1108.93   0.000518    2.62  0.000146  ( 0.001127 -0.001121 -0.011969)
 70:   1113.36   0.007279   36.79  0.002040  ( 0.010249  0.025680 -0.035718)
 71:   1122.19   0.059248  299.42  0.016476  ( 0.011961 -0.114303  0.057164)
 72:   1141.65   0.026164  132.22  0.007152  (-0.032084 -0.044881  0.064095)
 73:   1168.80   0.000781    3.95  0.000209  (-0.002039 -0.007147 -0.012385)
 74:   1171.40   0.000231    1.17  0.000062  ( 0.007749 -0.001008  0.000774)
 75:   1172.04   0.000483    2.44  0.000129  ( 0.010196  0.003269 -0.003740)
 76:   1175.04   0.001967    9.94  0.000522  (-0.013589 -0.011646  0.014217)
 77:   1191.08   0.019241   97.24  0.005041  ( 0.001198  0.070056 -0.011485)
 78:   1195.87   0.007505   37.93  0.001959  (-0.004287  0.043745  0.005149)
 79:   1212.81   0.002270   11.47  0.000584  (-0.018940 -0.010879  0.010340)
 80:   1218.15   0.003632   18.36  0.000930  (-0.008613 -0.029262 -0.000196)
 81:   1223.92   0.029350  148.32  0.007483  (-0.003388 -0.081976  0.027420)
 82:   1238.08   0.006181   31.23  0.001558  ( 0.037485 -0.011834 -0.003560)
 83:   1277.90   0.065667  331.86  0.016036  (-0.109787  0.062130  0.011080)
 84:   1283.10   0.033514  169.36  0.008151  (-0.069045  0.058163 -0.000834)
 85:   1303.41   0.077954  393.95  0.018664  (-0.062411 -0.005212  0.121415)
 86:   1316.88   0.066952  338.35  0.015866  ( 0.116085  0.045778 -0.017158)
 87:   1323.87   0.011876   60.02  0.002799  ( 0.027213  0.045339  0.001790)
 88:   1341.19   0.001830    9.25  0.000426  (-0.008600 -0.001899 -0.018660)
 89:   1376.54   0.033756  170.59  0.007652  (-0.030747 -0.063690  0.051484)
 90:   1387.60   0.001802    9.11  0.000405  ( 0.005795  0.000058 -0.019278)
 91:   1403.45   0.024835  125.51  0.005522  (-0.022887  0.062784 -0.032504)
 92:   1426.49   0.006103   30.84  0.001335  ( 0.001652  0.036418  0.002460)
 93:   1465.41   0.003645   18.42  0.000776  (-0.026868 -0.001378  0.007247)
 94:   1466.31   0.006270   31.68  0.001334  ( 0.000228 -0.013029 -0.034125)
 95:   1472.59   0.006671   33.71  0.001414  (-0.004249  0.031657 -0.019835)
 96:   1473.60   0.003024   15.28  0.000640  (-0.014957  0.019646 -0.005539)
 97:   1481.13   0.015987   80.79  0.003368  ( 0.008676  0.055661  0.013961)
 98:   1483.61   0.004664   23.57  0.000981  (-0.000407 -0.012219 -0.028836)
 99:   1493.86   0.015804   79.87  0.003301  (-0.005226  0.000782 -0.057215)
100:   1498.71   0.012456   62.95  0.002594  (-0.017408  0.006093  0.047471)
101:   1528.51   0.000352    1.78  0.000072  ( 0.008385  0.000481  0.001166)
102:   1539.24   0.033544  169.52  0.006801  ( 0.021615 -0.023878 -0.075916)
103:   1648.30   0.001494    7.55  0.000283  (-0.001830 -0.003870 -0.016264)
104:   1650.02   0.005582   28.21  0.001056  (-0.022470 -0.007686  0.022176)
105:   1664.73   0.013927   70.38  0.002611  ( 0.011147 -0.016461 -0.047068)
106:   1665.90   0.011146   56.33  0.002088  (-0.045627 -0.001431  0.001996)
107:   1762.27   0.051700  261.27  0.009155  (-0.094123 -0.014617 -0.009070)
108:   1782.01   0.086857  438.94  0.015210  (-0.025477  0.011710 -0.120100)
109:   3038.58   0.011853   59.90  0.001217  (-0.024801 -0.011054  0.021909)
110:   3072.93   0.005662   28.61  0.000575  ( 0.003270  0.022893  0.006341)
111:   3090.06   0.000262    1.32  0.000026  (-0.001855 -0.003852  0.002858)
112:   3111.02   0.007616   38.49  0.000764  ( 0.015379 -0.019248  0.012529)
113:   3156.86   0.003705   18.72  0.000366  ( 0.018436 -0.000436 -0.005113)
114:   3166.78   0.003570   18.04  0.000352  (-0.001059 -0.010094 -0.015772)
115:   3179.85   0.000696    3.52  0.000068  ( 0.005923  0.005349 -0.002150)
116:   3192.28   0.002020   10.21  0.000197  (-0.002586  0.007677 -0.011480)
117:   3196.41   0.001164    5.88  0.000114  ( 0.007003  0.007895  0.001498)
118:   3201.14   0.000642    3.24  0.000063  ( 0.007315  0.000702  0.002930)
119:   3206.45   0.001021    5.16  0.000099  (-0.009873 -0.001259 -0.000563)
120:   3213.19   0.000037    0.19  0.000004  (-0.000520 -0.000788 -0.001655)
121:   3215.22   0.002565   12.96  0.000249  (-0.000431  0.007781  0.013721)
122:   3230.40   0.000141    0.71  0.000014  (-0.000139  0.000487  0.003658)
123:   3232.15   0.000385    1.94  0.000037  (-0.004037 -0.003174  0.003280)
124:   3234.58   0.000344    1.74  0.000033  (-0.005752  0.000041  0.000292)
125:   3280.81   0.000432    2.18  0.000041  (-0.004004 -0.000229  0.004999)

* The epsilon (eps) is given for a Dirac delta lineshape.
** The dipole moment derivative (T) already includes vibrational overlap.

The first frequency considered to be a vibration is 7
The total number of vibrations considered is 119


--------------------------
THERMOCHEMISTRY AT 298.15K
--------------------------

Temperature         ... 298.15 K
Pressure            ... 1.00 atm
Total Mass          ... 348.33 AMU

Throughout the following assumptions are being made:
  (1) The electronic state is orbitally nondegenerate
  (2) There are no thermally accessible electronically excited states
  (3) Hindered rotations indicated by low frequency modes are not
      treated as such but are treated as vibrations and this may
      cause some error
  (4) All equations used are the standard statistical mechanics
      equations for an ideal gas
  (5) All vibrations are strictly harmonic

freq.      21.78  E(vib)   ...       0.56 
freq.      38.40  E(vib)   ...       0.54 
freq.      44.31  E(vib)   ...       0.53 
freq.      55.30  E(vib)   ...       0.52 
freq.      65.52  E(vib)   ...       0.50 
freq.      69.61  E(vib)   ...       0.50 
freq.      80.19  E(vib)   ...       0.49 
freq.      82.15  E(vib)   ...       0.48 
freq.     105.59  E(vib)   ...       0.45 
freq.     109.40  E(vib)   ...       0.45 
freq.     140.82  E(vib)   ...       0.41 
freq.     155.51  E(vib)   ...       0.40 
freq.     158.10  E(vib)   ...       0.39 
freq.     173.69  E(vib)   ...       0.38 
freq.     186.96  E(vib)   ...       0.36 
freq.     204.51  E(vib)   ...       0.35 
freq.     214.27  E(vib)   ...       0.34 
freq.     230.11  E(vib)   ...       0.32 
freq.     248.85  E(vib)   ...       0.31 
freq.     264.75  E(vib)   ...       0.29 
freq.     280.62  E(vib)   ...       0.28 
freq.     298.52  E(vib)   ...       0.26 
freq.     324.28  E(vib)   ...       0.25 
freq.     339.48  E(vib)   ...       0.23 
freq.     377.70  E(vib)   ...       0.21 
freq.     380.68  E(vib)   ...       0.21 
freq.     399.76  E(vib)   ...       0.19 
freq.     445.65  E(vib)   ...       0.17 
freq.     481.51  E(vib)   ...       0.15 
freq.     492.17  E(vib)   ...       0.14 
freq.     554.72  E(vib)   ...       0.12 
freq.     582.40  E(vib)   ...       0.11 
freq.     600.06  E(vib)   ...       0.10 
freq.     609.96  E(vib)   ...       0.10 
freq.     628.68  E(vib)   ...       0.09 
freq.     640.90  E(vib)   ...       0.09 
freq.     659.68  E(vib)   ...       0.08 
freq.     678.19  E(vib)   ...       0.08 
freq.     701.23  E(vib)   ...       0.07 
freq.     714.26  E(vib)   ...       0.07 
freq.     733.58  E(vib)   ...       0.06 
freq.     764.50  E(vib)   ...       0.06 
freq.     768.90  E(vib)   ...       0.06 
freq.     776.70  E(vib)   ...       0.05 
freq.     778.81  E(vib)   ...       0.05 
freq.     807.96  E(vib)   ...       0.05 
freq.     840.46  E(vib)   ...       0.04 
freq.     875.19  E(vib)   ...       0.04 
freq.     895.57  E(vib)   ...       0.03 
freq.     896.33  E(vib)   ...       0.03 
freq.     963.51  E(vib)   ...       0.03 
freq.     970.49  E(vib)   ...       0.03 
freq.     982.77  E(vib)   ...       0.02 
freq.     997.15  E(vib)   ...       0.02 
freq.    1018.37  E(vib)   ...       0.02 
freq.    1033.25  E(vib)   ...       0.02 
freq.    1041.70  E(vib)   ...       0.02 
freq.    1044.83  E(vib)   ...       0.02 
freq.    1060.23  E(vib)   ...       0.02 
freq.    1071.39  E(vib)   ...       0.02 
freq.    1083.81  E(vib)   ...       0.02 
freq.    1094.71  E(vib)   ...       0.02 
freq.    1108.93  E(vib)   ...       0.02 
freq.    1113.36  E(vib)   ...       0.01 
freq.    1122.19  E(vib)   ...       0.01 
freq.    1141.65  E(vib)   ...       0.01 
freq.    1168.80  E(vib)   ...       0.01 
freq.    1171.40  E(vib)   ...       0.01 
freq.    1172.04  E(vib)   ...       0.01 
freq.    1175.04  E(vib)   ...       0.01 
freq.    1191.08  E(vib)   ...       0.01 
freq.    1195.87  E(vib)   ...       0.01 
freq.    1212.81  E(vib)   ...       0.01 
freq.    1218.15  E(vib)   ...       0.01 
freq.    1223.92  E(vib)   ...       0.01 
freq.    1238.08  E(vib)   ...       0.01 
freq.    1277.90  E(vib)   ...       0.01 
freq.    1283.10  E(vib)   ...       0.01 
freq.    1303.41  E(vib)   ...       0.01 
freq.    1316.88  E(vib)   ...       0.01 
freq.    1323.87  E(vib)   ...       0.01 
freq.    1341.19  E(vib)   ...       0.01 
freq.    1376.54  E(vib)   ...       0.01 
freq.    1387.60  E(vib)   ...       0.00 
freq.    1403.45  E(vib)   ...       0.00 
freq.    1426.49  E(vib)   ...       0.00 
freq.    1465.41  E(vib)   ...       0.00 
freq.    1466.31  E(vib)   ...       0.00 
freq.    1472.59  E(vib)   ...       0.00 
freq.    1473.60  E(vib)   ...       0.00 
freq.    1481.13  E(vib)   ...       0.00 
freq.    1483.61  E(vib)   ...       0.00 
freq.    1493.86  E(vib)   ...       0.00 
freq.    1498.71  E(vib)   ...       0.00 
freq.    1528.51  E(vib)   ...       0.00 
freq.    1539.24  E(vib)   ...       0.00 
freq.    1648.30  E(vib)   ...       0.00 
freq.    1650.02  E(vib)   ...       0.00 
freq.    1664.73  E(vib)   ...       0.00 
freq.    1665.90  E(vib)   ...       0.00 
freq.    1762.27  E(vib)   ...       0.00 
freq.    1782.01  E(vib)   ...       0.00 
freq.    3038.58  E(vib)   ...       0.00 
freq.    3072.93  E(vib)   ...       0.00 
freq.    3090.06  E(vib)   ...       0.00 
freq.    3111.02  E(vib)   ...       0.00 
freq.    3156.86  E(vib)   ...       0.00 
freq.    3166.78  E(vib)   ...       0.00 
freq.    3179.85  E(vib)   ...       0.00 
freq.    3192.28  E(vib)   ...       0.00 
freq.    3196.41  E(vib)   ...       0.00 
freq.    3201.14  E(vib)   ...       0.00 
freq.    3206.45  E(vib)   ...       0.00 
freq.    3213.19  E(vib)   ...       0.00 
freq.    3215.22  E(vib)   ...       0.00 
freq.    3230.40  E(vib)   ...       0.00 
freq.    3232.15  E(vib)   ...       0.00 
freq.    3234.58  E(vib)   ...       0.00 
freq.    3280.81  E(vib)   ...       0.00 

------------
INNER ENERGY
------------

The inner energy is: U= E(el) + E(ZPE) + E(vib) + E(rot) + E(trans)
    E(el)   - is the total energy from the electronic structure calculation
              = E(kin-el) + E(nuc-el) + E(el-el) + E(nuc-nuc)
    E(ZPE)  - the the zero temperature vibrational energy from the frequency calculation
    E(vib)  - the the finite temperature correction to E(ZPE) due to population
              of excited vibrational states
    E(rot)  - is the rotational thermal energy
    E(trans)- is the translational thermal energy

Summary of contributions to the inner energy U:
Electronic energy                ...  -1242.49157779 Eh
Zero point energy                ...      0.32424974 Eh     203.47 kcal/mol
Thermal vibrational correction   ...      0.02001810 Eh      12.56 kcal/mol
Thermal rotational correction    ...      0.00141627 Eh       0.89 kcal/mol
Thermal translational correction ...      0.00141627 Eh       0.89 kcal/mol
-----------------------------------------------------------------------
Total thermal energy                  -1242.14447740 Eh


Summary of corrections to the electronic energy:
(perhaps to be used in another calculation)
Total thermal correction                  0.02285065 Eh      14.34 kcal/mol
Non-thermal (ZPE) correction              0.32424974 Eh     203.47 kcal/mol
-----------------------------------------------------------------------
Total correction                          0.34710039 Eh     217.81 kcal/mol


--------
ENTHALPY
--------

The enthalpy is H = U + kB*T
                kB is Boltzmann's constant
Total free energy                 ...  -1242.14447740 Eh 
Thermal Enthalpy correction       ...      0.00094421 Eh       0.59 kcal/mol
-----------------------------------------------------------------------
Total Enthalpy                    ...  -1242.14353319 Eh


Note: Only C1 symmetry has been detected, increase convergence thresholds 
      if your molecule has a higher symmetry. Symmetry factor of 1.0 is   
      used for the rotational entropy correction. 
 

Note: Rotational entropy computed according to Herzberg 
Infrared and Raman Spectra, Chapter V,1, Van Nostrand Reinhold, 1945 
Point Group:  C1, Symmetry Number:   1  
Rotational constants in cm-1:     0.009353     0.007641     0.005344 

Vibrational entropy computed according to the QRRHO of S. Grimme
Chem.Eur.J. 2012 18 9955


-------
ENTROPY
-------

The entropy contributions are T*S = T*(S(el)+S(vib)+S(rot)+S(trans))
     S(el)   - electronic entropy
     S(vib)  - vibrational entropy
     S(rot)  - rotational entropy
     S(trans)- translational entropy
The entropies will be listed as multiplied by the temperature to get
units of energy

Electronic entropy                ...      0.00000000 Eh      0.00 kcal/mol
Vibrational entropy               ...      0.03597292 Eh     22.57 kcal/mol
Rotational entropy                ...      0.01648740 Eh     10.35 kcal/mol
Translational entropy             ...      0.02063872 Eh     12.95 kcal/mol
-----------------------------------------------------------------------
Final entropy term                ...      0.07309904 Eh     45.87 kcal/mol

In case the symmetry of your molecule has not been determined correctly
or in case you have a reason to use a different symmetry number we print 
out the resulting rotational entropy values for sn=1,12 :
 --------------------------------------------------------
|  sn= 1 | S(rot)=       0.01648740 Eh     10.35 kcal/mol|
|  sn= 2 | S(rot)=       0.01583295 Eh      9.94 kcal/mol|
|  sn= 3 | S(rot)=       0.01545012 Eh      9.70 kcal/mol|
|  sn= 4 | S(rot)=       0.01517849 Eh      9.52 kcal/mol|
|  sn= 5 | S(rot)=       0.01496780 Eh      9.39 kcal/mol|
|  sn= 6 | S(rot)=       0.01479566 Eh      9.28 kcal/mol|
|  sn= 7 | S(rot)=       0.01465011 Eh      9.19 kcal/mol|
|  sn= 8 | S(rot)=       0.01452404 Eh      9.11 kcal/mol|
|  sn= 9 | S(rot)=       0.01441283 Eh      9.04 kcal/mol|
|  sn=10 | S(rot)=       0.01431335 Eh      8.98 kcal/mol|
|  sn=11 | S(rot)=       0.01422336 Eh      8.93 kcal/mol|
|  sn=12 | S(rot)=       0.01414120 Eh      8.87 kcal/mol|
 --------------------------------------------------------


-------------------
GIBBS FREE ENERGY
-------------------

The Gibbs free energy is G = H - T*S

Total enthalpy                    ...  -1242.14353319 Eh 
Total entropy correction          ...     -0.07309904 Eh    -45.87 kcal/mol
-----------------------------------------------------------------------
Final Gibbs free energy         ...  -1242.21663224 Eh

For completeness - the Gibbs free energy minus the electronic energy
G-E(el)                           ...      0.27494556 Eh    172.53 kcal/mol


Timings for individual modules:

Sum of individual times         ...     8848.845 sec (= 147.481 min)
GTO integral calculation        ...      107.383 sec (=   1.790 min)   1.2 %
SCF iterations                  ...     4906.833 sec (=  81.781 min)  55.5 %
SCF Gradient evaluation         ...     1267.062 sec (=  21.118 min)  14.3 %
Geometry relaxation             ...        6.324 sec (=   0.105 min)   0.1 %
Analytical frequency calculation...     2561.243 sec (=  42.687 min)  28.9 %
                             ****ORCA TERMINATED NORMALLY****
TOTAL RUN TIME: 0 days 2 hours 29 minutes 15 seconds 476 msec
