
                                 *****************
                                 * O   R   C   A *
                                 *****************

                                            #,                                       
                                            ###                                      
                                            ####                                     
                                            #####                                    
                                            ######                                   
                                           ########,                                 
                                     ,,################,,,,,                         
                               ,,#################################,,                 
                          ,,##########################################,,             
                       ,#########################################, ''#####,          
                    ,#############################################,,   '####,        
                  ,##################################################,,,,####,       
                ,###########''''           ''''###############################       
              ,#####''   ,,,,##########,,,,          '''####'''          '####       
            ,##' ,,,,###########################,,,                        '##       
           ' ,,###''''                  '''############,,,                           
         ,,##''                                '''############,,,,        ,,,,,,###''
      ,#''                                            '''#######################'''  
     '                                                          ''''####''''         
             ,#######,   #######,   ,#######,      ##                                
            ,#'     '#,  ##    ##  ,#'     '#,    #''#        ######   ,####,        
            ##       ##  ##   ,#'  ##            #'  '#       #        #'  '#        
            ##       ##  #######   ##           ,######,      #####,   #    #        
            '#,     ,#'  ##    ##  '#,     ,#' ,#      #,         ##   #,  ,#        
             '#######'   ##     ##  '#######'  #'      '#     #####' # '####'        



                  #######################################################
                  #                        -***-                        #
                  #          Department of theory and spectroscopy      #
                  #    Directorship and core code : Frank Neese         #
                  #        Max Planck Institute fuer Kohlenforschung    #
                  #                Kaiser Wilhelm Platz 1               #
                  #                 D-45470 Muelheim/Ruhr               #
                  #                      Germany                        #
                  #                                                     #
                  #                  All rights reserved                #
                  #                        -***-                        #
                  #######################################################


                         Program Version 5.0.4 -  RELEASE  -


 With contributions from (in alphabetic order):
   Daniel Aravena         : Magnetic Suceptibility
   Michael Atanasov       : Ab Initio Ligand Field Theory (pilot matlab implementation)
   Alexander A. Auer      : GIAO ZORA, VPT2 properties, NMR spectrum
   Ute Becker             : Parallelization
   Giovanni Bistoni       : ED, misc. LED, open-shell LED, HFLD
   Martin Brehm           : Molecular dynamics
   Dmytro Bykov           : SCF Hessian
   Vijay G. Chilkuri      : MRCI spin determinant printing, contributions to CSF-ICE
   Dipayan Datta          : RHF DLPNO-CCSD density
   Achintya Kumar Dutta   : EOM-CC, STEOM-CC
   Dmitry Ganyushin       : Spin-Orbit,Spin-Spin,Magnetic field MRCI
   Miquel Garcia          : C-PCM and meta-GGA Hessian, CC/C-PCM, Gaussian charge scheme
   Yang Guo               : DLPNO-NEVPT2, F12-NEVPT2, CIM, IAO-localization
   Andreas Hansen         : Spin unrestricted coupled pair/coupled cluster methods
   Benjamin Helmich-Paris : MC-RPA, TRAH-SCF, COSX integrals
   Lee Huntington         : MR-EOM, pCC
   Robert Izsak           : Overlap fitted RIJCOSX, COSX-SCS-MP3, EOM
   Marcus Kettner         : VPT2
   Christian Kollmar      : KDIIS, OOCD, Brueckner-CCSD(T), CCSD density, CASPT2, CASPT2-K
   Simone Kossmann        : Meta GGA functionals, TD-DFT gradient, OOMP2, MP2 Hessian
   Martin Krupicka        : Initial AUTO-CI
   Lucas Lang             : DCDCAS
   Marvin Lechner         : AUTO-CI (C++ implementation), FIC-MRCC
   Dagmar Lenk            : GEPOL surface, SMD
   Dimitrios Liakos       : Extrapolation schemes; Compound Job, initial MDCI parallelization
   Dimitrios Manganas     : Further ROCIS development; embedding schemes
   Dimitrios Pantazis     : SARC Basis sets
   Anastasios Papadopoulos: AUTO-CI, single reference methods and gradients
   Taras Petrenko         : DFT Hessian,TD-DFT gradient, ASA, ECA, R-Raman, ABS, FL, XAS/XES, NRVS
   Peter Pinski           : DLPNO-MP2, DLPNO-MP2 Gradient
   Christoph Reimann      : Effective Core Potentials
   Marius Retegan         : Local ZFS, SOC
   Christoph Riplinger    : Optimizer, TS searches, QM/MM, DLPNO-CCSD(T), (RO)-DLPNO pert. Triples
   Tobias Risthaus        : Range-separated hybrids, TD-DFT gradient, RPA, STAB
   Michael Roemelt        : Original ROCIS implementation
   Masaaki Saitow         : Open-shell DLPNO-CCSD energy and density
   Barbara Sandhoefer     : DKH picture change effects
   Avijit Sen             : IP-ROCIS
   Kantharuban Sivalingam : CASSCF convergence, NEVPT2, FIC-MRCI
   Bernardo de Souza      : ESD, SOC TD-DFT
   Georgi Stoychev        : AutoAux, RI-MP2 NMR, DLPNO-MP2 response
   Willem Van den Heuvel  : Paramagnetic NMR
   Boris Wezisla          : Elementary symmetry handling
   Frank Wennmohs         : Technical directorship


 We gratefully acknowledge several colleagues who have allowed us to
 interface, adapt or use parts of their codes:
   Stefan Grimme, W. Hujo, H. Kruse, P. Pracht,  : VdW corrections, initial TS optimization,
                  C. Bannwarth, S. Ehlert          DFT functionals, gCP, sTDA/sTD-DF
   Ed Valeev, F. Pavosevic, A. Kumar             : LibInt (2-el integral package), F12 methods
   Garnet Chan, S. Sharma, J. Yang, R. Olivares  : DMRG
   Ulf Ekstrom                                   : XCFun DFT Library
   Mihaly Kallay                                 : mrcc  (arbitrary order and MRCC methods)
   Jiri Pittner, Ondrej Demel                    : Mk-CCSD
   Frank Weinhold                                : gennbo (NPA and NBO analysis)
   Christopher J. Cramer and Donald G. Truhlar   : smd solvation model
   Lars Goerigk                                  : TD-DFT with DH, B97 family of functionals
   V. Asgeirsson, H. Jonsson                     : NEB implementation
   FAccTs GmbH                                   : IRC, NEB, NEB-TS, DLPNO-Multilevel, CI-OPT
                                                   MM, QMMM, 2- and 3-layer-ONIOM, Crystal-QMMM,
                                                   LR-CPCM, SF, NACMEs, symmetry and pop. for TD-DFT,
                                                   nearIR, NL-DFT gradient (VV10), updates on ESD,
                                                   ML-optimized integration grids
   S Lehtola, MJT Oliveira, MAL Marques          : LibXC Library
   Liviu Ungur et al                             : ANISO software


 Your calculation uses the libint2 library for the computation of 2-el integrals
 For citations please refer to: http://libint.valeyev.net

 Your ORCA version has been built with support for libXC version: 5.1.0
 For citations please refer to: https://tddft.org/programs/libxc/

 This ORCA versions uses:
   CBLAS   interface :  Fast vector & matrix operations
   LAPACKE interface :  Fast linear algebra routines
   SCALAPACK package :  Parallel linear algebra routines
   Shared memory     :  Shared parallel matrices
   BLAS/LAPACK       :  OpenBLAS 0.3.15  USE64BITINT DYNAMIC_ARCH NO_AFFINITY Haswell SINGLE_THREADED
        Core in use  :  Haswell
   Copyright (c) 2011-2014, The OpenBLAS Project


Your calculation utilizes the atom-pairwise dispersion correction
with the Becke-Johnson damping scheme (D3BJ)
Cite in your paper:
S.Grimme, S.Ehrlich, L.Goerigk, J Comput Chem, (2011), 32, 1456–1465 
S.Grimme, J.Antony, S.Ehrlich and H.Krieg, J.Chem.Phys., 132, (2010), 154104 
   

================================================================================

----- Orbital basis set information -----
Your calculation utilizes the basis: def2-TZVP
   F. Weigend and R. Ahlrichs, Phys. Chem. Chem. Phys. 7, 3297 (2005).

----- AuxJ basis set information -----
Your calculation utilizes the auxiliary basis: def2/J
   F. Weigend, Phys. Chem. Chem. Phys. 8, 1057 (2006).

================================================================================
                                        WARNINGS
                       Please study these warnings very carefully!
================================================================================


WARNING: Geometry Optimization
  ===> : Switching off AutoStart
         For restart on a previous wavefunction, please use MOREAD

INFO   : the flag for use of the SHARK integral package has been found!

================================================================================
                                       INPUT FILE
================================================================================
NAME = TS2_CCH/TS2_CCH.inp
|  1> %pal nprocs 24 end
|  2> %maxcore 3500
|  3> ! PBE0 D3BJ def2-TZVP TightSCF OPTTS FREQ TightOpt
|  4> ! CPCM(dmso)
|  5> %scf
|  6> MaxIter 800
|  7> end
|  8> 
|  9> %geom
| 10> MaxIter 800
| 11> MaxStep 0.2
| 12> end
| 13> 
| 14> *xyz 0 1
| 15> C      -2.95920800      2.99353600     -0.11614500
| 16> C      -2.15200700      2.84073600      0.99923200
| 17> C      -0.96580500      2.14217400      0.86928700
| 18> N      -0.58650300      1.62589100     -0.29451400
| 19> C      -1.34828400      1.77337700     -1.37349500
| 20> C      -2.54993900      2.45272500     -1.32575900
| 21> C       1.06129100      0.49514200     -0.55184900
| 22> C       1.91205800      1.54584000      0.07854800
| 23> O       2.18455800      1.56236200      1.25430000
| 24> O       2.30003900      2.44811200     -0.80517500
| 25> C       3.12828200      3.50175100     -0.30175000
| 26> H      -3.89839700      3.52897100     -0.04446700
| 27> H      -0.30139000      1.98990700      1.71210200
| 28> H      -0.98712500      1.32513900     -2.29276200
| 29> H      -3.14953400      2.54914300     -2.22142100
| 30> H       0.85359600      0.55619300     -1.60648100
| 31> H       4.05115100      3.09081700      0.10780500
| 32> H       2.59907800      4.06053700      0.47023500
| 33> C       1.66481500     -1.64904800      0.46250800
| 34> C       0.55274200     -0.65937700      0.28770200
| 35> C      -0.68142400     -1.29096400     -0.31484500
| 36> C      -0.62925000     -1.87760400     -1.57000500
| 37> C      -1.75802000     -2.42873200     -2.15825200
| 38> C      -2.96038400     -2.39574600     -1.46979600
| 39> C      -3.03652600     -1.82738400     -0.20624800
| 40> C      -1.89801100     -1.27918900      0.37852200
| 41> O      -1.88837500     -0.71472400      1.60508900
| 42> C      -3.11808300     -0.57251000      2.28869600
| 43> N       2.73984500     -1.44430200     -0.27320500
| 44> O       3.75897000     -2.15655000     -0.29814600
| 45> H       0.30078500     -0.26289300      1.27196700
| 46> H       0.31788300     -1.89597600     -2.10026100
| 47> H      -1.69742900     -2.87738000     -3.14232600
| 48> H      -3.85488900     -2.81893100     -1.91273000
| 49> H      -3.98242700     -1.81530800      0.31804900
| 50> H      -3.56185600     -1.54628700      2.51358000
| 51> H      -3.82454100      0.02505000      1.70540800
| 52> H      -2.88633800     -0.05594900      3.21781400
| 53> O       2.70831600     -0.38197100     -1.04412900
| 54> H       3.34125600      4.13942000     -1.15530400
| 55> H      -2.43216900      3.24847000      1.96168400
| 56> C       1.58095500     -2.74832600      1.32314900
| 57> C       1.44769500     -3.67902600      2.08014800
| 58> H       1.34094300     -4.50405400      2.74817900
| 59> *
| 60> 
| 61>                          ****END OF INPUT****
================================================================================

                       *****************************
                       * Geometry Optimization Run *
                       *****************************

Geometry optimization settings:
Update method            Update   .... Bofill
Choice of coordinates    CoordSys .... Z-matrix Internals
Initial Hessian          InHess   .... Almoef's Model

Convergence Tolerances:
Energy Change            TolE     ....  1.0000e-06 Eh
Max. Gradient            TolMAXG  ....  1.0000e-04 Eh/bohr
RMS Gradient             TolRMSG  ....  3.0000e-05 Eh/bohr
Max. Displacement        TolMAXD  ....  1.0000e-03 bohr
RMS Displacement         TolRMSD  ....  6.0000e-04 bohr
Strict Convergence                ....  False
------------------------------------------------------------------------------
                        ORCA OPTIMIZATION COORDINATE SETUP
------------------------------------------------------------------------------

The optimization will be done in new redundant internal coordinates
Making redundant internal coordinates   ...  (new redundants) done
Following TS mode number                ...     0
Evaluating the initial hessian          ...  (Almloef) done
Evaluating the coordinates              ...  done
Calculating the B-matrix                .... done
Calculating the G-matrix                .... done
Diagonalizing the G-matrix              .... done
Small eigenvalue found = 5.118e-03
Small eigenvalue found = 1.104e-02
Small eigenvalue found = 1.372e-02
Small eigenvalue found = 1.964e-02
Small eigenvalue found = 2.291e-02
Small eigenvalue found = 2.679e-02
The first mode is                       ....  181
The number of degrees of freedom        ....  126

    -----------------------------------------------------------------
                    Redundant Internal Coordinates


    -----------------------------------------------------------------
         Definition                    Initial Value    Approx d2E/dq
    -----------------------------------------------------------------
      1. B(C   1,C   0)                  1.3853         0.635736   
      2. B(C   2,C   1)                  1.3827         0.641701   
      3. B(N   3,C   2)                  1.3285         0.701506   
      4. B(C   4,N   3)                  1.3290         0.700139   
      5. B(C   5,C   0)                  1.3868         0.632244   
      6. B(C   5,C   4)                  1.3812         0.645279   
      7. B(C   6,N   3)                  2.0150         0.056338   
      8. B(C   7,C   6)                  1.4917         0.430013   
      9. B(C   7,N   3)                  2.5275         0.008571   
     10. B(O   8,C   7)                  1.2070         1.095953   
     11. B(O   9,C   7)                  1.3212         0.720491   
     12. B(C  10,O   9)                  1.4316         0.480230   
     13. B(H  11,C   0)                  1.0835         0.368845   
     14. B(H  12,C   2)                  1.0840         0.368179   
     15. B(H  12,O   8)                  2.5637         0.001437   
     16. B(H  13,C   4)                  1.0846         0.367285   
     17. B(H  14,C   5)                  1.0821         0.370653   
     18. B(H  15,C   6)                  1.0766         0.378241   
     19. B(H  15,H  13)                  2.1096         0.001628   
     20. B(H  15,C   4)                  2.5267         0.001838   
     21. B(H  15,N   3)                  2.2225         0.005032   
     22. B(H  16,C  10)                  1.0901         0.359985   
     23. B(H  17,C  10)                  1.0901         0.360003   
     24. B(C  19,C  18)                  1.4989         0.418784   
     25. B(C  19,C   6)                  1.5154         0.394185   
     26. B(C  19,N   3)                  2.6190         0.006124   
     27. B(C  20,C  19)                  1.5117         0.399604   
     28. B(C  21,C  20)                  1.3865         0.632955   
     29. B(C  22,C  21)                  1.3870         0.631612   
     30. B(C  23,C  22)                  1.3859         0.634261   
     31. B(C  24,C  23)                  1.3876         0.630369   
     32. B(C  25,C  24)                  1.3924         0.619384   
     33. B(C  25,C  20)                  1.4004         0.601486   
     34. B(O  26,C  25)                  1.3503         0.647576   
     35. B(C  27,O  26)                  1.4141         0.512153   
     36. B(N  28,C  18)                  1.3187         0.727247   
     37. B(O  29,N  28)                  1.2436         0.858199   
     38. B(H  30,C  19)                  1.0906         0.359276   
     39. B(H  30,H  12)                  2.3731         0.000619   
     40. B(H  30,N   3)                  2.6093         0.001215   
     41. B(H  31,C  21)                  1.0856         0.365942   
     42. B(H  32,C  22)                  1.0832         0.369186   
     43. B(H  33,C  23)                  1.0842         0.367901   
     44. B(H  34,C  24)                  1.0816         0.371446   
     45. B(H  35,C  27)                  1.0935         0.355496   
     46. B(H  36,C  27)                  1.0938         0.355116   
     47. B(H  37,C  27)                  1.0880         0.362720   
     48. B(O  38,N  28)                  1.3130         0.665157   
     49. B(O  38,C   6)                  1.9299         0.077013   
     50. B(H  39,C  10)                  1.0865         0.364728   
     51. B(H  40,C   1)                  1.0822         0.370634   
     52. B(C  41,C  18)                  1.3986         0.605314   
     53. B(C  42,C  41)                  1.2071         1.223484   
     54. B(H  43,C  42)                  1.0669         0.391954   
     55. A(C   1,C   0,C   5)          119.1647         0.437569   
     56. A(C   1,C   0,H  11)          120.4210         0.355856   
     57. A(C   5,C   0,H  11)          120.4143         0.355523   
     58. A(C   2,C   1,H  40)          119.7377         0.356713   
     59. A(C   0,C   1,H  40)          121.5799         0.356148   
     60. A(C   0,C   1,C   2)          118.6814         0.438742   
     61. A(C   1,C   2,H  12)          121.5827         0.356311   
     62. A(N   3,C   2,H  12)          116.8433         0.359513   
     63. A(C   1,C   2,N   3)          121.5740         0.443680   
     64. A(C   2,N   3,C  19)          105.5781         0.211738   
     65. A(C   2,N   3,C   7)           99.5117         0.221441   
     66. A(C   2,N   3,C   4)          120.2946         0.447769   
     67. A(C   4,N   3,C  19)          121.7791         0.211684   
     68. A(C   7,N   3,C  19)           60.6298         0.134289   
     69. A(C   6,N   3,C   7)           36.1638         0.163839   
     70. A(C   4,N   3,C   6)          115.2988         0.291733   
     71. A(C   4,N   3,C   7)          133.6279         0.221382   
     72. A(C   2,N   3,C   6)          124.2955         0.291822   
     73. A(C   6,N   3,C  19)           35.2145         0.158357   
     74. A(N   3,C   4,H  13)          116.8317         0.359244   
     75. A(N   3,C   4,C   5)          121.6818         0.443969   
     76. A(C   5,C   4,H  13)          121.4832         0.356500   
     77. A(C   0,C   5,C   4)          118.6012         0.438746   
     78. A(C   0,C   5,H  14)          121.5789         0.355818   
     79. A(C   4,C   5,H  14)          119.8195         0.357054   
     80. A(H  15,C   6,C  19)          121.4105         0.329861   
     81. A(C  19,C   6,O  38)           94.6728         0.281651   
     82. A(H  15,C   6,O  38)           86.5910         0.254072   
     83. A(C   7,C   6,O  38)           86.6281         0.285482   
     84. A(N   3,C   6,C  19)           94.7235         0.268492   
     85. A(N   3,C   6,O  38)          170.2519         0.212013   
     86. A(C   7,C   6,C  19)          119.5972         0.375692   
     87. A(N   3,C   6,H  15)           86.3030         0.242796   
     88. A(N   3,C   6,C   7)           90.9835         0.272061   
     89. A(C   7,C   6,H  15)          118.9506         0.334651   
     90. A(C   6,C   7,O   8)          123.3706         0.447379   
     91. A(N   3,C   7,C   6)           52.8528         0.208537   
     92. A(N   3,C   7,O   8)          111.5008         0.235513   
     93. A(N   3,C   7,O   9)           99.7841         0.222244   
     94. A(C   6,C   7,O   9)          111.4588         0.414921   
     95. A(O   8,C   7,O   9)          125.1626         0.488473   
     96. A(C   7,O   9,C  10)          115.9309         0.420422   
     97. A(H  16,C  10,H  17)          109.7655         0.290813   
     98. A(O   9,C  10,H  17)          110.2085         0.336018   
     99. A(O   9,C  10,H  16)          110.1487         0.336015   
    100. A(H  17,C  10,H  39)          110.5276         0.291411   
    101. A(H  16,C  10,H  39)          110.5146         0.291409   
    102. A(O   9,C  10,H  39)          105.6100         0.336748   
    103. A(C  19,C  18,N  28)          115.9293         0.413660   
    104. A(N  28,C  18,C  41)          120.9462         0.441891   
    105. A(C  19,C  18,C  41)          123.1085         0.403035   
    106. A(N   3,C  19,C  20)           85.4585         0.197956   
    107. A(C  18,C  19,C  20)          112.1078         0.374863   
    108. A(C   6,C  19,C  20)          111.8063         0.370973   
    109. A(C   6,C  19,C  18)          108.5819         0.373980   
    110. A(N   3,C  19,H  30)           77.4625         0.180993   
    111. A(N   3,C  19,C   6)           50.0620         0.197620   
    112. A(C  20,C  19,H  30)          108.8447         0.327810   
    113. A(C  18,C  19,H  30)          107.8293         0.330357   
    114. A(C   6,C  19,H  30)          107.4907         0.327073   
    115. A(N   3,C  19,C  18)          157.6345         0.199118   
    116. A(C  19,C  20,C  21)          120.4581         0.402876   
    117. A(C  21,C  20,C  25)          118.9794         0.433314   
    118. A(C  19,C  20,C  25)          120.5584         0.399274   
    119. A(C  20,C  21,C  22)          121.4284         0.437144   
    120. A(C  22,C  21,H  31)          119.7431         0.354987   
    121. A(C  20,C  21,H  31)          118.8271         0.355115   
    122. A(C  21,C  22,C  23)          119.0707         0.437307   
    123. A(C  23,C  22,H  32)          120.6422         0.355771   
    124. A(C  21,C  22,H  32)          120.2872         0.355519   
    125. A(C  22,C  23,C  24)          120.6442         0.437151   
    126. A(C  24,C  23,H  33)          119.1197         0.355190   
    127. A(C  22,C  23,H  33)          120.2356         0.355561   
    128. A(C  25,C  24,H  34)          120.4733         0.354709   
    129. A(C  23,C  24,H  34)          119.6035         0.355768   
    130. A(C  23,C  24,C  25)          119.9232         0.435286   
    131. A(C  24,C  25,O  26)          123.5000         0.434536   
    132. A(C  20,C  25,O  26)          116.5577         0.432251   
    133. A(C  20,C  25,C  24)          119.9418         0.431629   
    134. A(C  25,O  26,C  27)          118.3574         0.417261   
    135. A(H  36,C  27,H  37)          109.4862         0.290534   
    136. A(H  35,C  27,H  37)          109.4879         0.290583   
    137. A(O  26,C  27,H  37)          105.9822         0.340070   
    138. A(H  35,C  27,H  36)          109.5152         0.289618   
    139. A(O  26,C  27,H  36)          111.0267         0.338868   
    140. A(O  26,C  27,H  35)          111.2701         0.338929   
    141. A(O  29,N  28,O  38)          118.1192         0.453984   
    142. A(C  18,N  28,O  38)          115.6990         0.443535   
    143. A(C  18,N  28,O  29)          126.1818         0.464583   
    144. A(C   6,O  38,N  28)          103.7953         0.302281   
    145. L(C  18,C  41,C  42,C  19, 2) 179.7959         0.489278   
    146. L(C  18,C  41,C  42,C  19, 1) 176.9127         0.489278   
    147. L(C  41,C  42,H  43,C  18, 2) 184.7291         0.402763   
    148. L(C  41,C  42,H  43,C  18, 1) 180.5992         0.402763   
    149. D(H  40,C   1,C   0,H  11)     -0.1187         0.028056   
    150. D(H  40,C   1,C   0,C   5)    179.8705         0.028056   
    151. D(C   2,C   1,C   0,H  11)    179.5155         0.028056   
    152. D(C   2,C   1,C   0,C   5)     -0.4953         0.028056   
    153. D(H  12,C   2,C   1,C   0)   -179.6663         0.028620   
    154. D(H  12,C   2,C   1,H  40)     -0.0252         0.028620   
    155. D(N   3,C   2,C   1,C   0)      0.3357         0.028620   
    156. D(N   3,C   2,C   1,H  40)    179.9768         0.028620   
    157. D(C  19,N   3,C   2,C   1)   -142.6608         0.054004   
    158. D(C  19,N   3,C   2,H  12)     37.3411         0.054004   
    159. D(C   7,N   3,C   2,H  12)    -24.6546         0.054004   
    160. D(C   4,N   3,C   2,C   1)      0.0962         0.054004   
    161. D(C   4,N   3,C   2,H  12)   -179.9019         0.054004   
    162. D(C   7,N   3,C   2,C   1)    155.3435         0.054004   
    163. D(C   6,N   3,C   2,H  12)      4.1131         0.054004   
    164. D(C   6,N   3,C   2,C   1)   -175.8888         0.054004   
    165. D(C   5,C   4,N   3,C  19)    136.3378         0.056689   
    166. D(H  13,C   4,N   3,C   2)   -179.7072         0.056689   
    167. D(H  13,C   4,N   3,C   6)     -3.3755         0.056689   
    168. D(C   5,C   4,N   3,C   7)   -145.5809         0.056689   
    169. D(C   5,C   4,N   3,C   6)    175.9658         0.056689   
    170. D(H  13,C   4,N   3,C  19)    -43.0035         0.056689   
    171. D(H  13,C   4,N   3,C   7)     35.0778         0.056689   
    172. D(C   5,C   4,N   3,C   2)     -0.3658         0.056689   
    173. D(H  14,C   5,C   0,H  11)      0.0128         0.027728   
    174. D(C   4,C   5,C   0,H  11)   -179.7678         0.027728   
    175. D(C   4,C   5,C   0,C   1)      0.2430         0.027728   
    176. D(C   0,C   5,C   4,N   3)      0.1919         0.031484   
    177. D(C   0,C   5,C   4,H  13)    179.5026         0.031484   
    178. D(H  14,C   5,C   0,C   1)   -179.9764         0.027728   
    179. D(H  14,C   5,C   4,N   3)   -179.5927         0.031484   
    180. D(H  14,C   5,C   4,H  13)     -0.2819         0.031484   
    181. D(O  38,C   6,N   3,C  19)    164.5235         0.001773   
    182. D(O  38,C   6,N   3,C   7)    -75.6699         0.001773   
    183. D(O  38,C   6,N   3,C   4)     54.6167         0.001773   
    184. D(C  19,C   6,N   3,C   7)    119.8066         0.001773   
    185. D(C  19,C   6,N   3,C   4)   -109.9068         0.001773   
    186. D(C  19,C   6,N   3,C   2)     66.2590         0.001773   
    187. D(H  15,C   6,N   3,C  19)    121.2447         0.001773   
    188. D(H  15,C   6,N   3,C   7)   -118.9487         0.001773   
    189. D(H  15,C   6,N   3,C   4)     11.3379         0.001773   
    190. D(O  38,C   6,N   3,C   2)   -129.2175         0.001773   
    191. D(H  15,C   6,N   3,C   2)   -172.4963         0.001773   
    192. D(C   7,C   6,N   3,C   4)    130.2866         0.001773   
    193. D(C   7,C   6,N   3,C  19)   -119.8066         0.001773   
    194. D(C   7,C   6,N   3,C   2)    -53.5476         0.001773   
    195. D(O   9,C   7,C   6,H  15)      0.2593         0.015529   
    196. D(O   8,C   7,C   6,N   3)     92.9585         0.015529   
    197. D(O   8,C   7,C   6,O  38)    -96.5000         0.015529   
    198. D(O   8,C   7,C   6,H  15)    179.2775         0.015529   
    199. D(O   9,C   7,N   3,C  19)    144.6185         0.001507   
    200. D(O   9,C   7,N   3,C   6)    109.5783         0.001507   
    201. D(O   8,C   7,N   3,C   6)   -116.3118         0.001507   
    202. D(C   6,C   7,N   3,C  19)     35.0402         0.001507   
    203. D(C   6,C   7,N   3,C   4)    -72.3230         0.001507   
    204. D(C   6,C   7,N   3,C   2)    137.6412         0.001507   
    205. D(O   8,C   7,N   3,C   4)    171.3652         0.001507   
    206. D(O   8,C   7,C   6,C  19)     -3.0380         0.015529   
    207. D(O   9,C   7,N   3,C   2)   -112.7805         0.001507   
    208. D(O   8,C   7,N   3,C  19)    -81.2716         0.001507   
    209. D(O   8,C   7,N   3,C   2)     21.3294         0.001507   
    210. D(O   9,C   7,C   6,C  19)    177.9438         0.015529   
    211. D(O   9,C   7,N   3,C   4)     37.2553         0.001507   
    212. D(N   3,C   7,C   6,O  38)    170.5415         0.015529   
    213. D(N   3,C   7,C   6,C  19)    -95.9966         0.015529   
    214. D(N   3,C   7,C   6,H  15)     86.3189         0.015529   
    215. D(O   9,C   7,C   6,N   3)    -86.0596         0.015529   
    216. D(O   9,C   7,C   6,O  38)     84.4818         0.015529   
    217. D(C  10,O   9,C   7,N   3)    126.4216         0.043213   
    218. D(C  10,O   9,C   7,O   8)      1.2226         0.043213   
    219. D(C  10,O   9,C   7,C   6)   -179.7804         0.043213   
    220. D(H  39,C  10,O   9,C   7)   -179.7649         0.018193   
    221. D(H  17,C  10,O   9,C   7)    -60.3708         0.018193   
    222. D(H  16,C  10,O   9,C   7)     60.8880         0.018193   
    223. D(N   3,C  19,C  18,C  41)    156.0923         0.013878   
    224. D(H  30,C  19,C  18,C  41)     55.5830         0.013878   
    225. D(H  30,C  19,C  18,N  28)   -125.8591         0.013878   
    226. D(C  20,C  19,C  18,C  41)    -64.2106         0.013878   
    227. D(C   6,C  19,C  18,C  41)    171.7638         0.013878   
    228. D(C   6,C  19,C  18,N  28)     -9.6783         0.013878   
    229. D(N   3,C  19,C   6,O  38)   -177.4018         0.013813   
    230. D(N   3,C  19,C   6,C   7)     93.8268         0.013813   
    231. D(H  30,C  19,C   6,N   3)    -55.8970         0.013813   
    232. D(H  30,C  19,C   6,O  38)    126.7012         0.013813   
    233. D(H  30,C  19,C   6,H  15)   -144.4443         0.013813   
    234. D(H  30,C  19,C   6,C   7)     37.9298         0.013813   
    235. D(C  20,C  19,C   6,N   3)     63.4989         0.013813   
    236. D(C  20,C  19,C   6,O  38)   -113.9029         0.013813   
    237. D(C  20,C  19,C   6,C   7)    157.3257         0.013813   
    238. D(C  18,C  19,C   6,N   3)   -172.2960         0.013813   
    239. D(C  18,C  19,C   6,O  38)     10.3022         0.013813   
    240. D(C  18,C  19,C   6,H  15)     99.1567         0.013813   
    241. D(C  18,C  19,C   6,C   7)    -78.4692         0.013813   
    242. D(C  20,C  19,C   6,H  15)    -25.0484         0.013813   
    243. D(H  30,C  19,N   3,C   7)     90.0145         0.001504   
    244. D(H  30,C  19,N   3,C   6)    125.9977         0.001504   
    245. D(H  30,C  19,N   3,C   4)   -144.3446         0.001504   
    246. D(H  30,C  19,N   3,C   2)     -2.2752         0.001504   
    247. D(C  20,C  19,N   3,C   7)   -159.5226         0.001504   
    248. D(C  20,C  19,N   3,C   6)   -123.5394         0.001504   
    249. D(C  20,C  19,N   3,C   4)    -33.8817         0.001504   
    250. D(N   3,C  19,C   6,H  15)    -88.5473         0.013813   
    251. D(C  20,C  19,N   3,C   2)    108.1877         0.001504   
    252. D(C  18,C  19,N   3,C   7)    -16.4755         0.001504   
    253. D(C  18,C  19,N   3,C   6)     19.5077         0.001504   
    254. D(C  20,C  19,C  18,N  28)    114.3474         0.013878   
    255. D(C  18,C  19,N   3,C   4)    109.1653         0.001504   
    256. D(C  18,C  19,N   3,C   2)   -108.7652         0.001504   
    257. D(C   6,C  19,N   3,C   7)    -35.9832         0.001504   
    258. D(N   3,C  19,C  18,N  28)    -25.3498         0.013878   
    259. D(C   6,C  19,N   3,C   4)     89.6576         0.001504   
    260. D(C   6,C  19,N   3,C   2)   -128.2729         0.001504   
    261. D(C  25,C  20,C  19,N   3)    -74.1176         0.012670   
    262. D(C  25,C  20,C  19,H  30)      0.9781         0.012670   
    263. D(C  25,C  20,C  19,C  18)    120.1767         0.012670   
    264. D(C  25,C  20,C  19,C   6)   -117.6161         0.012670   
    265. D(C  21,C  20,C  19,N   3)    105.1418         0.012670   
    266. D(C  21,C  20,C  19,H  30)   -179.7625         0.012670   
    267. D(C  21,C  20,C  19,C  18)    -60.5639         0.012670   
    268. D(C  21,C  20,C  19,C   6)     61.6433         0.012670   
    269. D(H  31,C  21,C  20,C  25)   -179.2719         0.027795   
    270. D(H  31,C  21,C  20,C  19)      1.4572         0.027795   
    271. D(C  22,C  21,C  20,C  25)      1.1482         0.027795   
    272. D(C  22,C  21,C  20,C  19)   -178.1228         0.027795   
    273. D(H  32,C  22,C  21,C  20)    179.6447         0.027669   
    274. D(C  23,C  22,C  21,H  31)   -179.8965         0.027669   
    275. D(C  23,C  22,C  21,C  20)     -0.3204         0.027669   
    276. D(H  32,C  22,C  21,H  31)      0.0685         0.027669   
    277. D(H  33,C  23,C  22,H  32)     -0.1060         0.027917   
    278. D(H  33,C  23,C  22,C  21)    179.8590         0.027917   
    279. D(C  24,C  23,C  22,H  32)    179.6563         0.027917   
    280. D(C  24,C  23,C  22,C  21)     -0.3787         0.027917   
    281. D(H  34,C  24,C  23,H  33)      0.0803         0.027554   
    282. D(H  34,C  24,C  23,C  22)   -179.6846         0.027554   
    283. D(C  25,C  24,C  23,H  33)    179.9921         0.027554   
    284. D(C  25,C  24,C  23,C  22)      0.2272         0.027554   
    285. D(O  26,C  25,C  24,H  34)      0.2518         0.026543   
    286. D(O  26,C  25,C  24,C  23)   -179.6593         0.026543   
    287. D(C  20,C  25,C  24,H  34)   -179.4742         0.026543   
    288. D(C  20,C  25,C  24,C  23)      0.6147         0.026543   
    289. D(O  26,C  25,C  20,C  21)    178.9694         0.024947   
    290. D(O  26,C  25,C  20,C  19)     -1.7605         0.024947   
    291. D(C  24,C  25,C  20,C  21)     -1.2861         0.024947   
    292. D(C  24,C  25,C  20,C  19)    177.9841         0.024947   
    293. D(C  27,O  26,C  25,C  24)     -5.3833         0.030974   
    294. D(C  27,O  26,C  25,C  20)    174.3513         0.030974   
    295. D(H  37,C  27,O  26,C  25)   -177.1514         0.020771   
    296. D(H  36,C  27,O  26,C  25)    -58.3458         0.020771   
    297. D(H  35,C  27,O  26,C  25)     63.9093         0.020771   
    298. D(O  38,N  28,C  18,C  41)    179.9875         0.044115   
    299. D(O  38,N  28,C  18,C  19)      1.3959         0.044115   
    300. D(O  29,N  28,C  18,C  41)     -0.0199         0.044115   
    301. D(O  29,N  28,C  18,C  19)   -178.6115         0.044115   
    302. D(C   6,O  38,N  28,O  29)   -174.3927         0.038654   
    303. D(C   6,O  38,N  28,C  18)      5.6006         0.038654   
    304. D(N  28,O  38,C   6,N   3)   -174.5649         0.001877   
    305. D(N  28,O  38,C   6,C  19)    -10.0402         0.001877   
    306. D(N  28,O  38,C   6,H  15)   -131.3029         0.001877   
    307. D(N  28,O  38,C   6,C   7)    109.4049         0.001877   
    -----------------------------------------------------------------

Number of atoms                         .... 44
Number of degrees of freedom            .... 307

         *************************************************************
         *                GEOMETRY OPTIMIZATION CYCLE   1            *
         *************************************************************
---------------------------------
CARTESIAN COORDINATES (ANGSTROEM)
---------------------------------
  C     -2.959208    2.993536   -0.116145
  C     -2.152007    2.840736    0.999232
  C     -0.965805    2.142174    0.869287
  N     -0.586503    1.625891   -0.294514
  C     -1.348284    1.773377   -1.373495
  C     -2.549939    2.452725   -1.325759
  C      1.061291    0.495142   -0.551849
  C      1.912058    1.545840    0.078548
  O      2.184558    1.562362    1.254300
  O      2.300039    2.448112   -0.805175
  C      3.128282    3.501751   -0.301750
  H     -3.898397    3.528971   -0.044467
  H     -0.301390    1.989907    1.712102
  H     -0.987125    1.325139   -2.292762
  H     -3.149534    2.549143   -2.221421
  H      0.853596    0.556193   -1.606481
  H      4.051151    3.090817    0.107805
  H      2.599078    4.060537    0.470235
  C      1.664815   -1.649048    0.462508
  C      0.552742   -0.659377    0.287702
  C     -0.681424   -1.290964   -0.314845
  C     -0.629250   -1.877604   -1.570005
  C     -1.758020   -2.428732   -2.158252
  C     -2.960384   -2.395746   -1.469796
  C     -3.036526   -1.827384   -0.206248
  C     -1.898011   -1.279189    0.378522
  O     -1.888375   -0.714724    1.605089
  C     -3.118083   -0.572510    2.288696
  N      2.739845   -1.444302   -0.273205
  O      3.758970   -2.156550   -0.298146
  H      0.300785   -0.262893    1.271967
  H      0.317883   -1.895976   -2.100261
  H     -1.697429   -2.877380   -3.142326
  H     -3.854889   -2.818931   -1.912730
  H     -3.982427   -1.815308    0.318049
  H     -3.561856   -1.546287    2.513580
  H     -3.824541    0.025050    1.705408
  H     -2.886338   -0.055949    3.217814
  O      2.708316   -0.381971   -1.044129
  H      3.341256    4.139420   -1.155304
  H     -2.432169    3.248470    1.961684
  C      1.580955   -2.748326    1.323149
  C      1.447695   -3.679026    2.080148
  H      1.340943   -4.504054    2.748179

----------------------------
CARTESIAN COORDINATES (A.U.)
----------------------------
  NO LB      ZA    FRAG     MASS         X           Y           Z
   0 C     6.0000    0    12.011   -5.592093    5.656963   -0.219482
   1 C     6.0000    0    12.011   -4.066704    5.368213    1.888275
   2 C     6.0000    0    12.011   -1.825107    4.048122    1.642714
   3 N     7.0000    0    14.007   -1.108330    3.072489   -0.556551
   4 C     6.0000    0    12.011   -2.547888    3.351197   -2.595529
   5 C     6.0000    0    12.011   -4.818686    4.634979   -2.505321
   6 C     6.0000    0    12.011    2.005549    0.935683   -1.042843
   7 C     6.0000    0    12.011    3.613266    2.921214    0.148434
   8 O     8.0000    0    15.999    4.128216    2.952436    2.370283
   9 O     8.0000    0    15.999    4.346444    4.626261   -1.521560
  10 C     6.0000    0    12.011    5.911596    6.617350   -0.570225
  11 H     1.0000    0     1.008   -7.366903    6.668789   -0.084030
  12 H     1.0000    0     1.008   -0.569545    3.760379    3.235404
  13 H     1.0000    0     1.008   -1.865396    2.504150   -4.332692
  14 H     1.0000    0     1.008   -5.951757    4.817182   -4.197877
  15 H     1.0000    0     1.008    1.613063    1.051052   -3.035809
  16 H     1.0000    0     1.008    7.655566    5.840798    0.203722
  17 H     1.0000    0     1.008    4.911546    7.673303    0.888615
  18 C     6.0000    0    12.011    3.146044   -3.116249    0.874013
  19 C     6.0000    0    12.011    1.044531   -1.246042    0.543678
  20 C     6.0000    0    12.011   -1.287705   -2.439568   -0.594971
  21 C     6.0000    0    12.011   -1.189110   -3.548157   -2.966879
  22 C     6.0000    0    12.011   -3.322176   -4.589638   -4.078505
  23 C     6.0000    0    12.011   -5.594315   -4.527304   -2.777512
  24 C     6.0000    0    12.011   -5.738203   -3.453255   -0.389752
  25 C     6.0000    0    12.011   -3.586721   -2.417317    0.715303
  26 O     8.0000    0    15.999   -3.568512   -1.350633    3.033179
  27 C     6.0000    0    12.011   -5.892323   -1.081887    4.325009
  28 N     7.0000    0    14.007    5.177557   -2.729335   -0.516283
  29 O     8.0000    0    15.999    7.103424   -4.075289   -0.563414
  30 H     1.0000    0     1.008    0.568401   -0.496796    2.403669
  31 H     1.0000    0     1.008    0.600712   -3.582875   -3.968918
  32 H     1.0000    0     1.008   -3.207676   -5.437460   -5.938136
  33 H     1.0000    0     1.008   -7.284684   -5.327008   -3.614536
  34 H     1.0000    0     1.008   -7.525696   -3.430435    0.601026
  35 H     1.0000    0     1.008   -6.730932   -2.922059    4.749978
  36 H     1.0000    0     1.008   -7.227335    0.047338    3.222754
  37 H     1.0000    0     1.008   -5.454388   -0.105728    6.080787
  38 O     8.0000    0    15.999    5.117976   -0.721821   -1.973118
  39 H     1.0000    0     1.008    6.314059    7.822370   -2.183208
  40 H     1.0000    0     1.008   -4.596133    6.138719    3.707046
  41 C     6.0000    0    12.011    2.987572   -5.193583    2.500389
  42 C     6.0000    0    12.011    2.735747   -6.952352    3.930910
  43 H     1.0000    0     1.008    2.534015   -8.511429    5.193306

--------------------------------
INTERNAL COORDINATES (ANGSTROEM)
--------------------------------
 C      0   0   0     0.000000000000     0.00000000     0.00000000
 C      1   0   0     1.385275115827     0.00000000     0.00000000
 C      2   1   0     1.382732713026   118.68140404     0.00000000
 N      3   2   1     1.328476913948   121.57400124     0.33567991
 C      4   3   2     1.329008055099   120.29464633     0.09622096
 C      5   4   3     1.381219450278   121.68177112   359.63415624
 C      4   3   2     2.014954011798   124.29551871   184.11122523
 C      7   4   3     1.491700758565    90.98347026   306.45239786
 O      8   7   4     1.207030236567   123.37058771    92.95853691
 O      8   7   4     1.321207916671   111.45884572   273.94037511
 C     10   8   7     1.431634848694   115.93092422   180.21957870
 H      1   2   3     1.083468667120   120.42096317   179.51551101
 H      3   2   1     1.083960172580   121.58269622   180.33368888
 H      5   4   3     1.084622028734   116.83169511   180.29283933
 H      6   5   4     1.082137243141   119.81947447   180.40732924
 H      7   4   3     1.076621146481    86.30302903   187.50367277
 H     11  10   8     1.090086804590   110.14873768    60.88798095
 H     11  10   8     1.090073166185   110.20852748   299.62921722
 C      7   4   3     2.447593123484   129.81677637    60.44441185
 C     19   7   4     1.498903660415    35.93417774    10.01673776
 C     20  19   7     1.511664890554   112.10775605   124.02564304
 C     21  20  19     1.386468622608   120.45807378   299.43607756
 C     22  21  20     1.387046617203   121.42840086   181.87722674
 C     23  22  21     1.385907258307   119.07065080   359.67959216
 C     24  23  22     1.387582976082   120.64423809   359.62128135
 C     25  24  23     1.392368527420   119.92318473     0.22716512
 O     26  25  24     1.350251900280   123.49996500   180.34074766
 C     27  26  25     1.414116373397   118.35743431   354.61670359
 N     19   7   4     1.318667525870    80.43191711   181.19706384
 O     29  19   7     1.243597616840   126.18181967   175.64633596
 H     20  19   7     1.090623437457   107.82929249   243.81919225
 H     22  21  20     1.085619581441   118.82714434     1.45715055
 H     23  22  21     1.083216476361   120.28715897   179.64465175
 H     24  23  22     1.084165701176   120.23559726   179.85895945
 H     25  24  23     1.081555304081   119.60345237   180.31536825
 H     28  27  26     1.093503056564   111.27012236    63.90927107
 H     28  27  26     1.093794199248   111.02667582   301.65421789
 H     28  27  26     1.088026318464   105.98220406   182.84856248
 O     29  19   7     1.312960412647   115.69900742   355.65374831
 H     11  10   8     1.086523864972   105.60996210   180.23508889
 H      2   1   3     1.082151381880   121.57992552   180.36576580
 C     19   7   4     1.398623448883   158.24498469   351.12671660
 C     42  19   7     1.207065948323   176.91087167    15.15156133
 H     43  42  19     1.066926711283   179.39089747   188.24033728

---------------------------
INTERNAL COORDINATES (A.U.)
---------------------------
 C      0   0   0     0.000000000000     0.00000000     0.00000000
 C      1   0   0     2.617790589049     0.00000000     0.00000000
 C      2   1   0     2.612986144034   118.68140404     0.00000000
 N      3   2   1     2.510457542599   121.57400124     0.33567991
 C      4   3   2     2.511461253912   120.29464633     0.09622096
 C      5   4   3     2.610126491870   121.68177112   359.63415624
 C      4   3   2     3.807711254745   124.29551871   184.11122523
 C      7   4   3     2.818905907450    90.98347026   306.45239786
 O      8   7   4     2.280956582475   123.37058771    92.95853691
 O      8   7   4     2.496721128477   111.45884572   273.94037511
 C     10   8   7     2.705397787809   115.93092422   180.21957870
 H      1   2   3     2.047459055541   120.42096317   179.51551101
 H      3   2   1     2.048387866254   121.58269622   180.33368888
 H      5   4   3     2.049638593124   116.83169511   180.29283933
 H      6   5   4     2.044943028853   119.81947447   180.40732924
 H      7   4   3     2.034519116837    86.30302903   187.50367277
 H     11  10   8     2.059965522877   110.14873768    60.88798095
 H     11  10   8     2.059939750026   110.20852748   299.62921722
 C      7   4   3     4.625280690653   129.81677637    60.44441185
 C     19   7   4     2.832517419317    35.93417774    10.01673776
 C     20  19   7     2.856632649411   112.10775605   124.02564304
 C     21  20  19     2.620045990004   120.45807378   299.43607756
 C     22  21  20     2.621138241495   121.42840086   181.87722674
 C     23  22  21     2.618985165214   119.07065080   359.67959216
 C     24  23  22     2.622151812886   120.64423809   359.62128135
 C     25  24  23     2.631195194315   119.92318473     0.22716512
 O     26  25  24     2.551606303336   123.49996500   180.34074766
 C     27  26  25     2.672292667214   118.35743431   354.61670359
 N     19   7   4     2.491920485590    80.43191711   181.19706384
 O     29  19   7     2.350058916625   126.18181967   175.64633596
 H     20  19   7     2.060979612029   107.82929249   243.81919225
 H     22  21  20     2.051523694546   118.82714434     1.45715055
 H     23  22  21     2.046982484074   120.28715897   179.64465175
 H     24  23  22     2.048776259013   120.23559726   179.85895945
 H     25  24  23     2.043843323403   119.60345237   180.31536825
 H     28  27  26     2.066421303511   111.27012236    63.90927107
 H     28  27  26     2.066971483450   111.02667582   301.65421789
 H     28  27  26     2.056071768395   105.98220406   182.84856248
 O     29  19   7     2.481135604583   115.69900742   355.65374831
 H     11  10   8     2.053232542766   105.60996210   180.23508889
 H      2   1   3     2.044969747197   121.57992552   180.36576580
 C     19   7   4     2.643015282869   158.24498469   351.12671660
 C     42  19   7     2.281024067912   176.91087167    15.15156133
 H     43  42  19     2.016199289290   179.39089747   188.24033728

---------------------
BASIS SET INFORMATION
---------------------
There are 4 groups of distinct atoms

 Group   1 Type C   : 11s6p2d1f contracted to 5s3p2d1f pattern {62111/411/11/1}
 Group   2 Type N   : 11s6p2d1f contracted to 5s3p2d1f pattern {62111/411/11/1}
 Group   3 Type O   : 11s6p2d1f contracted to 5s3p2d1f pattern {62111/411/11/1}
 Group   4 Type H   : 5s1p contracted to 3s1p pattern {311/1}

Atom   0C    basis set group =>   1
Atom   1C    basis set group =>   1
Atom   2C    basis set group =>   1
Atom   3N    basis set group =>   2
Atom   4C    basis set group =>   1
Atom   5C    basis set group =>   1
Atom   6C    basis set group =>   1
Atom   7C    basis set group =>   1
Atom   8O    basis set group =>   3
Atom   9O    basis set group =>   3
Atom  10C    basis set group =>   1
Atom  11H    basis set group =>   4
Atom  12H    basis set group =>   4
Atom  13H    basis set group =>   4
Atom  14H    basis set group =>   4
Atom  15H    basis set group =>   4
Atom  16H    basis set group =>   4
Atom  17H    basis set group =>   4
Atom  18C    basis set group =>   1
Atom  19C    basis set group =>   1
Atom  20C    basis set group =>   1
Atom  21C    basis set group =>   1
Atom  22C    basis set group =>   1
Atom  23C    basis set group =>   1
Atom  24C    basis set group =>   1
Atom  25C    basis set group =>   1
Atom  26O    basis set group =>   3
Atom  27C    basis set group =>   1
Atom  28N    basis set group =>   2
Atom  29O    basis set group =>   3
Atom  30H    basis set group =>   4
Atom  31H    basis set group =>   4
Atom  32H    basis set group =>   4
Atom  33H    basis set group =>   4
Atom  34H    basis set group =>   4
Atom  35H    basis set group =>   4
Atom  36H    basis set group =>   4
Atom  37H    basis set group =>   4
Atom  38O    basis set group =>   3
Atom  39H    basis set group =>   4
Atom  40H    basis set group =>   4
Atom  41C    basis set group =>   1
Atom  42C    basis set group =>   1
Atom  43H    basis set group =>   4
---------------------------------
AUXILIARY/J BASIS SET INFORMATION
---------------------------------
There are 4 groups of distinct atoms

 Group   1 Type C   : 12s5p4d2f1g contracted to 6s4p3d1f1g pattern {711111/2111/211/2/1}
 Group   2 Type N   : 12s5p4d2f1g contracted to 6s4p3d1f1g pattern {711111/2111/211/2/1}
 Group   3 Type O   : 12s5p4d2f1g contracted to 6s4p3d1f1g pattern {711111/2111/211/2/1}
 Group   4 Type H   : 5s2p1d contracted to 3s1p1d pattern {311/2/1}

Atom   0C    basis set group =>   1
Atom   1C    basis set group =>   1
Atom   2C    basis set group =>   1
Atom   3N    basis set group =>   2
Atom   4C    basis set group =>   1
Atom   5C    basis set group =>   1
Atom   6C    basis set group =>   1
Atom   7C    basis set group =>   1
Atom   8O    basis set group =>   3
Atom   9O    basis set group =>   3
Atom  10C    basis set group =>   1
Atom  11H    basis set group =>   4
Atom  12H    basis set group =>   4
Atom  13H    basis set group =>   4
Atom  14H    basis set group =>   4
Atom  15H    basis set group =>   4
Atom  16H    basis set group =>   4
Atom  17H    basis set group =>   4
Atom  18C    basis set group =>   1
Atom  19C    basis set group =>   1
Atom  20C    basis set group =>   1
Atom  21C    basis set group =>   1
Atom  22C    basis set group =>   1
Atom  23C    basis set group =>   1
Atom  24C    basis set group =>   1
Atom  25C    basis set group =>   1
Atom  26O    basis set group =>   3
Atom  27C    basis set group =>   1
Atom  28N    basis set group =>   2
Atom  29O    basis set group =>   3
Atom  30H    basis set group =>   4
Atom  31H    basis set group =>   4
Atom  32H    basis set group =>   4
Atom  33H    basis set group =>   4
Atom  34H    basis set group =>   4
Atom  35H    basis set group =>   4
Atom  36H    basis set group =>   4
Atom  37H    basis set group =>   4
Atom  38O    basis set group =>   3
Atom  39H    basis set group =>   4
Atom  40H    basis set group =>   4
Atom  41C    basis set group =>   1
Atom  42C    basis set group =>   1
Atom  43H    basis set group =>   4


           ************************************************************
           *        Program running with 24 parallel MPI-processes    *
           *              working on a common directory               *
           ************************************************************
------------------------------------------------------------------------------
                           ORCA GTO INTEGRAL CALCULATION
                           -- RI-GTO INTEGRALS CHOSEN --
------------------------------------------------------------------------------
------------------------------------------------------------------------------
                   ___                                                        
                  /   \      - P O W E R E D   B Y -                         
                 /     \                                                     
                 |  |  |   _    _      __       _____    __    __             
                 |  |  |  | |  | |    /  \     |  _  \  |  |  /  |          
                  \  \/   | |  | |   /    \    | | | |  |  | /  /          
                 / \  \   | |__| |  /  /\  \   | |_| |  |  |/  /          
                |  |  |   |  __  | /  /__\  \  |    /   |      \           
                |  |  |   | |  | | |   __   |  |    \   |  |\   \          
                \     /   | |  | | |  |  |  |  | |\  \  |  | \   \       
                 \___/    |_|  |_| |__|  |__|  |_| \__\ |__|  \__/        
                                                                              
                      - O R C A' S   B I G   F R I E N D -                    
                                      &                                       
                       - I N T E G R A L  F E E D E R -                       
                                                                              
 v1 FN, 2020, v2 2021                                                         
------------------------------------------------------------------------------


Reading SHARK input file TS2_CCH/TS2_CCH.SHARKINP.tmp ... ok
----------------------
SHARK INTEGRAL PACKAGE
----------------------

Number of atoms                             ...     44
Number of basis functions                   ...    914
Number of shells                            ...    358
Maximum angular momentum                    ...      3
Integral batch strategy                     ... SHARK/LIBINT Hybrid
RI-J (if used) integral strategy            ... SPLIT-RIJ (Revised 2003 algorithm where possible)
Printlevel                                  ...      1
Contraction scheme used                     ... SEGMENTED contraction
Coulomb Range Separation                    ... NOT USED
Exchange Range Separation                   ... NOT USED
Finite Nucleus Model                        ... NOT USED
Auxiliary Coulomb fitting basis             ... AVAILABLE
   # of basis functions in Aux-J            ...   1472
   # of shells in Aux-J                     ...    480
   Maximum angular momentum in Aux-J        ...      4
Auxiliary J/K fitting basis                 ... NOT available
Auxiliary Correlation fitting basis         ... NOT available
Auxiliary 'external' fitting basis          ... NOT available
Integral threshold                          ...     2.500000e-11
Primitive cut-off                           ...     2.500000e-12
Primitive pair pre-selection threshold      ...     2.500000e-12

Calculating pre-screening integrals         ... done (  0.1 sec) Dimension = 358
Organizing shell pair data                  ... done (  1.4 sec)
Shell pair information
Total number of shell pairs                 ...     64261
Shell pairs after pre-screening             ...     46608
Total number of primitive shell pairs       ...    198132
Primitive shell pairs kept                  ...     93363
          la=0 lb=0:  11765 shell pairs
          la=1 lb=0:  13358 shell pairs
          la=1 lb=1:   3799 shell pairs
          la=2 lb=0:   6711 shell pairs
          la=2 lb=1:   3881 shell pairs
          la=2 lb=2:   1003 shell pairs
          la=3 lb=0:   3101 shell pairs
          la=3 lb=1:   1837 shell pairs
          la=3 lb=2:    920 shell pairs
          la=3 lb=3:    233 shell pairs

Calculating one electron integrals          ... done (  0.2 sec)
Calculating RI/J V-Matrix + Cholesky decomp.... done (  0.2 sec)
Calculating Nuclear repulsion               ... done (  0.0 sec) ENN=   2455.144541876949 Eh

SHARK setup successfully completed in   2.7 seconds

Maximum memory used throughout the entire GTOINT-calculation: 70.1 MB


           ************************************************************
           *        Program running with 24 parallel MPI-processes    *
           *              working on a common directory               *
           ************************************************************
-------------------------------------------------------------------------------
                                 ORCA SCF
-------------------------------------------------------------------------------

------------
SCF SETTINGS
------------
Hamiltonian:
 Density Functional     Method          .... DFT(GTOs)
 Exchange Functional    Exchange        .... PBE
   PBE kappa parameter   XKappa         ....  0.804000
   PBE mue parameter    XMuePBE         ....  0.219520
 Correlation Functional Correlation     .... PBE
   PBE beta parameter  CBetaPBE         ....  0.066725
 LDA part of GGA corr.  LDAOpt          .... PW91-LDA
 Gradients option       PostSCFGGA      .... off
 Hybrid DFT is turned on
   Fraction HF Exchange ScalHFX         ....  0.250000
   Scaling of DF-GGA-X  ScalDFX         ....  0.750000
   Scaling of DF-GGA-C  ScalDFC         ....  1.000000
   Scaling of DF-LDA-C  ScalLDAC        ....  1.000000
   Perturbative correction              ....  0.000000
   Density functional embedding theory  .... OFF
   NL short-range parameter             ....  6.900000
 RI-approximation to the Coulomb term is turned on
   Number of AuxJ basis functions       .... 1472
   RIJ-COSX (HFX calculated with COS-X)).... on


General Settings:
 Integral files         IntName         .... TS2_CCH/TS2_CCH
 Hartree-Fock type      HFTyp           .... RHF
 Total Charge           Charge          ....    0
 Multiplicity           Mult            ....    1
 Number of Electrons    NEL             ....  186
 Basis Dimension        Dim             ....  914
 Nuclear Repulsion      ENuc            ....   2455.1445418769 Eh

Convergence Acceleration:
 DIIS                   CNVDIIS         .... on
   Start iteration      DIISMaxIt       ....    12
   Startup error        DIISStart       ....  0.200000
   # of expansion vecs  DIISMaxEq       ....     5
   Bias factor          DIISBfac        ....   1.050
   Max. coefficient     DIISMaxC        ....  10.000
 Trust-Rad. Augm. Hess. CNVTRAH         .... auto
   Auto Start mean grad. ratio tolernc. ....  1.125000
   Auto Start start iteration           ....    20
   Auto Start num. interpolation iter.  ....    10
   Max. Number of Micro iterations      ....    16
   Max. Number of Macro iterations      .... Maxiter - #DIIS iter
   Number of Davidson start vectors     ....     2
   Converg. threshold I  (grad. norm)   ....   1.000e-05
   Converg. threshold II (energy diff.) ....   1.000e-08
   Grad. Scal. Fac. for Micro threshold ....   0.100
   Minimum threshold for Micro iter.    ....   0.010
   NR start threshold (gradient norm)   ....   0.001
   Initial trust radius                 ....   0.400
   Minimum AH scaling param. (alpha)    ....   1.000
   Maximum AH scaling param. (alpha)    .... 1000.000
   Orbital update algorithm             .... Taylor
   White noise on init. David. guess    .... on
   Maximum white noise                  ....   0.010
   Quad. conv. algorithm                .... NR
 SOSCF                  CNVSOSCF        .... on
   Start iteration      SOSCFMaxIt      ....   150
   Startup grad/error   SOSCFStart      ....  0.003300
 Level Shifting         CNVShift        .... on
   Level shift para.    LevelShift      ....    0.2500
   Turn off err/grad.   ShiftErr        ....    0.0010
 Zerner damping         CNVZerner       .... off
 Static damping         CNVDamp         .... on
   Fraction old density DampFac         ....    0.7000
   Max. Damping (<1)    DampMax         ....    0.9800
   Min. Damping (>=0)   DampMin         ....    0.0000
   Turn off err/grad.   DampErr         ....    0.1000
 Fernandez-Rico         CNVRico         .... off

SCF Procedure:
 Maximum # iterations   MaxIter         ....   800
 SCF integral mode      SCFMode         .... Direct
   Integral package                     .... SHARK and LIBINT hybrid scheme
 Reset frequency        DirectResetFreq ....    20
 Integral Threshold     Thresh          ....  2.500e-11 Eh
 Primitive CutOff       TCut            ....  2.500e-12 Eh

Convergence Tolerance:
 Convergence Check Mode ConvCheckMode   .... Total+1el-Energy
 Convergence forced     ConvForced      .... 0
 Energy Change          TolE            ....  1.000e-08 Eh
 1-El. energy change                    ....  1.000e-05 Eh
 Orbital Gradient       TolG            ....  1.000e-05
 Orbital Rotation angle TolX            ....  1.000e-05
 DIIS Error             TolErr          ....  5.000e-07


Diagonalization of the overlap matrix:
Smallest eigenvalue                        ... 5.630e-06
Time for diagonalization                   ...    0.267 sec
Threshold for overlap eigenvalues          ... 1.000e-08
Number of eigenvalues below threshold      ... 0
Time for construction of square roots      ...    0.146 sec
Total time needed                          ...    0.419 sec

Time for model grid setup =    0.366 sec

------------------------------
INITIAL GUESS: MODEL POTENTIAL
------------------------------
Loading Hartree-Fock densities                     ... done
Calculating cut-offs                               ... done
Initializing the effective Hamiltonian             ... done
Setting up the integral package (SHARK)            ... done
Starting the Coulomb interaction                   ... done (   0.5 sec)
Reading the grid                                   ... done
Mapping shells                                     ... done
Starting the XC term evaluation                    ... done (   0.2 sec)
  promolecular density results
     # of electrons  =    185.991084187
     EX              =   -156.347554566
     EC              =     -6.271102264
     EX+EC           =   -162.618656830
Transforming the Hamiltonian                       ... done (   0.1 sec)
Diagonalizing the Hamiltonian                      ... done (   0.3 sec)
Back transforming the eigenvectors                 ... done (   0.1 sec)
Now organizing SCF variables                       ... done
                      ------------------
                      INITIAL GUESS DONE (   1.8 sec)
                      ------------------
-------------------
DFT GRID GENERATION
-------------------

General Integration Accuracy     IntAcc      ... 4.388
Radial Grid Type                 RadialGrid  ... OptM3 with GC (2021)
Angular Grid (max. ang.)         AngularGrid ... 4 (Lebedev-302)
Angular grid pruning method      GridPruning ... 4 (adaptive)
Weight generation scheme         WeightScheme... Becke
Basis function cutoff            BFCut       ... 1.0000e-11
Integration weight cutoff        WCut        ... 1.0000e-14
Angular grids for H and He will be reduced by one unit
Partially contracted basis set               ... off
Rotationally invariant grid construction     ... off

Total number of grid points                  ...   212286
Total number of batches                      ...     3342
Average number of points per batch           ...       63
Average number of grid points per atom       ...     4825
Time for grid setup =    1.456 sec

--------------------
COSX GRID GENERATION
--------------------

GRIDX 1
-------
General Integration Accuracy     IntAcc      ... 3.816
Radial Grid Type                 RadialGrid  ... OptM3 with GC (2021)
Angular Grid (max. ang.)         AngularGrid ... 1 (Lebedev-50)
Angular grid pruning method      GridPruning ... 4 (adaptive)
Weight generation scheme         WeightScheme... Becke
Basis function cutoff            BFCut       ... 1.0000e-11
Integration weight cutoff        WCut        ... 1.0000e-14
Angular grids for H and He will be reduced by one unit
Partially contracted basis set               ... on
Rotationally invariant grid construction     ... off

Total number of grid points                  ...    26927
Total number of batches                      ...      442
Average number of points per batch           ...       60
Average number of grid points per atom       ...      612
UseSFitting                                  ... on

GRIDX 2
-------
General Integration Accuracy     IntAcc      ... 4.020
Radial Grid Type                 RadialGrid  ... OptM3 with GC (2021)
Angular Grid (max. ang.)         AngularGrid ... 2 (Lebedev-110)
Angular grid pruning method      GridPruning ... 4 (adaptive)
Weight generation scheme         WeightScheme... Becke
Basis function cutoff            BFCut       ... 1.0000e-11
Integration weight cutoff        WCut        ... 1.0000e-14
Angular grids for H and He will be reduced by one unit
Partially contracted basis set               ... on
Rotationally invariant grid construction     ... off

Total number of grid points                  ...    58461
Total number of batches                      ...      939
Average number of points per batch           ...       62
Average number of grid points per atom       ...     1329
UseSFitting                                  ... on

GRIDX 3
-------
General Integration Accuracy     IntAcc      ... 4.338
Radial Grid Type                 RadialGrid  ... OptM3 with GC (2021)
Angular Grid (max. ang.)         AngularGrid ... 3 (Lebedev-194)
Angular grid pruning method      GridPruning ... 4 (adaptive)
Weight generation scheme         WeightScheme... Becke
Basis function cutoff            BFCut       ... 1.0000e-11
Integration weight cutoff        WCut        ... 1.0000e-14
Angular grids for H and He will be reduced by one unit
Partially contracted basis set               ... on
Rotationally invariant grid construction     ... off

Total number of grid points                  ...   127786
Total number of batches                      ...     2020
Average number of points per batch           ...       63
Average number of grid points per atom       ...     2904
UseSFitting                                  ... on

Time for X-Grid setup             =    2.730 sec


--------------------
CPCM SOLVATION MODEL
--------------------
CPCM parameters:
  Epsilon                                         ...      47.2000
  Refrac                                          ...       1.4790
  Rsolv                                           ...       1.3000
  Surface type                                    ... GAUSSIAN VDW
  Epsilon function type                           ...         CPCM
Radii:
 Radius for C  used is    3.8550 Bohr (=   2.0400 Ang.)
 Radius for N  used is    3.5149 Bohr (=   1.8600 Ang.)
 Radius for O  used is    3.4469 Bohr (=   1.8240 Ang.)
 Radius for H  used is    2.4944 Bohr (=   1.3200 Ang.)
Calculating surface                               ...        done! (  0.0s)
GEPOL surface points                              ...         2273
GEPOL Volume                                      ...    2770.6876
GEPOL Surface-area                                ...    1376.9736
Calculating surface distance matrix               ...        done! (  0.1s)
Performing Cholesky decomposition & store         ...        done! (  0.4s)
Overall time for CPCM initialization              ...                 0.4s
--------------
SCF ITERATIONS
--------------
ITER       Energy         Delta-E        Max-DP      RMS-DP      [F,P]     Damp
               ***  Starting incremental Fock matrix formation  ***
  0  -1218.7860368832   0.000000000000 0.30984307  0.00096008  0.2676850 0.7000
  1  -1219.0357776423  -0.249740759186 0.27890453  0.00087031  0.1079301 0.7000
                               ***Turning on DIIS***
  2  -1219.1388135976  -0.103035955278 0.35464325  0.00156178  0.0366327 0.0000
  3  -1219.3077977099  -0.168984112318 0.25674645  0.00067476  0.0522069 0.0000
  4  -1219.3377387626  -0.029941052610 0.05420595  0.00023882  0.0196027 0.0000
  5  -1219.3398331591  -0.002094396547 0.03777189  0.00010226  0.0061136 0.0000
                      *** Initiating the SOSCF procedure ***
                           *** Shutting down DIIS ***
                      *** Re-Reading the Fockian *** 
                      *** Removing any level shift *** 
ITER      Energy       Delta-E        Grad      Rot      Max-DP    RMS-DP
  6  -1219.33997646  -0.0001433014  0.000202  0.000202  0.008054  0.000026
               *** Restarting incremental Fock matrix formation ***
  7  -1219.33998697  -0.0000105057  0.000105  0.000581  0.002438  0.000029
  8  -1219.33998654   0.0000004224  0.000190  0.000396  0.001402  0.000009
  9  -1219.33998961  -0.0000030681  0.000039  0.000140  0.001288  0.000007
 10  -1219.33998940   0.0000002162  0.000050  0.000072  0.000725  0.000002
 11  -1219.33998973  -0.0000003391  0.000006  0.000023  0.000420  0.000002
 12  -1219.33998975  -0.0000000124  0.000011  0.000015  0.000455  0.000001
 13  -1219.33998974   0.0000000098  0.000004  0.000009  0.000154  0.000001
 14  -1219.33998972   0.0000000214  0.000004  0.000005  0.000180  0.000001
                  ***Gradient check signals convergence***
              ***Rediagonalizing the Fockian in SOSCF/NRSCF***

               *****************************************************
               *                     SUCCESS                       *
               *           SCF CONVERGED AFTER  15 CYCLES          *
               *****************************************************

Old exchange energy                            =    -39.805036161 Eh
New exchange energy                            =    -39.805007906 Eh
Exchange energy change after final integration =      0.000028255 Eh
Total energy after final integration           =  -1219.339961513 Eh
Final COS-X integration done in                =    19.021 sec

----------------
TOTAL SCF ENERGY
----------------

Total Energy       :        -1219.33996151 Eh          -33179.92719 eV

Components:
Nuclear Repulsion  :         2455.14454188 Eh           66807.87943 eV
Electronic Energy  :        -3674.48450339 Eh          -99987.80662 eV
One Electron Energy:        -6544.75462162 Eh         -178091.82727 eV
Two Electron Energy:         2870.27011823 Eh           78104.02065 eV
Max COSX asymmetry :            0.00000168 Eh               0.00005 eV
CPCM Dielectric    :           -0.05442746 Eh              -1.48105 eV

Virial components:
Potential Energy   :        -2433.37137044 Eh          -66215.40132 eV
Kinetic Energy     :         1214.03140893 Eh           33035.47413 eV
Virial Ratio       :            2.00437266


DFT components:
N(Alpha)           :       92.999964030111 electrons
N(Beta)            :       92.999964030111 electrons
N(Total)           :      185.999928060222 electrons
E(X)               :     -119.248270587876 Eh       
E(C)               :       -6.269805325019 Eh       
E(XC)              :     -125.518075912894 Eh       
DFET-embed. en.    :        0.000000000000 Eh       
CPCM Solvation Model Properties:
Surface-charge          :           -0.02973224
Charge-correction       :           -0.00038469 Eh              -0.01047 eV
Free-energy (cav+disp)  :  This term is not implemented in the current solvation scheme

---------------
SCF CONVERGENCE
---------------

  Last Energy change         ...   -5.1261e-08  Tolerance :   1.0000e-08
  Last MAX-Density change    ...    1.7764e-15  Tolerance :   1.0000e-07
  Last RMS-Density change    ...    1.3984e-17  Tolerance :   5.0000e-09
  Last Orbital Gradient      ...    6.8532e-07  Tolerance :   1.0000e-05
  Last Orbital Rotation      ...    2.1788e-06  Tolerance :   1.0000e-05

             **** THE GBW FILE WAS UPDATED (TS2_CCH/TS2_CCH.gbw) ****
             **** DENSITY TS2_CCH/TS2_CCH.scfp WAS UPDATED ****
             **** ENERGY FILE WAS UPDATED (TS2_CCH/TS2_CCH.en.tmp) ****
             **** THE GBW FILE WAS UPDATED (TS2_CCH/TS2_CCH.gbw) ****
             **** DENSITY TS2_CCH/TS2_CCH.scfp WAS UPDATED ****
----------------
ORBITAL ENERGIES
----------------

  NO   OCC          E(Eh)            E(eV) 
   0   2.0000     -19.267902      -524.3063 
   1   2.0000     -19.246319      -523.7190 
   2   2.0000     -19.226894      -523.1904 
   3   2.0000     -19.208560      -522.6915 
   4   2.0000     -19.198821      -522.4265 
   5   2.0000     -14.578086      -396.6899 
   6   2.0000     -14.442239      -392.9933 
   7   2.0000     -10.369379      -282.1651 
   8   2.0000     -10.329909      -281.0911 
   9   2.0000     -10.292320      -280.0683 
  10   2.0000     -10.285291      -279.8770 
  11   2.0000     -10.284909      -279.8666 
  12   2.0000     -10.276308      -279.6326 
  13   2.0000     -10.272208      -279.5210 
  14   2.0000     -10.267024      -279.3799 
  15   2.0000     -10.266425      -279.3636 
  16   2.0000     -10.260188      -279.1939 
  17   2.0000     -10.250716      -278.9362 
  18   2.0000     -10.250507      -278.9305 
  19   2.0000     -10.240774      -278.6656 
  20   2.0000     -10.240399      -278.6554 
  21   2.0000     -10.231298      -278.4078 
  22   2.0000     -10.230533      -278.3869 
  23   2.0000     -10.228780      -278.3393 
  24   2.0000     -10.226905      -278.2882 
  25   2.0000     -10.222783      -278.1761 
  26   2.0000      -1.216135       -33.0927 
  27   2.0000      -1.159193       -31.5432 
  28   2.0000      -1.109624       -30.1944 
  29   2.0000      -1.067251       -29.0414 
  30   2.0000      -1.040834       -28.3225 
  31   2.0000      -1.019177       -27.7332 
  32   2.0000      -0.909154       -24.7393 
  33   2.0000      -0.882291       -24.0084 
  34   2.0000      -0.858703       -23.3665 
  35   2.0000      -0.833969       -22.6935 
  36   2.0000      -0.815597       -22.1935 
  37   2.0000      -0.795906       -21.6577 
  38   2.0000      -0.780949       -21.2507 
  39   2.0000      -0.778627       -21.1875 
  40   2.0000      -0.754448       -20.5296 
  41   2.0000      -0.720431       -19.6039 
  42   2.0000      -0.695871       -18.9356 
  43   2.0000      -0.681657       -18.5488 
  44   2.0000      -0.668607       -18.1937 
  45   2.0000      -0.648918       -17.6580 
  46   2.0000      -0.626215       -17.0402 
  47   2.0000      -0.615057       -16.7366 
  48   2.0000      -0.594379       -16.1739 
  49   2.0000      -0.586374       -15.9560 
  50   2.0000      -0.570634       -15.5278 
  51   2.0000      -0.558267       -15.1912 
  52   2.0000      -0.546857       -14.8807 
  53   2.0000      -0.533442       -14.5157 
  54   2.0000      -0.529614       -14.4115 
  55   2.0000      -0.526861       -14.3366 
  56   2.0000      -0.517523       -14.0825 
  57   2.0000      -0.515071       -14.0158 
  58   2.0000      -0.511842       -13.9279 
  59   2.0000      -0.502618       -13.6769 
  60   2.0000      -0.498571       -13.5668 
  61   2.0000      -0.493327       -13.4241 
  62   2.0000      -0.492241       -13.3946 
  63   2.0000      -0.473638       -12.8884 
  64   2.0000      -0.465917       -12.6783 
  65   2.0000      -0.460880       -12.5412 
  66   2.0000      -0.453513       -12.3407 
  67   2.0000      -0.451794       -12.2939 
  68   2.0000      -0.438763       -11.9393 
  69   2.0000      -0.434716       -11.8292 
  70   2.0000      -0.428059       -11.6481 
  71   2.0000      -0.418462       -11.3869 
  72   2.0000      -0.415534       -11.3073 
  73   2.0000      -0.398047       -10.8314 
  74   2.0000      -0.396523       -10.7899 
  75   2.0000      -0.387184       -10.5358 
  76   2.0000      -0.383442       -10.4340 
  77   2.0000      -0.372220       -10.1286 
  78   2.0000      -0.362950        -9.8764 
  79   2.0000      -0.349116        -9.4999 
  80   2.0000      -0.345809        -9.4100 
  81   2.0000      -0.336723        -9.1627 
  82   2.0000      -0.333699        -9.0804 
  83   2.0000      -0.328717        -8.9448 
  84   2.0000      -0.325736        -8.8637 
  85   2.0000      -0.316209        -8.6045 
  86   2.0000      -0.308911        -8.4059 
  87   2.0000      -0.305489        -8.3128 
  88   2.0000      -0.299504        -8.1499 
  89   2.0000      -0.281564        -7.6617 
  90   2.0000      -0.272339        -7.4107 
  91   2.0000      -0.242205        -6.5907 
  92   2.0000      -0.221821        -6.0360 
  93   0.0000      -0.056247        -1.5306 
  94   0.0000      -0.045559        -1.2397 
  95   0.0000      -0.034500        -0.9388 
  96   0.0000      -0.029634        -0.8064 
  97   0.0000      -0.015059        -0.4098 
  98   0.0000       0.003621         0.0985 
  99   0.0000       0.023729         0.6457 
 100   0.0000       0.047442         1.2910 
 101   0.0000       0.056695         1.5427 
 102   0.0000       0.063639         1.7317 
 103   0.0000       0.065213         1.7745 
 104   0.0000       0.073132         1.9900 
 105   0.0000       0.076895         2.0924 
 106   0.0000       0.078169         2.1271 
 107   0.0000       0.089417         2.4332 
 108   0.0000       0.094274         2.5653 
 109   0.0000       0.095296         2.5931 
 110   0.0000       0.099745         2.7142 
 111   0.0000       0.103140         2.8066 
 112   0.0000       0.105327         2.8661 
 113   0.0000       0.115802         3.1511 
 114   0.0000       0.117838         3.2065 
 115   0.0000       0.121084         3.2949 
 116   0.0000       0.123310         3.3554 
 117   0.0000       0.129193         3.5155 
 118   0.0000       0.132834         3.6146 
 119   0.0000       0.135850         3.6967 
 120   0.0000       0.140333         3.8186 
 121   0.0000       0.145917         3.9706 
 122   0.0000       0.149701         4.0736 
 123   0.0000       0.153819         4.1856 
 124   0.0000       0.155497         4.2313 
 125   0.0000       0.162210         4.4140 
 126   0.0000       0.165527         4.5042 
 127   0.0000       0.170316         4.6345 
 128   0.0000       0.185232         5.0404 
 129   0.0000       0.190477         5.1831 
 130   0.0000       0.197746         5.3809 
 131   0.0000       0.204719         5.5707 
 132   0.0000       0.210180         5.7193 
 133   0.0000       0.211629         5.7587 
 134   0.0000       0.215687         5.8691 
 135   0.0000       0.217722         5.9245 
 136   0.0000       0.219272         5.9667 
 137   0.0000       0.220998         6.0137 
 138   0.0000       0.225349         6.1321 
 139   0.0000       0.230461         6.2712 
 140   0.0000       0.233271         6.3476 
 141   0.0000       0.239446         6.5157 
 142   0.0000       0.243878         6.6363 
 143   0.0000       0.244723         6.6593 
 144   0.0000       0.249230         6.7819 
 145   0.0000       0.252778         6.8784 
 146   0.0000       0.259297         7.0558 
 147   0.0000       0.260753         7.0954 
 148   0.0000       0.265856         7.2343 
 149   0.0000       0.272051         7.4029 
 150   0.0000       0.277792         7.5591 
 151   0.0000       0.281694         7.6653 
 152   0.0000       0.289347         7.8735 
 153   0.0000       0.291324         7.9273 
 154   0.0000       0.296143         8.0585 
 155   0.0000       0.302850         8.2410 
 156   0.0000       0.309045         8.4096 
 157   0.0000       0.310564         8.4509 
 158   0.0000       0.313359         8.5269 
 159   0.0000       0.318534         8.6678 
 160   0.0000       0.321737         8.7549 
 161   0.0000       0.326855         8.8942 
 162   0.0000       0.331289         9.0148 
 163   0.0000       0.334857         9.1119 
 164   0.0000       0.340757         9.2725 
 165   0.0000       0.346633         9.4324 
 166   0.0000       0.350653         9.5418 
 167   0.0000       0.354847         9.6559 
 168   0.0000       0.356871         9.7110 
 169   0.0000       0.360275         9.8036 
 170   0.0000       0.370818        10.0905 
 171   0.0000       0.372709        10.1419 
 172   0.0000       0.373495        10.1633 
 173   0.0000       0.381041        10.3687 
 174   0.0000       0.384282        10.4568 
 175   0.0000       0.386726        10.5233 
 176   0.0000       0.392312        10.6754 
 177   0.0000       0.396593        10.7919 
 178   0.0000       0.398187        10.8352 
 179   0.0000       0.402608        10.9555 
 180   0.0000       0.409478        11.1425 
 181   0.0000       0.409798        11.1512 
[...]
 23:    192.57   0.004069   20.56  0.006594  ( 0.067965 -0.043333  0.009842)
 24:    212.47   0.000166    0.84  0.000244  (-0.014959  0.003063 -0.003334)
 25:    234.39   0.001648    8.33  0.002195  (-0.013560  0.044614  0.004508)
 26:    244.66   0.000209    1.06  0.000267  ( 0.012853 -0.009289  0.003943)
 27:    264.23   0.001562    7.90  0.001845  (-0.008788 -0.038579  0.016722)
 28:    269.76   0.000943    4.77  0.001091  (-0.013384 -0.028668 -0.009501)
 29:    289.60   0.004616   23.33  0.004975  ( 0.043882  0.024796 -0.049336)
 30:    316.58   0.000613    3.10  0.000604  (-0.020640 -0.012364 -0.005012)
 31:    329.81   0.000940    4.75  0.000890  ( 0.023906  0.014623 -0.010211)
 32:    372.13   0.005042   25.48  0.004228  (-0.015395  0.063116 -0.002676)
 33:    398.14   0.000004    0.02  0.000003  (-0.000794  0.001123 -0.001046)
 34:    444.82   0.002297   11.61  0.001612  ( 0.034524  0.019165 -0.007240)
 35:    450.90   0.000117    0.59  0.000081  (-0.003823  0.007945 -0.001798)
 36:    484.19   0.003433   17.35  0.002212  (-0.044281  0.001475 -0.015795)
 37:    490.00   0.000415    2.10  0.000264  (-0.000159  0.016223 -0.000911)
 38:    513.10   0.001373    6.94  0.000835  (-0.007503 -0.020521 -0.018906)
 39:    557.52   0.002420   12.23  0.001355  (-0.012774  0.033771 -0.007137)
 40:    584.38   0.009375   47.38  0.005006  ( 0.023713  0.040332  0.053078)
 41:    587.79   0.012376   62.55  0.006571  (-0.033610 -0.044756 -0.058635)
 42:    597.43   0.000692    3.50  0.000361  ( 0.014907 -0.011787 -0.000501)
 43:    612.47   0.004442   22.45  0.002263  ( 0.040889 -0.020517  0.013062)
 44:    627.61   0.007123   36.00  0.003542  (-0.007580  0.056767 -0.016184)
 45:    636.79   0.002272   11.48  0.001113  ( 0.023885 -0.022571  0.005788)
 46:    659.74   0.000174    0.88  0.000082  (-0.005927  0.006677 -0.001593)
 47:    702.24   0.007230   36.54  0.003213  ( 0.024948 -0.047329  0.018719)
 48:    713.17   0.021563  108.97  0.009435  (-0.041707 -0.085166  0.021041)
 49:    725.86   0.010869   54.93  0.004673  ( 0.063154 -0.017087 -0.019810)
 50:    734.46   0.002776   14.03  0.001179  ( 0.029637  0.013019  0.011470)
 51:    740.17   0.006167   31.16  0.002600  (-0.016596 -0.044120 -0.019441)
 52:    767.58   0.015070   76.16  0.006127  (-0.039456  0.060322 -0.030513)
 53:    771.09   0.004966   25.10  0.002010  ( 0.018101  0.025772 -0.031908)
 54:    777.90   0.010000   50.53  0.004012  (-0.000134 -0.062162  0.012137)
 55:    779.16   0.005957   30.10  0.002386  ( 0.013566 -0.046569  0.005753)
 56:    808.95   0.005286   26.71  0.002039  (-0.012347 -0.009389 -0.042410)
 57:    838.33   0.001350    6.82  0.000503  (-0.005124 -0.016790  0.013948)
 58:    873.55   0.002590   13.09  0.000925  (-0.003068 -0.029114  0.008266)
 59:    888.91   0.005919   29.91  0.002078  (-0.025312 -0.036568  0.010004)
 60:    894.81   0.000033    0.17  0.000011  ( 0.001327  0.002015 -0.002360)
 61:    962.90   0.000902    4.56  0.000292  (-0.007739  0.004277 -0.014628)
 62:    969.39   0.001653    8.35  0.000532  (-0.007192 -0.020471 -0.007826)
 63:    981.22   0.000349    1.76  0.000111  (-0.006416 -0.008147  0.001862)
 64:    994.49   0.000057    0.29  0.000018  (-0.000461 -0.004198 -0.000422)
 65:   1016.39   0.000055    0.28  0.000017  ( 0.000602 -0.002106  0.003477)
 66:   1032.48   0.009063   45.80  0.002739  ( 0.043797 -0.011758  0.026133)
 67:   1042.11   0.000037    0.18  0.000011  (-0.000269 -0.003104 -0.001113)
 68:   1044.16   0.010894   55.05  0.003256  (-0.007822  0.055503  0.010676)
 69:   1060.01   0.000205    1.03  0.000060  (-0.001986  0.003165  0.006803)
 70:   1071.09   0.008624   43.58  0.002513  (-0.048104 -0.008561  0.011203)
 71:   1083.95   0.009765   49.35  0.002811  ( 0.025199 -0.003395 -0.046528)
 72:   1094.85   0.012692   64.14  0.003618  ( 0.032935 -0.049063  0.011210)
 73:   1109.23   0.000846    4.28  0.000238  ( 0.006639  0.011860  0.007303)
 74:   1111.95   0.005146   26.00  0.001444  (-0.015174 -0.013539  0.032103)
 75:   1129.79   0.045870  231.81  0.012670  ( 0.018661  0.098869 -0.050465)
 76:   1142.82   0.057342  289.79  0.015658  (-0.067676 -0.058707  0.087359)
 77:   1168.06   0.000723    3.65  0.000193  ( 0.003940  0.004507  0.012541)
 78:   1170.93   0.000220    1.11  0.000059  (-0.003869  0.005933 -0.002918)
 79:   1172.02   0.000397    2.01  0.000106  (-0.008632  0.005229  0.001977)
 80:   1175.05   0.002349   11.87  0.000624  (-0.019284 -0.003057  0.015573)
 81:   1193.61   0.005365   27.11  0.001403  ( 0.021874  0.025377 -0.016741)
 82:   1198.45   0.016710   84.45  0.004351  (-0.032452 -0.057217  0.004930)
 83:   1213.72   0.001383    6.99  0.000356  ( 0.017248 -0.006371 -0.004185)
 84:   1221.65   0.013925   70.37  0.003557  (-0.034266 -0.048387  0.006450)
 85:   1235.37   0.022394  113.17  0.005657  ( 0.031734  0.058009 -0.035844)
 86:   1236.25   0.005055   25.55  0.001276  ( 0.031224 -0.015920 -0.006910)
 87:   1267.21   0.017292   87.39  0.004258  ( 0.060373 -0.003276 -0.024552)
 88:   1289.43   0.086312  436.19  0.020889  (-0.019178 -0.137352  0.040688)
 89:   1301.81   0.064076  323.81  0.015360  ( 0.043136 -0.023379 -0.113810)
 90:   1313.24   0.044214  223.44  0.010507  ( 0.060264 -0.082501 -0.008274)
 91:   1325.09   0.009296   46.98  0.002189  (-0.044007  0.004144 -0.015345)
 92:   1341.83   0.001738    8.78  0.000404  (-0.004960  0.003611  0.019146)
 93:   1379.99   0.016474   83.25  0.003725  (-0.052590 -0.007965  0.029935)
 94:   1385.86   0.002492   12.59  0.000561  ( 0.015210 -0.006581  0.016927)
 95:   1395.70   0.054389  274.86  0.012161  ( 0.102203 -0.034238 -0.023306)
 96:   1430.05   0.005680   28.70  0.001239  ( 0.009843  0.033791  0.000825)
 97:   1465.29   0.003583   18.11  0.000763  ( 0.021498 -0.016693 -0.004722)
 98:   1466.16   0.005832   29.47  0.001241  (-0.004686 -0.015217 -0.031430)
 99:   1472.36   0.006855   34.64  0.001453  (-0.016097 -0.025041  0.023805)
100:   1473.67   0.002955   14.93  0.000626  ( 0.003099 -0.023870  0.006812)
101:   1481.11   0.016601   83.89  0.003498  ( 0.040800  0.042176  0.007365)
102:   1482.63   0.004836   24.44  0.001018  (-0.004584 -0.012497 -0.028996)
103:   1493.40   0.016885   85.33  0.003528  ( 0.000605  0.002930 -0.059323)
104:   1498.29   0.012316   62.24  0.002565  ( 0.015491 -0.018257 -0.044630)
105:   1527.96   0.000633    3.20  0.000129  (-0.011258  0.001413  0.000724)
106:   1538.51   0.035650  180.16  0.007231  (-0.018324  0.032507  0.076411)
107:   1587.88   0.181199  915.71  0.035611  ( 0.159912  0.049873 -0.086900)
108:   1648.48   0.001698    8.58  0.000321  ( 0.000184 -0.001689 -0.017848)
109:   1649.97   0.002663   13.46  0.000504  (-0.013315  0.008074  0.016161)
110:   1664.45   0.012591   63.63  0.002361  ( 0.000948 -0.023680 -0.042414)
111:   1665.56   0.011233   56.77  0.002105  (-0.040100  0.022219 -0.001720)
112:   1784.57   0.088667  448.08  0.015505  ( 0.019704 -0.016644  0.121818)
113:   2197.39   0.015961   80.66  0.002267  (-0.013873 -0.032491  0.031915)
114:   3036.86   0.012111   61.21  0.001245  (-0.028757  0.004189  0.020000)
115:   3073.43   0.005771   29.16  0.000586  (-0.014705 -0.018590 -0.004911)
116:   3108.69   0.007710   38.96  0.000774  ( 0.002965 -0.024315  0.013188)
117:   3110.20   0.000818    4.13  0.000082  (-0.004583 -0.006607  0.004175)
118:   3157.70   0.003689   18.64  0.000365  (-0.015567  0.010478  0.003534)
119:   3165.37   0.003726   18.83  0.000367  ( 0.005075  0.008849  0.016227)
120:   3180.33   0.000898    4.54  0.000088  ( 0.009023  0.001663 -0.001989)
121:   3192.54   0.002028   10.25  0.000198  (-0.002221 -0.006897  0.012071)
122:   3196.00   0.001272    6.43  0.000124  (-0.010454 -0.003504 -0.001636)
123:   3202.30   0.000695    3.51  0.000068  (-0.006297  0.003884 -0.003603)
124:   3206.60   0.000764    3.86  0.000074  ( 0.007842 -0.003564  0.000381)
125:   3213.18   0.000032    0.16  0.000003  ( 0.000390  0.000311  0.001704)
126:   3214.47   0.002788   14.09  0.000271  (-0.002183 -0.007408 -0.014527)
127:   3230.51   0.000149    0.75  0.000014  ( 0.000636  0.000065  0.003739)
128:   3230.74   0.000346    1.75  0.000033  ( 0.005280  0.000406 -0.002324)
129:   3234.69   0.000322    1.63  0.000031  ( 0.004441 -0.003364  0.000089)
130:   3278.25   0.000250    1.26  0.000024  (-0.002976  0.002209  0.003170)
131:   3449.48   0.046149  233.22  0.004175  ( 0.009451  0.048953 -0.041100)

* The epsilon (eps) is given for a Dirac delta lineshape.
** The dipole moment derivative (T) already includes vibrational overlap.

The first frequency considered to be a vibration is 7
The total number of vibrations considered is 125


--------------------------
THERMOCHEMISTRY AT 298.15K
--------------------------

Temperature         ... 298.15 K
Pressure            ... 1.00 atm
Total Mass          ... 354.36 AMU

Throughout the following assumptions are being made:
  (1) The electronic state is orbitally nondegenerate
  (2) There are no thermally accessible electronically excited states
  (3) Hindered rotations indicated by low frequency modes are not
      treated as such but are treated as vibrations and this may
      cause some error
  (4) All equations used are the standard statistical mechanics
      equations for an ideal gas
  (5) All vibrations are strictly harmonic

freq.      19.46  E(vib)   ...       0.57 
freq.      33.36  E(vib)   ...       0.55 
freq.      39.22  E(vib)   ...       0.54 
freq.      54.06  E(vib)   ...       0.52 
freq.      58.41  E(vib)   ...       0.51 
freq.      63.54  E(vib)   ...       0.51 
freq.      72.06  E(vib)   ...       0.50 
freq.      78.10  E(vib)   ...       0.49 
freq.      98.82  E(vib)   ...       0.46 
freq.     103.48  E(vib)   ...       0.46 
freq.     122.01  E(vib)   ...       0.44 
freq.     145.10  E(vib)   ...       0.41 
freq.     152.87  E(vib)   ...       0.40 
freq.     156.96  E(vib)   ...       0.40 
freq.     167.58  E(vib)   ...       0.38 
freq.     181.82  E(vib)   ...       0.37 
freq.     192.57  E(vib)   ...       0.36 
freq.     212.47  E(vib)   ...       0.34 
freq.     234.39  E(vib)   ...       0.32 
freq.     244.66  E(vib)   ...       0.31 
freq.     264.23  E(vib)   ...       0.29 
freq.     269.76  E(vib)   ...       0.29 
freq.     289.60  E(vib)   ...       0.27 
freq.     316.58  E(vib)   ...       0.25 
freq.     329.81  E(vib)   ...       0.24 
freq.     372.13  E(vib)   ...       0.21 
freq.     398.14  E(vib)   ...       0.20 
freq.     444.82  E(vib)   ...       0.17 
freq.     450.90  E(vib)   ...       0.17 
freq.     484.19  E(vib)   ...       0.15 
freq.     490.00  E(vib)   ...       0.15 
freq.     513.10  E(vib)   ...       0.13 
freq.     557.52  E(vib)   ...       0.12 
freq.     584.38  E(vib)   ...       0.11 
freq.     587.79  E(vib)   ...       0.10 
freq.     597.43  E(vib)   ...       0.10 
freq.     612.47  E(vib)   ...       0.10 
freq.     627.61  E(vib)   ...       0.09 
freq.     636.79  E(vib)   ...       0.09 
freq.     659.74  E(vib)   ...       0.08 
freq.     702.24  E(vib)   ...       0.07 
freq.     713.17  E(vib)   ...       0.07 
freq.     725.86  E(vib)   ...       0.06 
freq.     734.46  E(vib)   ...       0.06 
freq.     740.17  E(vib)   ...       0.06 
freq.     767.58  E(vib)   ...       0.06 
freq.     771.09  E(vib)   ...       0.05 
freq.     777.90  E(vib)   ...       0.05 
freq.     779.16  E(vib)   ...       0.05 
freq.     808.95  E(vib)   ...       0.05 
freq.     838.33  E(vib)   ...       0.04 
freq.     873.55  E(vib)   ...       0.04 
freq.     888.91  E(vib)   ...       0.04 
freq.     894.81  E(vib)   ...       0.03 
freq.     962.90  E(vib)   ...       0.03 
freq.     969.39  E(vib)   ...       0.03 
freq.     981.22  E(vib)   ...       0.02 
freq.     994.49  E(vib)   ...       0.02 
freq.    1016.39  E(vib)   ...       0.02 
freq.    1032.48  E(vib)   ...       0.02 
freq.    1042.11  E(vib)   ...       0.02 
freq.    1044.16  E(vib)   ...       0.02 
freq.    1060.01  E(vib)   ...       0.02 
freq.    1071.09  E(vib)   ...       0.02 
freq.    1083.95  E(vib)   ...       0.02 
freq.    1094.85  E(vib)   ...       0.02 
freq.    1109.23  E(vib)   ...       0.02 
freq.    1111.95  E(vib)   ...       0.01 
freq.    1129.79  E(vib)   ...       0.01 
freq.    1142.82  E(vib)   ...       0.01 
freq.    1168.06  E(vib)   ...       0.01 
freq.    1170.93  E(vib)   ...       0.01 
freq.    1172.02  E(vib)   ...       0.01 
freq.    1175.05  E(vib)   ...       0.01 
freq.    1193.61  E(vib)   ...       0.01 
freq.    1198.45  E(vib)   ...       0.01 
freq.    1213.72  E(vib)   ...       0.01 
freq.    1221.65  E(vib)   ...       0.01 
freq.    1235.37  E(vib)   ...       0.01 
freq.    1236.25  E(vib)   ...       0.01 
freq.    1267.21  E(vib)   ...       0.01 
freq.    1289.43  E(vib)   ...       0.01 
freq.    1301.81  E(vib)   ...       0.01 
freq.    1313.24  E(vib)   ...       0.01 
freq.    1325.09  E(vib)   ...       0.01 
freq.    1341.83  E(vib)   ...       0.01 
freq.    1379.99  E(vib)   ...       0.01 
freq.    1385.86  E(vib)   ...       0.00 
freq.    1395.70  E(vib)   ...       0.00 
freq.    1430.05  E(vib)   ...       0.00 
freq.    1465.29  E(vib)   ...       0.00 
freq.    1466.16  E(vib)   ...       0.00 
freq.    1472.36  E(vib)   ...       0.00 
freq.    1473.67  E(vib)   ...       0.00 
freq.    1481.11  E(vib)   ...       0.00 
freq.    1482.63  E(vib)   ...       0.00 
freq.    1493.40  E(vib)   ...       0.00 
freq.    1498.29  E(vib)   ...       0.00 
freq.    1527.96  E(vib)   ...       0.00 
freq.    1538.51  E(vib)   ...       0.00 
freq.    1587.88  E(vib)   ...       0.00 
freq.    1648.48  E(vib)   ...       0.00 
freq.    1649.97  E(vib)   ...       0.00 
freq.    1664.45  E(vib)   ...       0.00 
freq.    1665.56  E(vib)   ...       0.00 
freq.    1784.57  E(vib)   ...       0.00 
freq.    2197.39  E(vib)   ...       0.00 
freq.    3036.86  E(vib)   ...       0.00 
freq.    3073.43  E(vib)   ...       0.00 
freq.    3108.69  E(vib)   ...       0.00 
freq.    3110.20  E(vib)   ...       0.00 
freq.    3157.70  E(vib)   ...       0.00 
freq.    3165.37  E(vib)   ...       0.00 
freq.    3180.33  E(vib)   ...       0.00 
freq.    3192.54  E(vib)   ...       0.00 
freq.    3196.00  E(vib)   ...       0.00 
freq.    3202.30  E(vib)   ...       0.00 
freq.    3206.60  E(vib)   ...       0.00 
freq.    3213.18  E(vib)   ...       0.00 
freq.    3214.47  E(vib)   ...       0.00 
freq.    3230.51  E(vib)   ...       0.00 
freq.    3230.74  E(vib)   ...       0.00 
freq.    3234.69  E(vib)   ...       0.00 
freq.    3278.25  E(vib)   ...       0.00 
freq.    3449.48  E(vib)   ...       0.00 

------------
INNER ENERGY
------------

The inner energy is: U= E(el) + E(ZPE) + E(vib) + E(rot) + E(trans)
    E(el)   - is the total energy from the electronic structure calculation
              = E(kin-el) + E(nuc-el) + E(el-el) + E(nuc-nuc)
    E(ZPE)  - the the zero temperature vibrational energy from the frequency calculation
    E(vib)  - the the finite temperature correction to E(ZPE) due to population
              of excited vibrational states
    E(rot)  - is the rotational thermal energy
    E(trans)- is the translational thermal energy

Summary of contributions to the inner energy U:
Electronic energy                ...  -1219.39729701 Eh
Zero point energy                ...      0.34121316 Eh     214.11 kcal/mol
Thermal vibrational correction   ...      0.02130525 Eh      13.37 kcal/mol
Thermal rotational correction    ...      0.00141627 Eh       0.89 kcal/mol
Thermal translational correction ...      0.00141627 Eh       0.89 kcal/mol
-----------------------------------------------------------------------
Total thermal energy                  -1219.03194606 Eh


Summary of corrections to the electronic energy:
(perhaps to be used in another calculation)
Total thermal correction                  0.02413779 Eh      15.15 kcal/mol
Non-thermal (ZPE) correction              0.34121316 Eh     214.11 kcal/mol
-----------------------------------------------------------------------
Total correction                          0.36535095 Eh     229.26 kcal/mol


--------
ENTHALPY
--------

The enthalpy is H = U + kB*T
                kB is Boltzmann's constant
Total free energy                 ...  -1219.03194606 Eh 
Thermal Enthalpy correction       ...      0.00094421 Eh       0.59 kcal/mol
-----------------------------------------------------------------------
Total Enthalpy                    ...  -1219.03100185 Eh


Note: Only C1 symmetry has been detected, increase convergence thresholds 
      if your molecule has a higher symmetry. Symmetry factor of 1.0 is   
      used for the rotational entropy correction. 
 

Note: Rotational entropy computed according to Herzberg 
Infrared and Raman Spectra, Chapter V,1, Van Nostrand Reinhold, 1945 
Point Group:  C1, Symmetry Number:   1  
Rotational constants in cm-1:     0.008413     0.007427     0.005118 

Vibrational entropy computed according to the QRRHO of S. Grimme
Chem.Eur.J. 2012 18 9955


-------
ENTROPY
-------

The entropy contributions are T*S = T*(S(el)+S(vib)+S(rot)+S(trans))
     S(el)   - electronic entropy
     S(vib)  - vibrational entropy
     S(rot)  - rotational entropy
     S(trans)- translational entropy
The entropies will be listed as multiplied by the temperature to get
units of energy

Electronic entropy                ...      0.00000000 Eh      0.00 kcal/mol
Vibrational entropy               ...      0.03842836 Eh     24.11 kcal/mol
Rotational entropy                ...      0.01657120 Eh     10.40 kcal/mol
Translational entropy             ...      0.02066304 Eh     12.97 kcal/mol
-----------------------------------------------------------------------
Final entropy term                ...      0.07566260 Eh     47.48 kcal/mol

In case the symmetry of your molecule has not been determined correctly
or in case you have a reason to use a different symmetry number we print 
out the resulting rotational entropy values for sn=1,12 :
 --------------------------------------------------------
|  sn= 1 | S(rot)=       0.01657120 Eh     10.40 kcal/mol|
|  sn= 2 | S(rot)=       0.01591674 Eh      9.99 kcal/mol|
|  sn= 3 | S(rot)=       0.01553391 Eh      9.75 kcal/mol|
|  sn= 4 | S(rot)=       0.01526229 Eh      9.58 kcal/mol|
|  sn= 5 | S(rot)=       0.01505160 Eh      9.45 kcal/mol|
|  sn= 6 | S(rot)=       0.01487946 Eh      9.34 kcal/mol|
|  sn= 7 | S(rot)=       0.01473391 Eh      9.25 kcal/mol|
|  sn= 8 | S(rot)=       0.01460783 Eh      9.17 kcal/mol|
|  sn= 9 | S(rot)=       0.01449662 Eh      9.10 kcal/mol|
|  sn=10 | S(rot)=       0.01439714 Eh      9.03 kcal/mol|
|  sn=11 | S(rot)=       0.01430715 Eh      8.98 kcal/mol|
|  sn=12 | S(rot)=       0.01422500 Eh      8.93 kcal/mol|
 --------------------------------------------------------


-------------------
GIBBS FREE ENERGY
-------------------

The Gibbs free energy is G = H - T*S

Total enthalpy                    ...  -1219.03100185 Eh 
Total entropy correction          ...     -0.07566260 Eh    -47.48 kcal/mol
-----------------------------------------------------------------------
Final Gibbs free energy         ...  -1219.10666445 Eh

For completeness - the Gibbs free energy minus the electronic energy
G-E(el)                           ...      0.29063256 Eh    182.37 kcal/mol


Timings for individual modules:

Sum of individual times         ...     6218.326 sec (= 103.639 min)
GTO integral calculation        ...       50.279 sec (=   0.838 min)   0.8 %
SCF iterations                  ...     2489.623 sec (=  41.494 min)  40.0 %
SCF Gradient evaluation         ...      693.194 sec (=  11.553 min)  11.1 %
Geometry relaxation             ...        3.816 sec (=   0.064 min)   0.1 %
Analytical frequency calculation...     2981.412 sec (=  49.690 min)  47.9 %
                             ****ORCA TERMINATED NORMALLY****
TOTAL RUN TIME: 0 days 1 hours 44 minutes 32 seconds 839 msec
